 Entering Gaussian System, Link 0=g16
 Input=O2_triplet.com
 Output=O2_triplet.log
 Initial command:
 /home/saurabh/gaussian/g16/l1.exe "/home/saurabh/gaussian/gauss_scr/Gau-32244.inp" -scrdir="/home/saurabh/gaussian/gauss_scr/"
 Entering Link 1 = /home/saurabh/gaussian/g16/l1.exe PID=     32245.
  
 Copyright (c) 1988-2019, Gaussian, Inc.  All Rights Reserved.
  
 This is part of the Gaussian(R) 16 program.  It is based on
 the Gaussian(R) 09 system (copyright 2009, Gaussian, Inc.),
 the Gaussian(R) 03 system (copyright 2003, Gaussian, Inc.),
 the Gaussian(R) 98 system (copyright 1998, Gaussian, Inc.),
 the Gaussian(R) 94 system (copyright 1995, Gaussian, Inc.),
 the Gaussian 92(TM) system (copyright 1992, Gaussian, Inc.),
 the Gaussian 90(TM) system (copyright 1990, Gaussian, Inc.),
 the Gaussian 88(TM) system (copyright 1988, Gaussian, Inc.),
 the Gaussian 86(TM) system (copyright 1986, Carnegie Mellon
 University), and the Gaussian 82(TM) system (copyright 1983,
 Carnegie Mellon University). Gaussian is a federally registered
 trademark of Gaussian, Inc.
  
 This software contains proprietary and confidential information,
 including trade secrets, belonging to Gaussian, Inc.
  
 This software is provided under written license and may be
 used, copied, transmitted, or stored only in accord with that
 written license.
  
 The following legend is applicable only to US Government
 contracts under FAR:
  
                    RESTRICTED RIGHTS LEGEND
  
 Use, reproduction and disclosure by the US Government is
 subject to restrictions as set forth in subparagraphs (a)
 and (c) of the Commercial Computer Software - Restricted
 Rights clause in FAR 52.227-19.
  
 Gaussian, Inc.
 340 Quinnipiac St., Bldg. 40, Wallingford CT 06492
  
  
 ---------------------------------------------------------------
 Warning -- This program may not be used in any manner that
 competes with the business of Gaussian, Inc. or will provide
 assistance to any competitor of Gaussian, Inc.  The licensee
 of this program is prohibited from giving any competitor of
 Gaussian, Inc. access to this program.  By using this program,
 the user acknowledges that Gaussian, Inc. is engaged in the
 business of creating and licensing software in the field of
 computational chemistry and represents and warrants to the
 licensee that it is not a competitor of Gaussian, Inc. and that
 it will not use this program in any manner prohibited above.
 ---------------------------------------------------------------
  

 Cite this work as:
 Gaussian 16, Revision C.01,
 M. J. Frisch, G. W. Trucks, H. B. Schlegel, G. E. Scuseria, 
 M. A. Robb, J. R. Cheeseman, G. Scalmani, V. Barone, 
 G. A. Petersson, H. Nakatsuji, X. Li, M. Caricato, A. V. Marenich, 
 J. Bloino, B. G. Janesko, R. Gomperts, B. Mennucci, H. P. Hratchian, 
 J. V. Ortiz, A. F. Izmaylov, J. L. Sonnenberg, D. Williams-Young, 
 F. Ding, F. Lipparini, F. Egidi, J. Goings, B. Peng, A. Petrone, 
 T. Henderson, D. Ranasinghe, V. G. Zakrzewski, J. Gao, N. Rega, 
 G. Zheng, W. Liang, M. Hada, M. Ehara, K. Toyota, R. Fukuda, 
 J. Hasegawa, M. Ishida, T. Nakajima, Y. Honda, O. Kitao, H. Nakai, 
 T. Vreven, K. Throssell, J. A. Montgomery, Jr., J. E. Peralta, 
 F. Ogliaro, M. J. Bearpark, J. J. Heyd, E. N. Brothers, K. N. Kudin, 
 V. N. Staroverov, T. A. Keith, R. Kobayashi, J. Normand, 
 K. Raghavachari, A. P. Rendell, J. C. Burant, S. S. Iyengar, 
 J. Tomasi, M. Cossi, J. M. Millam, M. Klene, C. Adamo, R. Cammi, 
 J. W. Ochterski, R. L. Martin, K. Morokuma, O. Farkas, 
 J. B. Foresman, and D. J. Fox, Gaussian, Inc., Wallingford CT, 2019.
 
 ******************************************
 Gaussian 16:  ES64L-G16RevC.01  3-Jul-2019
                28-Feb-2022 
 ******************************************
 %nproc=22
 Will use up to   22 processors via shared memory.
 %mem=128GB
 %chk=O2_triplet.chk
 ----------------------------------------------------------------------
 #p w1u scf(verytight, maxcycles=1000) opt(calcfc, maxcyc=1000) int(gri
 d=ultrafine)
 ----------------------------------------------------------------------
 1/6=1000,10=4,18=20,19=15,26=4,38=1/1,3;
 2/9=110,12=2,17=6,18=5,40=1/2;
 3/5=16,6=1,7=9,11=2,25=1,30=1,71=2,74=-5,75=-5,140=1/1,2,3;
 4//1;
 5/5=2,7=1000,17=3,38=5/2;
 8/6=4,10=90,11=11/1;
 11/6=1,8=1,9=11,15=111,16=1/1,2,10;
 10/6=1,13=1/2;
 6/7=2,8=2,9=2,10=2,28=1/1;
 7/10=1,25=1/1,2,3,16;
 1/6=1000,10=4,18=20,19=15,26=4/3(2);
 2/9=110/2;
 99//99;
 2/9=110/2;
 3/5=16,6=1,7=9,11=2,25=1,30=1,71=1,74=-5,75=-5/1,2,3;
 4/5=5,16=3,69=1/1;
 5/5=2,7=1000,17=3,38=5/2;
 7//1,2,3,16;
 1/6=1000,18=20,19=15,26=4/3(-5);
 2/9=110/2;
 6/7=2,8=2,9=2,10=2,19=2,28=1/1;
 99/9=1/99;
 Leave Link    1 at Mon Feb 28 19:22:57 2022, MaxMem= 17179869184 cpu:               1.1 elap:               0.1
 (Enter /home/saurabh/gaussian/g16/l101.exe)
 ------
 O2_w1u
 ------
 Symbolic Z-matrix:
 Charge =  0 Multiplicity = 3
 O                    -4.28263   2.99998   0. 
 O                    -3.14935   3.20071   0. 
 
 ITRead=  0  0
 MicOpt= -1 -1
 NAtoms=      2 NQM=        2 NQMF=       0 NMMI=      0 NMMIF=      0
                NMic=       0 NMicF=      0.
                    Isotopes and Nuclear Properties:
 (Nuclear quadrupole moments (NQMom) in fm**2, nuclear magnetic moments (NMagM)
  in nuclear magnetons)

  Atom         1           2
 IAtWgt=          16          16
 AtmWgt=  15.9949146  15.9949146
 NucSpn=           0           0
 AtZEff=  -0.0000000  -0.0000000
 NQMom=    0.0000000   0.0000000
 NMagM=    0.0000000   0.0000000
 AtZNuc=   8.0000000   8.0000000
 Leave Link  101 at Mon Feb 28 19:22:58 2022, MaxMem= 17179869184 cpu:               8.6 elap:               0.4
 (Enter /home/saurabh/gaussian/g16/l103.exe)

 GradGradGradGradGradGradGradGradGradGradGradGradGradGradGradGradGradGrad
 Berny optimization.
 Initialization pass.
                           ----------------------------
                           !    Initial Parameters    !
                           ! (Angstroms and Degrees)  !
 --------------------------                            --------------------------
 ! Name  Definition              Value          Derivative Info.                !
 --------------------------------------------------------------------------------
 ! R1    R(1,2)                  1.1509         calculate D2E/DX2 analytically  !
 --------------------------------------------------------------------------------
 Trust Radius=3.00D-01 FncErr=1.00D-07 GrdErr=1.00D-06 EigMax=2.50D+02 EigMin=1.00D-04
 Number of steps in this run=    100 maximum allowed number of steps=    100.
 GradGradGradGradGradGradGradGradGradGradGradGradGradGradGradGradGradGrad

 Leave Link  103 at Mon Feb 28 19:22:58 2022, MaxMem= 17179869184 cpu:               0.2 elap:               0.0
 (Enter /home/saurabh/gaussian/g16/l202.exe)
                          Input orientation:                          
 ---------------------------------------------------------------------
 Center     Atomic      Atomic             Coordinates (Angstroms)
 Number     Number       Type             X           Y           Z
 ---------------------------------------------------------------------
      1          8           0       -4.282630    2.999980    0.000000
      2          8           0       -3.149350    3.200710    0.000000
 ---------------------------------------------------------------------
 Stoichiometry    O2(3)
 Framework group  D*H[C*(O.O)]
 Deg. of freedom     1
 Full point group                 D*H     NOp   8
 Largest Abelian subgroup         D2H     NOp   8
 Largest concise Abelian subgroup C2      NOp   2
                         Standard orientation:                         
 ---------------------------------------------------------------------
 Center     Atomic      Atomic             Coordinates (Angstroms)
 Number     Number       Type             X           Y           Z
 ---------------------------------------------------------------------
      1          8           0       -0.000000   -0.000000    0.575460
      2          8           0        0.000000    0.000000   -0.575460
 ---------------------------------------------------------------------
 Rotational constants (GHZ):           0.0000000          47.7062459          47.7062459
 Leave Link  202 at Mon Feb 28 19:22:58 2022, MaxMem= 17179869184 cpu:               0.3 elap:               0.0
 (Enter /home/saurabh/gaussian/g16/l301.exe)
 Standard basis: CC-pVTZ+d (5D, 7F)
 Ernie: Thresh=  0.10000D-02 Tol=  0.10000D-05 Strict=F.
 Ernie:  6 primitive shells out of 52 were deleted.
 There are    16 symmetry adapted cartesian basis functions of AG  symmetry.
 There are     3 symmetry adapted cartesian basis functions of B1G symmetry.
 There are     8 symmetry adapted cartesian basis functions of B2G symmetry.
 There are     8 symmetry adapted cartesian basis functions of B3G symmetry.
 There are     3 symmetry adapted cartesian basis functions of AU  symmetry.
 There are    16 symmetry adapted cartesian basis functions of B1U symmetry.
 There are     8 symmetry adapted cartesian basis functions of B2U symmetry.
 There are     8 symmetry adapted cartesian basis functions of B3U symmetry.
 There are    13 symmetry adapted basis functions of AG  symmetry.
 There are     3 symmetry adapted basis functions of B1G symmetry.
 There are     7 symmetry adapted basis functions of B2G symmetry.
 There are     7 symmetry adapted basis functions of B3G symmetry.
 There are     3 symmetry adapted basis functions of AU  symmetry.
 There are    13 symmetry adapted basis functions of B1U symmetry.
 There are     7 symmetry adapted basis functions of B2U symmetry.
 There are     7 symmetry adapted basis functions of B3U symmetry.
    60 basis functions,   104 primitive gaussians,    70 cartesian basis functions
     9 alpha electrons        7 beta electrons
       nuclear repulsion energy        29.4263295033 Hartrees.
 IExCor=  402 DFT=T Ex+Corr=B3LYP ExCW=0 ScaHFX=  0.200000
 ScaDFX=  0.800000  0.720000  1.000000  0.810000 ScalE2=  1.000000  1.000000
 IRadAn=      5 IRanWt=     -1 IRanGd=            0 ICorTp=0 IEmpDi=  4
 NAtoms=    2 NActive=    2 NUniq=    1 SFac= 4.00D+00 NAtFMM=   60 NAOKFM=F Big=F
 Integral buffers will be    131072 words long.
 Raffenetti 2 integral format.
 Two-electron integral symmetry is turned on.
 Leave Link  301 at Mon Feb 28 19:22:58 2022, MaxMem= 17179869184 cpu:               1.4 elap:               0.1
 (Enter /home/saurabh/gaussian/g16/l302.exe)
 NPDir=0 NMtPBC=     1 NCelOv=     1 NCel=       1 NClECP=     1 NCelD=      1
         NCelK=      1 NCelE2=     1 NClLst=     1 CellRange=     0.0.
 One-electron integrals computed using PRISM.
 One-electron integral symmetry used in STVInt
 NBasis=    60 RedAO= T EigKep=  3.44D-03  NBF=    13     3     7     7     3    13     7     7
 NBsUse=    60 1.00D-06 EigRej= -1.00D+00 NBFU=    13     3     7     7     3    13     7     7
 Precomputing XC quadrature grid using
 IXCGrd= 4 IRadAn=           5 IRanWt=          -1 IRanGd=           0 AccXCQ= 0.00D+00.
 Generated NRdTot=       0 NPtTot=           0 NUsed=           0 NTot=          32
 NSgBfM=    70    70    70    70    70 MxSgAt=     2 MxSgA2=     2.
 Leave Link  302 at Mon Feb 28 19:22:58 2022, MaxMem= 17179869184 cpu:               3.1 elap:               0.2
 (Enter /home/saurabh/gaussian/g16/l303.exe)
 DipDrv:  MaxL=1.
 Leave Link  303 at Mon Feb 28 19:22:58 2022, MaxMem= 17179869184 cpu:               0.6 elap:               0.1
 (Enter /home/saurabh/gaussian/g16/l401.exe)
 ExpMin= 2.14D-01 ExpMax= 1.53D+04 ExpMxC= 5.22D+02 IAcc=3 IRadAn=         5 AccDes= 0.00D+00
 Harris functional with IExCor=  402 and IRadAn=       5 diagonalized for initial guess.
 HarFok:  IExCor=  402 AccDes= 0.00D+00 IRadAn=         5 IDoV= 1 UseB2=F ITyADJ=14
 ICtDFT=  3500011 ScaDFX=  1.000000  1.000000  1.000000  1.000000
 FoFCou: FMM=F IPFlag=           0 FMFlag=      100000 FMFlg1=           0
         NFxFlg=           0 DoJE=T BraDBF=F KetDBF=T FulRan=T
         wScrn=  0.000000 ICntrl=       500 IOpCl=  0 I1Cent=   200000004 NGrid=           0
         NMat0=    1 NMatS0=      1 NMatT0=    0 NMatD0=    1 NMtDS0=    0 NMtDT0=    0
 Petite list used in FoFCou.
 Harris En= -150.319503041947    
 JPrj=0 DoOrth=F DoCkMO=F.
 Initial guess orbital symmetries:
 Alpha Orbitals:
       Occupied  (SGG) (SGU) (SGG) (SGU) (SGG) (PIU) (PIU) (PIG)
                 (PIG)
       Virtual   (SGU) (SGU) (PIU) (PIU) (SGG) (PIG) (PIG) (SGG)
                 (SGU) (DLTG) (DLTG) (PIU) (PIU) (DLTU) (DLTU)
                 (SGU) (SGG) (PIG) (PIG) (PIU) (PIU) (SGG) (PIG)
                 (PIG) (DLTG) (DLTG) (SGU) (PIU) (PIU) (PHIU) (PHIU)
                 (SGG) (PHIG) (PHIG) (SGU) (DLTU) (DLTU) (DLTG)
                 (DLTG) (DLTU) (DLTU) (PIG) (PIG) (PIU) (PIU) (SGU)
                 (SGG) (PIG) (PIG) (SGG) (SGU)
 Beta  Orbitals:
       Occupied  (SGG) (SGU) (SGG) (SGU) (SGG) (PIU) (PIU)
       Virtual   (PIG) (PIG) (SGU) (SGU) (PIU) (PIU) (SGG) (PIG)
                 (PIG) (SGG) (SGU) (DLTG) (DLTG) (PIU) (PIU) (DLTU)
                 (DLTU) (SGU) (SGG) (PIG) (PIG) (PIU) (PIU) (SGG)
                 (PIG) (PIG) (DLTG) (DLTG) (SGU) (PIU) (PIU) (PHIU)
                 (PHIU) (SGG) (PHIG) (PHIG) (SGU) (DLTU) (DLTU)
                 (DLTG) (DLTG) (DLTU) (DLTU) (PIG) (PIG) (PIU)
                 (PIU) (SGU) (SGG) (PIG) (PIG) (SGG) (SGU)
 The electronic state of the initial guess is 3-SGG.
 Initial guess <Sx>= 0.0000 <Sy>= 0.0000 <Sz>= 1.0000 <S**2>= 2.0000 S= 1.0000
 Leave Link  401 at Mon Feb 28 19:22:58 2022, MaxMem= 17179869184 cpu:               4.1 elap:               0.2
 (Enter /home/saurabh/gaussian/g16/l502.exe)
 Keep R1 and R2 ints in memory in symmetry-blocked form, NReq=21337429.
 FoFCou: FMM=F IPFlag=           0 FMFlag=           0 FMFlg1=           0
         NFxFlg=           0 DoJE=F BraDBF=F KetDBF=F FulRan=T
         wScrn=  0.000000 ICntrl=       600 IOpCl=  0 I1Cent=           0 NGrid=           0
         NMat0=    1 NMatS0=   1830 NMatT0=    0 NMatD0=    1 NMtDS0=    0 NMtDT0=    0
 Petite list used in FoFCou.
 UHF open shell SCF:
 Using DIIS extrapolation, IDIIS=  1040.
 NGot= 17179869184 LenX= 17179414746 LenY= 17179409405
 Requested convergence on RMS density matrix=1.00D-08 within1000 cycles.
 Requested convergence on MAX density matrix=1.00D-06.
 Requested convergence on             energy=1.00D-06.
 No special actions if energy rises.
 Integral accuracy reduced to 1.0D-05 until final iterations.

 Cycle   1  Pass 0  IDiag  1:
 E= -150.363764176047    
 DIIS: error= 2.76D-02 at cycle   1 NSaved=   1.
 NSaved= 1 IEnMin= 1 EnMin= -150.363764176047     IErMin= 1 ErrMin= 2.76D-02
 ErrMax= 2.76D-02  0.00D+00 EMaxC= 1.00D-01 BMatC= 8.23D-02 BMatP= 8.23D-02
 IDIUse=3 WtCom= 7.24D-01 WtEn= 2.76D-01
 Coeff-Com:  0.100D+01
 Coeff-En:   0.100D+01
 Coeff:      0.100D+01
 Gap=     0.524 Goal=   None    Shift=    0.000
 Gap=     0.395 Goal=   None    Shift=    0.000
 GapD=    0.395 DampG=1.000 DampE=0.500 DampFc=0.5000 IDamp=-1.
 Damping current iteration by 5.00D-01
 RMSDP=1.50D-03 MaxDP=2.04D-02              OVMax= 4.00D-02

 Cycle   2  Pass 0  IDiag  1:
 E= -150.369950840208     Delta-E=       -0.006186664161 Rises=F Damp=T
 DIIS: error= 1.25D-02 at cycle   2 NSaved=   2.
 NSaved= 2 IEnMin= 2 EnMin= -150.369950840208     IErMin= 2 ErrMin= 1.25D-02
 ErrMax= 1.25D-02  0.00D+00 EMaxC= 1.00D-01 BMatC= 1.45D-02 BMatP= 8.23D-02
 IDIUse=3 WtCom= 8.75D-01 WtEn= 1.25D-01
 Coeff-Com: -0.586D+00 0.159D+01
 Coeff-En:   0.000D+00 0.100D+01
 Coeff:     -0.513D+00 0.151D+01
 Gap=     0.530 Goal=   None    Shift=    0.000
 Gap=     0.389 Goal=   None    Shift=    0.000
 RMSDP=6.55D-04 MaxDP=1.17D-02 DE=-6.19D-03 OVMax= 1.24D-02

 Cycle   3  Pass 0  IDiag  1:
 E= -150.375969653718     Delta-E=       -0.006018813511 Rises=F Damp=F
 DIIS: error= 1.35D-03 at cycle   3 NSaved=   3.
 NSaved= 3 IEnMin= 3 EnMin= -150.375969653718     IErMin= 3 ErrMin= 1.35D-03
 ErrMax= 1.35D-03  0.00D+00 EMaxC= 1.00D-01 BMatC= 1.81D-04 BMatP= 1.45D-02
 IDIUse=3 WtCom= 9.87D-01 WtEn= 1.35D-02
 Coeff-Com: -0.252D-01-0.203D-01 0.105D+01
 Coeff-En:   0.000D+00 0.000D+00 0.100D+01
 Coeff:     -0.249D-01-0.200D-01 0.104D+01
 Gap=     0.532 Goal=   None    Shift=    0.000
 Gap=     0.390 Goal=   None    Shift=    0.000
 RMSDP=1.12D-04 MaxDP=2.32D-03 DE=-6.02D-03 OVMax= 2.50D-03

 Cycle   4  Pass 0  IDiag  1:
 E= -150.376015902801     Delta-E=       -0.000046249083 Rises=F Damp=F
 DIIS: error= 5.38D-04 at cycle   4 NSaved=   4.
 NSaved= 4 IEnMin= 4 EnMin= -150.376015902801     IErMin= 4 ErrMin= 5.38D-04
 ErrMax= 5.38D-04  0.00D+00 EMaxC= 1.00D-01 BMatC= 1.92D-05 BMatP= 1.81D-04
 IDIUse=3 WtCom= 9.95D-01 WtEn= 5.38D-03
 Coeff-Com:  0.714D-02-0.420D-01 0.233D+00 0.802D+00
 Coeff-En:   0.000D+00 0.000D+00 0.000D+00 0.100D+01
 Coeff:      0.710D-02-0.418D-01 0.232D+00 0.803D+00
 Gap=     0.531 Goal=   None    Shift=    0.000
 Gap=     0.390 Goal=   None    Shift=    0.000
 RMSDP=2.54D-05 MaxDP=4.51D-04 DE=-4.62D-05 OVMax= 8.29D-04

 Cycle   5  Pass 0  IDiag  1:
 E= -150.376018841917     Delta-E=       -0.000002939116 Rises=F Damp=F
 DIIS: error= 1.71D-04 at cycle   5 NSaved=   5.
 NSaved= 5 IEnMin= 5 EnMin= -150.376018841917     IErMin= 5 ErrMin= 1.71D-04
 ErrMax= 1.71D-04  0.00D+00 EMaxC= 1.00D-01 BMatC= 3.09D-06 BMatP= 1.92D-05
 IDIUse=3 WtCom= 9.98D-01 WtEn= 1.71D-03
 Coeff-Com:  0.504D-02-0.888D-02-0.618D-01 0.266D+00 0.799D+00
 Coeff-En:   0.000D+00 0.000D+00 0.000D+00 0.000D+00 0.100D+01
 Coeff:      0.503D-02-0.886D-02-0.617D-01 0.266D+00 0.800D+00
 Gap=     0.532 Goal=   None    Shift=    0.000
 Gap=     0.390 Goal=   None    Shift=    0.000
 RMSDP=1.08D-05 MaxDP=2.37D-04 DE=-2.94D-06 OVMax= 2.57D-04

 Cycle   6  Pass 0  IDiag  1:
 E= -150.376019374629     Delta-E=       -0.000000532712 Rises=F Damp=F
 DIIS: error= 7.64D-06 at cycle   6 NSaved=   6.
 NSaved= 6 IEnMin= 6 EnMin= -150.376019374629     IErMin= 6 ErrMin= 7.64D-06
 ErrMax= 7.64D-06  0.00D+00 EMaxC= 1.00D-01 BMatC= 6.04D-09 BMatP= 3.09D-06
 IDIUse=1 WtCom= 1.00D+00 WtEn= 0.00D+00
 Coeff-Com: -0.404D-03 0.808D-03 0.497D-02-0.358D-01-0.540D-01 0.108D+01
 Coeff:     -0.404D-03 0.808D-03 0.497D-02-0.358D-01-0.540D-01 0.108D+01
 Gap=     0.532 Goal=   None    Shift=    0.000
 Gap=     0.390 Goal=   None    Shift=    0.000
 RMSDP=4.35D-07 MaxDP=8.73D-06 DE=-5.33D-07 OVMax= 1.33D-05

 Initial convergence to 1.0D-05 achieved.  Increase integral accuracy.
 Cycle   7  Pass 1  IDiag  1:
 E= -150.376014327799     Delta-E=        0.000005046830 Rises=F Damp=F
 DIIS: error= 1.96D-06 at cycle   1 NSaved=   1.
 NSaved= 1 IEnMin= 1 EnMin= -150.376014327799     IErMin= 1 ErrMin= 1.96D-06
 ErrMax= 1.96D-06  0.00D+00 EMaxC= 1.00D-01 BMatC= 4.72D-10 BMatP= 4.72D-10
 IDIUse=1 WtCom= 1.00D+00 WtEn= 0.00D+00
 Coeff-Com:  0.100D+01
 Coeff:      0.100D+01
 Gap=     0.532 Goal=   None    Shift=    0.000
 Gap=     0.390 Goal=   None    Shift=    0.000
 RMSDP=4.35D-07 MaxDP=8.73D-06 DE= 5.05D-06 OVMax= 3.26D-06

 Cycle   8  Pass 1  IDiag  1:
 E= -150.376014327870     Delta-E=       -0.000000000071 Rises=F Damp=F
 DIIS: error= 6.27D-07 at cycle   2 NSaved=   2.
 NSaved= 2 IEnMin= 2 EnMin= -150.376014327870     IErMin= 2 ErrMin= 6.27D-07
 ErrMax= 6.27D-07  0.00D+00 EMaxC= 1.00D-01 BMatC= 4.58D-11 BMatP= 4.72D-10
 IDIUse=1 WtCom= 1.00D+00 WtEn= 0.00D+00
 Coeff-Com:  0.144D+00 0.856D+00
 Coeff:      0.144D+00 0.856D+00
 Gap=     0.532 Goal=   None    Shift=    0.000
 Gap=     0.390 Goal=   None    Shift=    0.000
 RMSDP=4.88D-08 MaxDP=9.20D-07 DE=-7.07D-11 OVMax= 1.02D-06

 Cycle   9  Pass 1  IDiag  1:
 E= -150.376014327874     Delta-E=       -0.000000000005 Rises=F Damp=F
 DIIS: error= 3.37D-07 at cycle   3 NSaved=   3.
 NSaved= 3 IEnMin= 3 EnMin= -150.376014327874     IErMin= 3 ErrMin= 3.37D-07
 ErrMax= 3.37D-07  0.00D+00 EMaxC= 1.00D-01 BMatC= 1.57D-11 BMatP= 4.58D-11
 IDIUse=1 WtCom= 1.00D+00 WtEn= 0.00D+00
 Coeff-Com: -0.205D-01 0.361D+00 0.660D+00
 Coeff:     -0.205D-01 0.361D+00 0.660D+00
 Gap=     0.532 Goal=   None    Shift=    0.000
 Gap=     0.390 Goal=   None    Shift=    0.000
 RMSDP=1.89D-08 MaxDP=3.44D-07 DE=-4.83D-12 OVMax= 3.97D-07

 Cycle  10  Pass 1  IDiag  1:
 E= -150.376014327877     Delta-E=       -0.000000000003 Rises=F Damp=F
 DIIS: error= 9.89D-09 at cycle   4 NSaved=   4.
 NSaved= 4 IEnMin= 4 EnMin= -150.376014327877     IErMin= 4 ErrMin= 9.89D-09
 ErrMax= 9.89D-09  0.00D+00 EMaxC= 1.00D-01 BMatC= 7.49D-15 BMatP= 1.57D-11
 IDIUse=1 WtCom= 1.00D+00 WtEn= 0.00D+00
 Coeff-Com: -0.223D-03-0.619D-02-0.791D-02 0.101D+01
 Coeff:     -0.223D-03-0.619D-02-0.791D-02 0.101D+01
 Gap=     0.532 Goal=   None    Shift=    0.000
 Gap=     0.390 Goal=   None    Shift=    0.000
 RMSDP=6.53D-10 MaxDP=1.89D-08 DE=-2.50D-12 OVMax= 1.89D-08

 SCF Done:  E(UB3LYP) =  -150.376014328     A.U. after   10 cycles
            NFock= 10  Conv=0.65D-09     -V/T= 2.0037
 <Sx>= 0.0000 <Sy>= 0.0000 <Sz>= 1.0000 <S**2>= 2.0075 S= 1.0025
 <L.S>=  0.00000000000    
 KE= 1.498237765248D+02 PE=-4.143937362676D+02 EE= 8.476761591161D+01
 Annihilation of the first spin contaminant:
 S**2 before annihilation     2.0075,   after     2.0000
 Leave Link  502 at Mon Feb 28 19:22:59 2022, MaxMem= 17179869184 cpu:               8.8 elap:               0.4
 (Enter /home/saurabh/gaussian/g16/l801.exe)
 DoSCS=F DFT=T ScalE2(SS,OS)=  1.000000  1.000000
 Range of M.O.s used for correlation:     1    60
 NBasis=    60 NAE=     9 NBE=     7 NFC=     0 NFV=     0
 NROrb=     60 NOA=     9 NOB=     7 NVA=    51 NVB=    53
 Leave Link  801 at Mon Feb 28 19:22:59 2022, MaxMem= 17179869184 cpu:               0.5 elap:               0.0
 (Enter /home/saurabh/gaussian/g16/l1101.exe)
 Using compressed storage, NAtomX=     2.
 Will process      3 centers per pass.
 Leave Link 1101 at Mon Feb 28 19:22:59 2022, MaxMem= 17179869184 cpu:               3.3 elap:               0.2
 (Enter /home/saurabh/gaussian/g16/l1102.exe)
 Symmetrizing basis deriv contribution to polar:
 IMax=3 JMax=2 DiffMx= 0.00D+00
 Leave Link 1102 at Mon Feb 28 19:22:59 2022, MaxMem= 17179869184 cpu:               0.5 elap:               0.0
 (Enter /home/saurabh/gaussian/g16/l1110.exe)
 Forming Gx(P) for the SCF density, NAtomX=     2.
 Integral derivatives from FoFJK, PRISM(SPDF).
 Do as many integral derivatives as possible in FoFJK.
 G2DrvN: MDV=   17179868854.
 G2DrvN: will do     3 centers at a time, making    1 passes.
 Calling FoFCou, ICntrl=  3107 FMM=F I1Cent=   0 AccDes= 0.00D+00.
 FoFJK:  IHMeth= 1 ICntrl=    3107 DoSepK=F KAlg= 0 I1Cent=           0 FoldK=F
 IRaf=         0 NMat=       1 IRICut=       1 DoRegI=T DoRafI=F ISym2E= 1 IDoP0=0 IntGTp=1.
 FoFCou: FMM=F IPFlag=           0 FMFlag=      100000 FMFlg1=           0
         NFxFlg=           0 DoJE=F BraDBF=F KetDBF=F FulRan=T
         wScrn=  0.000000 ICntrl=      3107 IOpCl=  1 I1Cent=           0 NGrid=           0
         NMat0=    1 NMatS0=      1 NMatT0=    0 NMatD0=    1 NMtDS0=    0 NMtDT0=    0
 Petite list used in FoFCou.
 End of G2Drv F.D. properties file   721 does not exist.
 End of G2Drv F.D. properties file   722 does not exist.
 End of G2Drv F.D. properties file   788 does not exist.
 Leave Link 1110 at Mon Feb 28 19:23:00 2022, MaxMem= 17179869184 cpu:              10.8 elap:               0.5
 (Enter /home/saurabh/gaussian/g16/l1002.exe)
 Minotr:  UHF open shell wavefunction.
          IDoAtm=11
          Direct CPHF calculation.
          Differentiating once with respect to nuclear coordinates.
          Using symmetry in CPHF.
          Requested convergence is 1.0D-08 RMS, and 1.0D-07 maximum.
          Secondary convergence is 1.0D-12 RMS, and 1.0D-12 maximum.
          NewPWx=T KeepS1=F KeepF1=F KeepIn=T MapXYZ=F SortEE=F KeepMc=T.
          583 words used for storage of precomputed grid.
 Keep R1 and R2 ints in memory in symmetry-blocked form, NReq=21262436.
 FoFCou: FMM=F IPFlag=           0 FMFlag=           0 FMFlg1=           0
         NFxFlg=           0 DoJE=F BraDBF=F KetDBF=F FulRan=T
         wScrn=  0.000000 ICntrl=       600 IOpCl=  0 I1Cent=           0 NGrid=           0
         NMat0=    1 NMatS0=   1830 NMatT0=    0 NMatD0=    1 NMtDS0=    0 NMtDT0=    0
 Petite list used in FoFCou.
          MDV=   17179869184 using IRadAn=       1.
          Solving linear equations simultaneously, MaxMat=       0.
          There are     6 degrees of freedom in the 1st order CPHF.  IDoFFX=4 NUNeed=     6.
      3 vectors produced by pass  0 Test12= 1.38D-14 1.67D-08 XBig12= 1.85D-01 2.48D-01.
 AX will form     3 AO Fock derivatives at one time.
      3 vectors produced by pass  1 Test12= 1.38D-14 1.67D-08 XBig12= 1.78D-02 5.78D-02.
      3 vectors produced by pass  2 Test12= 1.38D-14 1.67D-08 XBig12= 3.98D-04 7.42D-03.
      3 vectors produced by pass  3 Test12= 1.38D-14 1.67D-08 XBig12= 1.09D-05 1.20D-03.
      3 vectors produced by pass  4 Test12= 1.38D-14 1.67D-08 XBig12= 6.51D-07 2.80D-04.
      3 vectors produced by pass  5 Test12= 1.38D-14 1.67D-08 XBig12= 2.61D-09 2.29D-05.
      3 vectors produced by pass  6 Test12= 1.38D-14 1.67D-08 XBig12= 1.06D-11 1.82D-06.
      1 vectors produced by pass  7 Test12= 1.38D-14 1.67D-08 XBig12= 4.14D-14 8.14D-08.
 InvSVY:  IOpt=1 It=  1 EMax= 3.33D-16
 Solved reduced A of dimension    22 with     3 vectors.
 FullF1:  Do perturbations      4 to       6.
 End of Minotr F.D. properties file   721 does not exist.
 End of Minotr F.D. properties file   722 does not exist.
 End of Minotr F.D. properties file   788 does not exist.
 Leave Link 1002 at Mon Feb 28 19:23:00 2022, MaxMem= 17179869184 cpu:              11.4 elap:               0.5
 (Enter /home/saurabh/gaussian/g16/l601.exe)
 Copying SCF densities to generalized density rwf, IOpCl= 1 IROHF=0.

 **********************************************************************

            Population analysis using the SCF Density.

 **********************************************************************

 Orbital symmetries:
 Alpha Orbitals:
       Occupied  (SGG) (SGU) (SGG) (SGU) (PIU) (PIU) (SGG) (PIG)
                 (PIG)
       Virtual   (SGU) (PIU) (PIU) (SGU) (SGG) (PIG) (PIG) (SGG)
                 (DLTG) (DLTG) (SGU) (PIU) (PIU) (DLTU) (DLTU)
                 (SGG) (SGU) (PIG) (PIG) (PIU) (PIU) (SGG) (PIG)
                 (PIG) (DLTG) (DLTG) (PIU) (PIU) (SGU) (PHIU) (PHIU)
                 (SGG) (PHIG) (PHIG) (SGU) (DLTU) (DLTU) (DLTG)
                 (DLTG) (DLTU) (DLTU) (PIG) (PIG) (PIU) (PIU) (SGU)
                 (SGG) (PIG) (PIG) (SGG) (SGU)
 Beta  Orbitals:
       Occupied  (SGG) (SGU) (SGG) (SGU) (SGG) (PIU) (PIU)
       Virtual   (PIG) (PIG) (SGU) (PIU) (PIU) (SGU) (SGG) (PIG)
                 (PIG) (SGG) (SGU) (DLTG) (DLTG) (PIU) (PIU) (DLTU)
                 (DLTU) (SGU) (SGG) (PIG) (PIG) (PIU) (PIU) (SGG)
                 (PIG) (PIG) (DLTG) (DLTG) (PIU) (PIU) (SGU) (PHIU)
                 (PHIU) (SGG) (PHIG) (PHIG) (SGU) (DLTU) (DLTU)
                 (DLTG) (DLTG) (DLTU) (DLTU) (PIG) (PIG) (PIU)
                 (PIU) (SGU) (SGG) (PIG) (PIG) (SGG) (SGU)
 The electronic state is 3-SGG.
 Alpha  occ. eigenvalues --  -19.28319 -19.28288  -1.35610  -0.82439  -0.58826
 Alpha  occ. eigenvalues --   -0.58826  -0.56238  -0.29334  -0.29334
 Alpha virt. eigenvalues --    0.23830   0.49119   0.49119   0.52382   0.54085
 Alpha virt. eigenvalues --    0.61454   0.61454   0.65360   1.18669   1.18669
 Alpha virt. eigenvalues --    1.19184   1.31830   1.31830   1.62112   1.62112
 Alpha virt. eigenvalues --    2.13575   2.14098   2.18841   2.18841   3.39320
 Alpha virt. eigenvalues --    3.39320   3.59965   3.70289   3.70289   4.52323
 Alpha virt. eigenvalues --    4.52323   4.64687   4.64687   4.69729   4.84308
 Alpha virt. eigenvalues --    4.84308   4.94975   5.15175   5.15175   5.63149
 Alpha virt. eigenvalues --    5.78056   5.78056   5.98656   5.98656   6.22488
 Alpha virt. eigenvalues --    6.22488   6.30462   6.30462   6.44307   6.44307
 Alpha virt. eigenvalues --    6.81003   7.02432   7.35222   7.35222   7.54659
 Alpha virt. eigenvalues --   13.50383
  Beta  occ. eigenvalues --  -19.25279 -19.25232  -1.30236  -0.73596  -0.52165
  Beta  occ. eigenvalues --   -0.48760  -0.48760
  Beta virt. eigenvalues --   -0.09757  -0.09757   0.27157   0.52471   0.52471
  Beta virt. eigenvalues --    0.54933   0.54944   0.65734   0.65734   0.67637
  Beta virt. eigenvalues --    1.22457   1.22822   1.22822   1.35002   1.35002
  Beta virt. eigenvalues --    1.68346   1.68346   2.16167   2.16610   2.22533
  Beta virt. eigenvalues --    2.22533   3.46930   3.46930   3.62203   3.77941
  Beta virt. eigenvalues --    3.77941   4.56276   4.56276   4.67949   4.67949
  Beta virt. eigenvalues --    4.73433   4.91358   4.91358   4.98166   5.22762
  Beta virt. eigenvalues --    5.22762   5.67275   5.84296   5.84296   6.09711
  Beta virt. eigenvalues --    6.09711   6.32437   6.32437   6.36544   6.36544
  Beta virt. eigenvalues --    6.49944   6.49944   6.84243   7.07525   7.38919
  Beta virt. eigenvalues --    7.38919   7.58048  13.54824
          Condensed to atoms (all electrons):
               1          2
     1  O    7.856510   0.143490
     2  O    0.143490   7.856510
          Atomic-Atomic Spin Densities.
               1          2
     1  O    1.431682  -0.431682
     2  O   -0.431682   1.431682
 Mulliken charges and spin densities:
               1          2
     1  O   -0.000000   1.000000
     2  O   -0.000000   1.000000
 Sum of Mulliken charges =  -0.00000   2.00000
 Mulliken charges and spin densities with hydrogens summed into heavy atoms:
               1          2
     1  O   -0.000000   1.000000
     2  O   -0.000000   1.000000
 APT charges:
               1
     1  O    0.000000
     2  O    0.000000
 Sum of APT charges =   0.00000
 APT charges with hydrogens summed into heavy atoms:
               1
     1  O    0.000000
     2  O    0.000000
 Electronic spatial extent (au):  <R**2>=             41.3518
 Charge=             -0.0000 electrons
 Dipole moment (field-independent basis, Debye):
    X=             -0.0000    Y=              0.0000    Z=             -0.0000  Tot=              0.0000
 Quadrupole moment (field-independent basis, Debye-Ang):
   XX=             -9.8095   YY=             -9.8095   ZZ=            -10.5508
   XY=              0.0000   XZ=              0.0000   YZ=              0.0000
 Traceless Quadrupole moment (field-independent basis, Debye-Ang):
   XX=              0.2471   YY=              0.2471   ZZ=             -0.4942
   XY=              0.0000   XZ=              0.0000   YZ=              0.0000
 Octapole moment (field-independent basis, Debye-Ang**2):
  XXX=             -0.0000  YYY=              0.0000  ZZZ=              0.0000  XYY=             -0.0000
  XXY=              0.0000  XXZ=              0.0000  XZZ=             -0.0000  YZZ=              0.0000
  YYZ=              0.0000  XYZ=             -0.0000
 Hexadecapole moment (field-independent basis, Debye-Ang**3):
 XXXX=             -6.7424 YYYY=             -6.7424 ZZZZ=            -26.6202 XXXY=              0.0000
 XXXZ=              0.0000 YYYX=              0.0000 YYYZ=             -0.0000 ZZZX=              0.0000
 ZZZY=             -0.0000 XXYY=             -2.2475 XXZZ=             -5.7622 YYZZ=             -5.7622
 XXYZ=             -0.0000 YYXZ=              0.0000 ZZXY=              0.0000
 N-N= 2.942632950331D+01 E-N=-4.143937362457D+02  KE= 1.498237765248D+02
 Symmetry AG   KE= 6.963002868739D+01
 Symmetry B1G  KE= 1.043237100960D-32
 Symmetry B2G  KE= 3.101263443074D+00
 Symmetry B3G  KE= 3.101263443074D+00
 Symmetry AU   KE= 3.941122198010D-32
 Symmetry B1U  KE= 6.478364885372D+01
 Symmetry B2U  KE= 4.603786048747D+00
 Symmetry B3U  KE= 4.603786048747D+00
 Symmetry AG   SP= 1.184614889162D-14
 Symmetry B1G  SP= 1.141427580379D-33
 Symmetry B2G  SP= 1.000000000000D+00
 Symmetry B3G  SP= 1.000000000000D+00
 Symmetry AU   SP= 3.258880553651D-34
 Symmetry B1U  SP= 4.449089553398D-15
 Symmetry B2U  SP=-3.510570340295D-15
 Symmetry B3U  SP=-2.464351531976D-17
  Exact polarizability:       0.000       0.000       0.000       0.000       0.000       0.000
 Approx polarizability:       5.947      -0.000       5.947      -0.000       0.000      20.348
                          Isotropic Fermi Contact Couplings
        Atom                 a.u.       MegaHertz       Gauss      10(-4) cm-1
     1  O(17)              0.06669     -20.21410      -7.21289      -6.74270
     2  O(17)              0.06669     -20.21410      -7.21289      -6.74270
 --------------------------------------------------------
       Center         ----  Spin Dipole Couplings  ----
                      3XX-RR        3YY-RR        3ZZ-RR
 --------------------------------------------------------
     1   Atom        1.263576      1.263576     -2.527153
     2   Atom        1.263576      1.263576     -2.527153
 --------------------------------------------------------
                        XY            XZ            YZ
 --------------------------------------------------------
     1   Atom       -0.000000     -0.000000      0.000000
     2   Atom       -0.000000     -0.000000      0.000000
 --------------------------------------------------------


 ---------------------------------------------------------------------------------
              Anisotropic Spin Dipole Couplings in Principal Axis System
 ---------------------------------------------------------------------------------

       Atom             a.u.   MegaHertz   Gauss  10(-4) cm-1        Axes

              Baa    -2.5272   182.863    65.250    60.997  0.0000  0.0000  1.0000
     1 O(17)  Bbb     1.2636   -91.431   -32.625   -30.498  0.9992 -0.0407  0.0000
              Bcc     1.2636   -91.431   -32.625   -30.498  0.0407  0.9992 -0.0000
 
              Baa    -2.5272   182.863    65.250    60.997  0.0000  0.0000  1.0000
     2 O(17)  Bbb     1.2636   -91.431   -32.625   -30.498  0.9993 -0.0363  0.0000
              Bcc     1.2636   -91.431   -32.625   -30.498  0.0363  0.9993 -0.0000
 

 ---------------------------------------------------------------------------------

 No NMR shielding tensors so no spin-rotation constants.
 Leave Link  601 at Mon Feb 28 19:23:01 2022, MaxMem= 17179869184 cpu:               5.0 elap:               0.3
 (Enter /home/saurabh/gaussian/g16/l701.exe)
 ... and contract with generalized density number  0.
 Compute integral second derivatives.
 Leave Link  701 at Mon Feb 28 19:23:01 2022, MaxMem= 17179869184 cpu:               4.4 elap:               0.2
 (Enter /home/saurabh/gaussian/g16/l702.exe)
 L702 exits ... SP integral derivatives will be done elsewhere.
 Leave Link  702 at Mon Feb 28 19:23:01 2022, MaxMem= 17179869184 cpu:               0.4 elap:               0.0
 (Enter /home/saurabh/gaussian/g16/l703.exe)
 Integral derivatives from FoFJK, PRISM(SPDF).
 Compute integral second derivatives, UseDBF=F ICtDFT=           0.
 Calling FoFJK, ICntrl=    100127 FMM=F ISym2X=1 I1Cent= 0 IOpClX= 1 NMat=1 NMatS=1 NMatT=0.
 FoFJK:  IHMeth= 1 ICntrl=  100127 DoSepK=F KAlg= 0 I1Cent=           0 FoldK=F
 IRaf=         0 NMat=       1 IRICut=       1 DoRegI=T DoRafI=F ISym2E= 1 IDoP0=0 IntGTp=1.
 FoFCou: FMM=F IPFlag=           0 FMFlag=      100000 FMFlg1=         800
         NFxFlg=           0 DoJE=F BraDBF=F KetDBF=F FulRan=T
         wScrn=  0.000000 ICntrl=    100127 IOpCl=  1 I1Cent=           0 NGrid=           0
         NMat0=    1 NMatS0=      1 NMatT0=    0 NMatD0=    1 NMtDS0=    0 NMtDT0=    0
 Petite list used in FoFCou.
 Leave Link  703 at Mon Feb 28 19:23:02 2022, MaxMem= 17179869184 cpu:              20.2 elap:               0.9
 (Enter /home/saurabh/gaussian/g16/l716.exe)
 Dipole        =-3.94430453D-31 3.94430453D-31-1.11934677D-16
 Polarizability= 0.00000000D+00 0.00000000D+00 0.00000000D+00
                 0.00000000D+00 0.00000000D+00 0.00000000D+00
 ***** Axes restored to original set *****
 -------------------------------------------------------------------
 Center     Atomic                   Forces (Hartrees/Bohr)
 Number     Number              X              Y              Z
 -------------------------------------------------------------------
      1        8          -0.099882786   -0.017691543    0.000000000
      2        8           0.099882786    0.017691543   -0.000000000
 -------------------------------------------------------------------
 Cartesian Forces:  Max     0.099882786 RMS     0.058564954
 Force constants in Cartesian coordinates: 
                1             2             3             4             5 
      1  0.113710D+01
      2  0.209667D+00 -0.949889D-02
      3  0.000000D+00  0.000000D+00 -0.466357D-01
      4 -0.113710D+01 -0.209667D+00  0.000000D+00  0.113710D+01
      5 -0.209667D+00  0.949889D-02  0.000000D+00  0.209667D+00 -0.949889D-02
      6  0.000000D+00  0.000000D+00  0.466357D-01  0.000000D+00  0.000000D+00
                6 
      6 -0.466357D-01
 FormGI is forming the generalized inverse of G from B-inverse, IUseBI=4.
 Force constants in internal coordinates: 
                1 
      1  0.117424D+01
 Leave Link  716 at Mon Feb 28 19:23:02 2022, MaxMem= 17179869184 cpu:               0.6 elap:               0.0
 (Enter /home/saurabh/gaussian/g16/l103.exe)

 GradGradGradGradGradGradGradGradGradGradGradGradGradGradGradGradGradGrad
 Berny optimization.
 Red2BG is reusing G-inverse.
 Internal  Forces:  Max     0.101437476 RMS     0.101437476
 Search for a local minimum.
 Step number   1 out of a maximum of  100
 All quantities printed in internal units (Hartrees-Bohrs-Radians)
 RMS Force = .10144D+00 SwitMx=.10000D-02 MixMth= 1
 Mixed Optimization -- RFO/linear search
 Second derivative matrix not updated -- analytic derivatives used.
 The second derivative matrix:
                          R1
           R1           1.17424
 ITU=  0
     Eigenvalues ---    1.17424
 RFO step:  Lambda=-8.69834393D-03 EMin= 1.17423506D+00
 Linear search not attempted -- first point.
 Iteration  1 RMS(Cart)=  0.06063497 RMS(Int)=  0.00000000
 Iteration  2 RMS(Cart)=  0.00000000 RMS(Int)=  0.00000000
 ITry= 1 IFail=0 DXMaxC= 4.22D-02 DCOld= 1.00D+10 DXMaxT= 3.00D-01 DXLimC= 3.00D+00 Rises=F
 ClnCor:  largest displacement from symmetrization is 8.88D-16 for atom     2.
 Variable       Old X    -DE/DX   Delta X   Delta X   Delta X     New X
                                 (Linear)    (Quad)   (Total)
    R1        2.17492   0.10144   0.00000   0.08575   0.08575   2.26067
         Item               Value     Threshold  Converged?
 Maximum Force            0.101437     0.000450     NO 
 RMS     Force            0.101437     0.000300     NO 
 Maximum Displacement     0.042218     0.001800     NO 
 RMS     Displacement     0.060635     0.001200     NO 
 Predicted change in Energy=-4.381152D-03
 Lowest energy point so far.  Saving SCF results.
 GradGradGradGradGradGradGradGradGradGradGradGradGradGradGradGradGradGrad

 Leave Link  103 at Mon Feb 28 19:23:02 2022, MaxMem= 17179869184 cpu:               0.2 elap:               0.0
 (Enter /home/saurabh/gaussian/g16/l202.exe)
                          Input orientation:                          
 ---------------------------------------------------------------------
 Center     Atomic      Atomic             Coordinates (Angstroms)
 Number     Number       Type             X           Y           Z
 ---------------------------------------------------------------------
      1          8           0       -4.304971    2.996023   -0.000000
      2          8           0       -3.127009    3.204667    0.000000
 ---------------------------------------------------------------------
 Stoichiometry    O2(3)
 Framework group  D*H[C*(O.O)]
 Deg. of freedom     1
 Full point group                 D*H     NOp   8
 RotChk:  IX=0 Diff= 1.17D-16
 Largest Abelian subgroup         D2H     NOp   8
 Largest concise Abelian subgroup C2      NOp   2
                         Standard orientation:                         
 ---------------------------------------------------------------------
 Center     Atomic      Atomic             Coordinates (Angstroms)
 Number     Number       Type             X           Y           Z
 ---------------------------------------------------------------------
      1          8           0       -0.000000   -0.000000    0.598149
      2          8           0        0.000000   -0.000000   -0.598149
 ---------------------------------------------------------------------
 Rotational constants (GHZ):           0.0000000          44.1557448          44.1557448
 Leave Link  202 at Mon Feb 28 19:23:02 2022, MaxMem= 17179869184 cpu:               0.3 elap:               0.0
 (Enter /home/saurabh/gaussian/g16/l301.exe)
 Standard basis: CC-pVTZ+d (5D, 7F)
 Ernie: Thresh=  0.10000D-02 Tol=  0.10000D-05 Strict=F.
 Ernie:  6 primitive shells out of 52 were deleted.
 There are    16 symmetry adapted cartesian basis functions of AG  symmetry.
 There are     3 symmetry adapted cartesian basis functions of B1G symmetry.
 There are     8 symmetry adapted cartesian basis functions of B2G symmetry.
 There are     8 symmetry adapted cartesian basis functions of B3G symmetry.
 There are     3 symmetry adapted cartesian basis functions of AU  symmetry.
 There are    16 symmetry adapted cartesian basis functions of B1U symmetry.
 There are     8 symmetry adapted cartesian basis functions of B2U symmetry.
 There are     8 symmetry adapted cartesian basis functions of B3U symmetry.
 There are    13 symmetry adapted basis functions of AG  symmetry.
 There are     3 symmetry adapted basis functions of B1G symmetry.
 There are     7 symmetry adapted basis functions of B2G symmetry.
 There are     7 symmetry adapted basis functions of B3G symmetry.
 There are     3 symmetry adapted basis functions of AU  symmetry.
 There are    13 symmetry adapted basis functions of B1U symmetry.
 There are     7 symmetry adapted basis functions of B2U symmetry.
 There are     7 symmetry adapted basis functions of B3U symmetry.
    60 basis functions,   104 primitive gaussians,    70 cartesian basis functions
     9 alpha electrons        7 beta electrons
       nuclear repulsion energy        28.3101440984 Hartrees.
 IExCor=  402 DFT=T Ex+Corr=B3LYP ExCW=0 ScaHFX=  0.200000
 ScaDFX=  0.800000  0.720000  1.000000  0.810000 ScalE2=  1.000000  1.000000
 IRadAn=      5 IRanWt=     -1 IRanGd=            0 ICorTp=0 IEmpDi=  4
 NAtoms=    2 NActive=    2 NUniq=    1 SFac= 4.00D+00 NAtFMM=   60 NAOKFM=F Big=F
 Integral buffers will be    131072 words long.
 Raffenetti 2 integral format.
 Two-electron integral symmetry is turned on.
 Leave Link  301 at Mon Feb 28 19:23:02 2022, MaxMem= 17179869184 cpu:               1.3 elap:               0.1
 (Enter /home/saurabh/gaussian/g16/l302.exe)
 NPDir=0 NMtPBC=     1 NCelOv=     1 NCel=       1 NClECP=     1 NCelD=      1
         NCelK=      1 NCelE2=     1 NClLst=     1 CellRange=     0.0.
 One-electron integrals computed using PRISM.
 One-electron integral symmetry used in STVInt
 NBasis=    60 RedAO= T EigKep=  4.22D-03  NBF=    13     3     7     7     3    13     7     7
 NBsUse=    60 1.00D-06 EigRej= -1.00D+00 NBFU=    13     3     7     7     3    13     7     7
 Precomputing XC quadrature grid using
 IXCGrd= 4 IRadAn=           5 IRanWt=          -1 IRanGd=           0 AccXCQ= 0.00D+00.
 Generated NRdTot=       0 NPtTot=           0 NUsed=           0 NTot=          32
 NSgBfM=    70    70    70    70    70 MxSgAt=     2 MxSgA2=     2.
 Leave Link  302 at Mon Feb 28 19:23:02 2022, MaxMem= 17179869184 cpu:               2.9 elap:               0.2
 (Enter /home/saurabh/gaussian/g16/l303.exe)
 DipDrv:  MaxL=1.
 Leave Link  303 at Mon Feb 28 19:23:02 2022, MaxMem= 17179869184 cpu:               0.5 elap:               0.0
 (Enter /home/saurabh/gaussian/g16/l401.exe)
 Initial guess from the checkpoint file:  "O2_triplet.chk"
 B after Tr=    -0.000000    0.000000    0.000000
         Rot=    1.000000   -0.000000    0.000000    0.000000 Ang=   0.00 deg.
 Guess basis will be translated and rotated to current coordinates.
 JPrj=2 DoOrth=T DoCkMO=T.
 Initial guess orbital symmetries:
 Alpha Orbitals:
       Occupied  (SGG) (SGU) (SGG) (SGU) (PIU) (PIU) (SGG) (PIG)
                 (PIG)
       Virtual   (SGU) (PIU) (PIU) (SGU) (SGG) (PIG) (PIG) (SGG)
                 (DLTG) (DLTG) (SGU) (PIU) (PIU) (DLTU) (DLTU)
                 (SGG) (SGU) (PIG) (PIG) (PIU) (PIU) (SGG) (PIG)
                 (PIG) (DLTG) (DLTG) (PIU) (PIU) (SGU) (PHIU) (PHIU)
                 (SGG) (PHIG) (PHIG) (SGU) (DLTU) (DLTU) (DLTG)
                 (DLTG) (DLTU) (DLTU) (PIG) (PIG) (PIU) (PIU) (SGU)
                 (SGG) (PIG) (PIG) (SGG) (SGU)
 Beta  Orbitals:
       Occupied  (SGG) (SGU) (SGG) (SGU) (SGG) (PIU) (PIU)
       Virtual   (PIG) (PIG) (SGU) (PIU) (PIU) (SGU) (SGG) (PIG)
                 (PIG) (SGG) (SGU) (DLTG) (DLTG) (PIU) (PIU) (DLTU)
                 (DLTU) (SGU) (SGG) (PIG) (PIG) (PIU) (PIU) (SGG)
                 (PIG) (PIG) (DLTG) (DLTG) (PIU) (PIU) (SGU) (PHIU)
                 (PHIU) (SGG) (PHIG) (PHIG) (SGU) (DLTU) (DLTU)
                 (DLTG) (DLTG) (DLTU) (DLTU) (PIG) (PIG) (PIU)
                 (PIU) (SGU) (SGG) (PIG) (PIG) (SGG) (SGU)
 The electronic state of the initial guess is 3-SGG.
 Initial guess <Sx>= 0.0000 <Sy>= 0.0000 <Sz>= 1.0000 <S**2>= 2.0077 S= 1.0026
 Generating alternative initial guess.
 ExpMin= 2.14D-01 ExpMax= 1.53D+04 ExpMxC= 5.22D+02 IAcc=3 IRadAn=         5 AccDes= 0.00D+00
 Harris functional with IExCor=  402 and IRadAn=       5 diagonalized for initial guess.
 HarFok:  IExCor=  402 AccDes= 0.00D+00 IRadAn=         5 IDoV= 1 UseB2=F ITyADJ=14
 ICtDFT=  3500011 ScaDFX=  1.000000  1.000000  1.000000  1.000000
 FoFCou: FMM=F IPFlag=           0 FMFlag=      100000 FMFlg1=           0
         NFxFlg=           0 DoJE=T BraDBF=F KetDBF=T FulRan=T
         wScrn=  0.000000 ICntrl=       500 IOpCl=  0 I1Cent=   200000004 NGrid=           0
         NMat0=    1 NMatS0=      1 NMatT0=    0 NMatD0=    1 NMtDS0=    0 NMtDT0=    0
 Petite list used in FoFCou.
 Harris En= -150.327231827431    
 Leave Link  401 at Mon Feb 28 19:23:03 2022, MaxMem= 17179869184 cpu:               4.8 elap:               0.3
 (Enter /home/saurabh/gaussian/g16/l502.exe)
 Keep R1 and R2 ints in memory in symmetry-blocked form, NReq=21337429.
 FoFCou: FMM=F IPFlag=           0 FMFlag=           0 FMFlg1=           0
         NFxFlg=           0 DoJE=F BraDBF=F KetDBF=F FulRan=T
         wScrn=  0.000000 ICntrl=       600 IOpCl=  0 I1Cent=           0 NGrid=           0
         NMat0=    1 NMatS0=   1830 NMatT0=    0 NMatD0=    1 NMtDS0=    0 NMtDT0=    0
 Petite list used in FoFCou.
 UHF open shell SCF:
 Using DIIS extrapolation, IDIIS=  1040.
 NGot= 17179869184 LenX= 17179414746 LenY= 17179409405
 Requested convergence on RMS density matrix=1.00D-08 within1000 cycles.
 Requested convergence on MAX density matrix=1.00D-06.
 Requested convergence on             energy=1.00D-06.
 No special actions if energy rises.
 Integral accuracy reduced to 1.0D-05 until final iterations.

 Cycle   1  Pass 0  IDiag  1:
 E= -150.378888222940    
 DIIS: error= 8.61D-03 at cycle   1 NSaved=   1.
 NSaved= 1 IEnMin= 1 EnMin= -150.378888222940     IErMin= 1 ErrMin= 8.61D-03
 ErrMax= 8.61D-03  0.00D+00 EMaxC= 1.00D-01 BMatC= 8.89D-03 BMatP= 8.89D-03
 IDIUse=3 WtCom= 9.14D-01 WtEn= 8.61D-02
 Coeff-Com:  0.100D+01
 Coeff-En:   0.100D+01
 Coeff:      0.100D+01
 Gap=     0.756 Goal=   None    Shift=    0.000
 Gap=     0.375 Goal=   None    Shift=    0.000
 GapD=    0.375 DampG=1.000 DampE=1.000 DampFc=1.0000 IDamp=-1.
 RMSDP=5.44D-04 MaxDP=6.37D-03              OVMax= 1.37D-02

 Cycle   2  Pass 0  IDiag  1:
 E= -150.380736096116     Delta-E=       -0.001847873175 Rises=F Damp=F
 DIIS: error= 1.86D-03 at cycle   2 NSaved=   2.
 NSaved= 2 IEnMin= 2 EnMin= -150.380736096116     IErMin= 2 ErrMin= 1.86D-03
 ErrMax= 1.86D-03  0.00D+00 EMaxC= 1.00D-01 BMatC= 4.86D-04 BMatP= 8.89D-03
 IDIUse=3 WtCom= 9.81D-01 WtEn= 1.86D-02
 Coeff-Com:  0.946D-01 0.905D+00
 Coeff-En:   0.000D+00 0.100D+01
 Coeff:      0.928D-01 0.907D+00
 Gap=     0.501 Goal=   None    Shift=    0.000
 Gap=     0.356 Goal=   None    Shift=    0.000
 RMSDP=1.81D-04 MaxDP=3.43D-03 DE=-1.85D-03 OVMax= 4.12D-03

 Cycle   3  Pass 0  IDiag  1:
 E= -150.380785589977     Delta-E=       -0.000049493861 Rises=F Damp=F
 DIIS: error= 1.39D-03 at cycle   3 NSaved=   3.
 NSaved= 3 IEnMin= 3 EnMin= -150.380785589977     IErMin= 3 ErrMin= 1.39D-03
 ErrMax= 1.39D-03  0.00D+00 EMaxC= 1.00D-01 BMatC= 2.03D-04 BMatP= 4.86D-04
 IDIUse=3 WtCom= 9.86D-01 WtEn= 1.39D-02
 Coeff-Com: -0.177D-01 0.380D+00 0.637D+00
 Coeff-En:   0.000D+00 0.217D+00 0.783D+00
 Coeff:     -0.174D-01 0.378D+00 0.639D+00
 Gap=     0.500 Goal=   None    Shift=    0.000
 Gap=     0.356 Goal=   None    Shift=    0.000
 RMSDP=6.28D-05 MaxDP=1.04D-03 DE=-4.95D-05 OVMax= 1.58D-03

 Cycle   4  Pass 0  IDiag  1:
 E= -150.380817459884     Delta-E=       -0.000031869907 Rises=F Damp=F
 DIIS: error= 8.52D-05 at cycle   4 NSaved=   4.
 NSaved= 4 IEnMin= 4 EnMin= -150.380817459884     IErMin= 4 ErrMin= 8.52D-05
 ErrMax= 8.52D-05  0.00D+00 EMaxC= 1.00D-01 BMatC= 5.18D-07 BMatP= 2.03D-04
 IDIUse=1 WtCom= 1.00D+00 WtEn= 0.00D+00
 Coeff-Com: -0.141D-02-0.201D-01 0.144D-01 0.101D+01
 Coeff:     -0.141D-02-0.201D-01 0.144D-01 0.101D+01
 Gap=     0.500 Goal=   None    Shift=    0.000
 Gap=     0.356 Goal=   None    Shift=    0.000
 RMSDP=5.59D-06 MaxDP=1.19D-04 DE=-3.19D-05 OVMax= 1.37D-04

 Initial convergence to 1.0D-05 achieved.  Increase integral accuracy.
 Cycle   5  Pass 1  IDiag  1:
 E= -150.380811124835     Delta-E=        0.000006335049 Rises=F Damp=F
 DIIS: error= 1.24D-05 at cycle   1 NSaved=   1.
 NSaved= 1 IEnMin= 1 EnMin= -150.380811124835     IErMin= 1 ErrMin= 1.24D-05
 ErrMax= 1.24D-05  0.00D+00 EMaxC= 1.00D-01 BMatC= 9.56D-09 BMatP= 9.56D-09
 IDIUse=1 WtCom= 1.00D+00 WtEn= 0.00D+00
 Coeff-Com:  0.100D+01
 Coeff:      0.100D+01
 Gap=     0.500 Goal=   None    Shift=    0.000
 Gap=     0.356 Goal=   None    Shift=    0.000
 RMSDP=5.59D-06 MaxDP=1.19D-04 DE= 6.34D-06 OVMax= 2.09D-05

 Cycle   6  Pass 1  IDiag  1:
 E= -150.380811127286     Delta-E=       -0.000000002450 Rises=F Damp=F
 DIIS: error= 3.54D-06 at cycle   2 NSaved=   2.
 NSaved= 2 IEnMin= 2 EnMin= -150.380811127286     IErMin= 2 ErrMin= 3.54D-06
 ErrMax= 3.54D-06  0.00D+00 EMaxC= 1.00D-01 BMatC= 1.10D-09 BMatP= 9.56D-09
 IDIUse=1 WtCom= 1.00D+00 WtEn= 0.00D+00
 Coeff-Com:  0.130D+00 0.870D+00
 Coeff:      0.130D+00 0.870D+00
 Gap=     0.500 Goal=   None    Shift=    0.000
 Gap=     0.356 Goal=   None    Shift=    0.000
 RMSDP=2.44D-07 MaxDP=4.80D-06 DE=-2.45D-09 OVMax= 4.97D-06

 Cycle   7  Pass 1  IDiag  1:
 E= -150.380811127488     Delta-E=       -0.000000000203 Rises=F Damp=F
 DIIS: error= 1.68D-06 at cycle   3 NSaved=   3.
 NSaved= 3 IEnMin= 3 EnMin= -150.380811127488     IErMin= 3 ErrMin= 1.68D-06
 ErrMax= 1.68D-06  0.00D+00 EMaxC= 1.00D-01 BMatC= 1.52D-10 BMatP= 1.10D-09
 IDIUse=1 WtCom= 1.00D+00 WtEn= 0.00D+00
 Coeff-Com: -0.852D-01 0.146D+00 0.939D+00
 Coeff:     -0.852D-01 0.146D+00 0.939D+00
 Gap=     0.500 Goal=   None    Shift=    0.000
 Gap=     0.356 Goal=   None    Shift=    0.000
 RMSDP=7.74D-08 MaxDP=1.79D-06 DE=-2.03D-10 OVMax= 2.79D-06

 Cycle   8  Pass 1  IDiag  1:
 E= -150.380811127517     Delta-E=       -0.000000000028 Rises=F Damp=F
 DIIS: error= 3.27D-07 at cycle   4 NSaved=   4.
 NSaved= 4 IEnMin= 4 EnMin= -150.380811127517     IErMin= 4 ErrMin= 3.27D-07
 ErrMax= 3.27D-07  0.00D+00 EMaxC= 1.00D-01 BMatC= 1.69D-11 BMatP= 1.52D-10
 IDIUse=1 WtCom= 1.00D+00 WtEn= 0.00D+00
 Coeff-Com: -0.401D-01 0.246D-01 0.391D+00 0.624D+00
 Coeff:     -0.401D-01 0.246D-01 0.391D+00 0.624D+00
 Gap=     0.500 Goal=   None    Shift=    0.000
 Gap=     0.356 Goal=   None    Shift=    0.000
 RMSDP=1.98D-08 MaxDP=3.96D-07 DE=-2.83D-11 OVMax= 4.68D-07

 Cycle   9  Pass 1  IDiag  1:
 E= -150.380811127520     Delta-E=       -0.000000000003 Rises=F Damp=F
 DIIS: error= 1.40D-08 at cycle   5 NSaved=   5.
 NSaved= 5 IEnMin= 5 EnMin= -150.380811127520     IErMin= 5 ErrMin= 1.40D-08
 ErrMax= 1.40D-08  0.00D+00 EMaxC= 1.00D-01 BMatC= 1.73D-14 BMatP= 1.69D-11
 IDIUse=1 WtCom= 1.00D+00 WtEn= 0.00D+00
 Coeff-Com:  0.145D-02-0.342D-02-0.146D-01 0.709D-02 0.101D+01
 Coeff:      0.145D-02-0.342D-02-0.146D-01 0.709D-02 0.101D+01
 Gap=     0.500 Goal=   None    Shift=    0.000
 Gap=     0.356 Goal=   None    Shift=    0.000
 RMSDP=6.70D-10 MaxDP=1.05D-08 DE=-2.87D-12 OVMax= 1.95D-08

 SCF Done:  E(UB3LYP) =  -150.380811128     A.U. after    9 cycles
            NFock=  9  Conv=0.67D-09     -V/T= 2.0050
 <Sx>= 0.0000 <Sy>= 0.0000 <Sz>= 1.0000 <S**2>= 2.0081 S= 1.0027
 <L.S>=  0.00000000000    
 KE= 1.496366101473D+02 PE=-4.120790506787D+02 EE= 8.375148530557D+01
 Annihilation of the first spin contaminant:
 S**2 before annihilation     2.0081,   after     2.0000
 Leave Link  502 at Mon Feb 28 19:23:03 2022, MaxMem= 17179869184 cpu:               7.6 elap:               0.4
 (Enter /home/saurabh/gaussian/g16/l701.exe)
 ... and contract with generalized density number  0.
 Compute integral first derivatives.
 Leave Link  701 at Mon Feb 28 19:23:03 2022, MaxMem= 17179869184 cpu:               3.2 elap:               0.2
 (Enter /home/saurabh/gaussian/g16/l702.exe)
 L702 exits ... SP integral derivatives will be done elsewhere.
 Leave Link  702 at Mon Feb 28 19:23:03 2022, MaxMem= 17179869184 cpu:               0.4 elap:               0.0
 (Enter /home/saurabh/gaussian/g16/l703.exe)
 Integral derivatives from FoFJK, PRISM(SPDF).
 Compute integral first derivatives, UseDBF=F ICtDFT=           0.
 Calling FoFJK, ICntrl=      2127 FMM=F ISym2X=1 I1Cent= 0 IOpClX= 1 NMat=1 NMatS=1 NMatT=0.
 FoFJK:  IHMeth= 1 ICntrl=    2127 DoSepK=F KAlg= 0 I1Cent=           0 FoldK=F
 IRaf=         0 NMat=       1 IRICut=       1 DoRegI=T DoRafI=F ISym2E= 1 IDoP0=0 IntGTp=1.
 FoFCou: FMM=F IPFlag=           0 FMFlag=      100000 FMFlg1=         800
         NFxFlg=           0 DoJE=F BraDBF=F KetDBF=F FulRan=T
         wScrn=  0.000000 ICntrl=      2127 IOpCl=  1 I1Cent=           0 NGrid=           0
         NMat0=    1 NMatS0=      1 NMatT0=    0 NMatD0=    1 NMtDS0=    0 NMtDT0=    0
 Petite list used in FoFCou.
 Leave Link  703 at Mon Feb 28 19:23:04 2022, MaxMem= 17179869184 cpu:               8.6 elap:               0.4
 (Enter /home/saurabh/gaussian/g16/l716.exe)
 Dipole        =-5.91645679D-31-1.67170719D-31 0.00000000D+00
 ***** Axes restored to original set *****
 -------------------------------------------------------------------
 Center     Atomic                   Forces (Hartrees/Bohr)
 Number     Number              X              Y              Z
 -------------------------------------------------------------------
      1        8          -0.014723509   -0.002607873    0.000000000
      2        8           0.014723509    0.002607873   -0.000000000
 -------------------------------------------------------------------
 Cartesian Forces:  Max     0.014723509 RMS     0.008632935
 Leave Link  716 at Mon Feb 28 19:23:04 2022, MaxMem= 17179869184 cpu:               0.4 elap:               0.0
 (Enter /home/saurabh/gaussian/g16/l103.exe)

 GradGradGradGradGradGradGradGradGradGradGradGradGradGradGradGradGradGrad
 Berny optimization.
 Using GEDIIS/GDIIS optimizer.
 Red2BG is reusing G-inverse.
 Internal  Forces:  Max     0.014952682 RMS     0.014952682
 Search for a local minimum.
 Step number   2 out of a maximum of  100
 All quantities printed in internal units (Hartrees-Bohrs-Radians)
 RMS Force = .14953D-01 SwitMx=.10000D-02 MixMth= 1
 Mixed Optimization -- RFO/linear search
 Update second derivatives using D2CorX and points    1    2
 DE= -4.80D-03 DEPred=-4.38D-03 R= 1.09D+00
 TightC=F SS=  1.41D+00  RLast= 8.58D-02 DXNew= 5.0454D-01 2.5725D-01
 Trust test= 1.09D+00 RLast= 8.58D-02 DXMaxT set to 3.00D-01
 The second derivative matrix:
                          R1
           R1           1.00856
 ITU=  1  0
 Use linear search instead of GDIIS.
     Eigenvalues ---    1.00856
 RFO step:  Lambda= 0.00000000D+00 EMin= 1.00855971D+00
 Quartic linear search produced a step of  0.21151.
 Iteration  1 RMS(Cart)=  0.01282505 RMS(Int)=  0.00000000
 Iteration  2 RMS(Cart)=  0.00000000 RMS(Int)=  0.00000000
 ITry= 1 IFail=0 DXMaxC= 8.93D-03 DCOld= 1.00D+10 DXMaxT= 3.00D-01 DXLimC= 3.00D+00 Rises=F
 ClnCor:  largest displacement from symmetrization is 8.88D-16 for atom     2.
 Variable       Old X    -DE/DX   Delta X   Delta X   Delta X     New X
                                 (Linear)    (Quad)   (Total)
    R1        2.26067   0.01495   0.01814   0.00000   0.01814   2.27881
         Item               Value     Threshold  Converged?
 Maximum Force            0.014953     0.000450     NO 
 RMS     Force            0.014953     0.000300     NO 
 Maximum Displacement     0.008930     0.001800     NO 
 RMS     Displacement     0.012825     0.001200     NO 
 Predicted change in Energy=-1.053124D-04
 Lowest energy point so far.  Saving SCF results.
 GradGradGradGradGradGradGradGradGradGradGradGradGradGradGradGradGradGrad

 Leave Link  103 at Mon Feb 28 19:23:04 2022, MaxMem= 17179869184 cpu:               0.2 elap:               0.0
 (Enter /home/saurabh/gaussian/g16/l202.exe)
                          Input orientation:                          
 ---------------------------------------------------------------------
 Center     Atomic      Atomic             Coordinates (Angstroms)
 Number     Number       Type             X           Y           Z
 ---------------------------------------------------------------------
      1          8           0       -4.309696    2.995186   -0.000000
      2          8           0       -3.122284    3.205504    0.000000
 ---------------------------------------------------------------------
 Stoichiometry    O2(3)
 Framework group  D*H[C*(O.O)]
 Deg. of freedom     1
 Full point group                 D*H     NOp   8
 RotChk:  IX=0 Diff= 1.28D-16
 Largest Abelian subgroup         D2H     NOp   8
 Largest concise Abelian subgroup C2      NOp   2
                         Standard orientation:                         
 ---------------------------------------------------------------------
 Center     Atomic      Atomic             Coordinates (Angstroms)
 Number     Number       Type             X           Y           Z
 ---------------------------------------------------------------------
      1          8           0        0.000000    0.000000    0.602947
      2          8           0        0.000000    0.000000   -0.602947
 ---------------------------------------------------------------------
 Rotational constants (GHZ):           0.0000000          43.4556593          43.4556593
 Leave Link  202 at Mon Feb 28 19:23:04 2022, MaxMem= 17179869184 cpu:               0.2 elap:               0.0
 (Enter /home/saurabh/gaussian/g16/l301.exe)
 Standard basis: CC-pVTZ+d (5D, 7F)
 Ernie: Thresh=  0.10000D-02 Tol=  0.10000D-05 Strict=F.
 Ernie:  6 primitive shells out of 52 were deleted.
 There are    16 symmetry adapted cartesian basis functions of AG  symmetry.
 There are     3 symmetry adapted cartesian basis functions of B1G symmetry.
 There are     8 symmetry adapted cartesian basis functions of B2G symmetry.
 There are     8 symmetry adapted cartesian basis functions of B3G symmetry.
 There are     3 symmetry adapted cartesian basis functions of AU  symmetry.
 There are    16 symmetry adapted cartesian basis functions of B1U symmetry.
 There are     8 symmetry adapted cartesian basis functions of B2U symmetry.
 There are     8 symmetry adapted cartesian basis functions of B3U symmetry.
 There are    13 symmetry adapted basis functions of AG  symmetry.
 There are     3 symmetry adapted basis functions of B1G symmetry.
 There are     7 symmetry adapted basis functions of B2G symmetry.
 There are     7 symmetry adapted basis functions of B3G symmetry.
 There are     3 symmetry adapted basis functions of AU  symmetry.
 There are    13 symmetry adapted basis functions of B1U symmetry.
 There are     7 symmetry adapted basis functions of B2U symmetry.
 There are     7 symmetry adapted basis functions of B3U symmetry.
    60 basis functions,   104 primitive gaussians,    70 cartesian basis functions
     9 alpha electrons        7 beta electrons
       nuclear repulsion energy        28.0848199744 Hartrees.
 IExCor=  402 DFT=T Ex+Corr=B3LYP ExCW=0 ScaHFX=  0.200000
 ScaDFX=  0.800000  0.720000  1.000000  0.810000 ScalE2=  1.000000  1.000000
 IRadAn=      5 IRanWt=     -1 IRanGd=            0 ICorTp=0 IEmpDi=  4
 NAtoms=    2 NActive=    2 NUniq=    1 SFac= 4.00D+00 NAtFMM=   60 NAOKFM=F Big=F
 Integral buffers will be    131072 words long.
 Raffenetti 2 integral format.
 Two-electron integral symmetry is turned on.
 Leave Link  301 at Mon Feb 28 19:23:04 2022, MaxMem= 17179869184 cpu:               1.0 elap:               0.1
 (Enter /home/saurabh/gaussian/g16/l302.exe)
 NPDir=0 NMtPBC=     1 NCelOv=     1 NCel=       1 NClECP=     1 NCelD=      1
         NCelK=      1 NCelE2=     1 NClLst=     1 CellRange=     0.0.
 One-electron integrals computed using PRISM.
 One-electron integral symmetry used in STVInt
 NBasis=    60 RedAO= T EigKep=  4.40D-03  NBF=    13     3     7     7     3    13     7     7
 NBsUse=    60 1.00D-06 EigRej= -1.00D+00 NBFU=    13     3     7     7     3    13     7     7
 Precomputing XC quadrature grid using
 IXCGrd= 4 IRadAn=           5 IRanWt=          -1 IRanGd=           0 AccXCQ= 0.00D+00.
 Generated NRdTot=       0 NPtTot=           0 NUsed=           0 NTot=          32
 NSgBfM=    70    70    70    70    70 MxSgAt=     2 MxSgA2=     2.
 Leave Link  302 at Mon Feb 28 19:23:04 2022, MaxMem= 17179869184 cpu:               2.9 elap:               0.2
 (Enter /home/saurabh/gaussian/g16/l303.exe)
 DipDrv:  MaxL=1.
 Leave Link  303 at Mon Feb 28 19:23:04 2022, MaxMem= 17179869184 cpu:               0.5 elap:               0.0
 (Enter /home/saurabh/gaussian/g16/l401.exe)
 Initial guess from the checkpoint file:  "O2_triplet.chk"
 B after Tr=     0.000000   -0.000000   -0.000000
         Rot=    1.000000   -0.000000   -0.000000    0.000000 Ang=   0.00 deg.
 Guess basis will be translated and rotated to current coordinates.
 JPrj=2 DoOrth=T DoCkMO=T.
 Initial guess orbital symmetries:
 Alpha Orbitals:
       Occupied  (SGG) (SGU) (SGG) (SGU) (PIU) (PIU) (SGG) (PIG)
                 (PIG)
       Virtual   (SGU) (PIU) (PIU) (SGU) (SGG) (PIG) (PIG) (SGG)
                 (DLTG) (DLTG) (SGU) (PIU) (PIU) (DLTU) (DLTU)
                 (SGG) (SGU) (PIG) (PIG) (PIU) (PIU) (SGG) (PIG)
                 (PIG) (DLTG) (DLTG) (PIU) (PIU) (SGU) (SGG) (PHIU)
                 (PHIU) (PHIG) (PHIG) (DLTU) (DLTU) (SGU) (DLTG)
                 (DLTG) (DLTU) (DLTU) (PIG) (PIG) (PIU) (PIU) (SGU)
                 (SGG) (PIG) (PIG) (SGG) (SGU)
 Beta  Orbitals:
       Occupied  (SGG) (SGU) (SGG) (SGU) (SGG) (PIU) (PIU)
       Virtual   (PIG) (PIG) (SGU) (SGU) (PIU) (PIU) (SGG) (PIG)
                 (PIG) (SGG) (SGU) (DLTG) (DLTG) (PIU) (PIU) (DLTU)
                 (DLTU) (SGG) (SGU) (PIG) (PIG) (PIU) (PIU) (SGG)
                 (PIG) (PIG) (DLTG) (DLTG) (PIU) (PIU) (SGU) (SGG)
                 (PHIU) (PHIU) (PHIG) (PHIG) (DLTU) (DLTU) (SGU)
                 (DLTG) (DLTG) (DLTU) (DLTU) (PIG) (PIG) (PIU)
                 (PIU) (SGU) (SGG) (PIG) (PIG) (SGG) (SGU)
 The electronic state of the initial guess is 3-SGG.
 Initial guess <Sx>= 0.0000 <Sy>= 0.0000 <Sz>= 1.0000 <S**2>= 2.0081 S= 1.0027
 Leave Link  401 at Mon Feb 28 19:23:04 2022, MaxMem= 17179869184 cpu:               1.7 elap:               0.1
 (Enter /home/saurabh/gaussian/g16/l502.exe)
 Keep R1 and R2 ints in memory in symmetry-blocked form, NReq=21337429.
 FoFCou: FMM=F IPFlag=           0 FMFlag=           0 FMFlg1=           0
         NFxFlg=           0 DoJE=F BraDBF=F KetDBF=F FulRan=T
         wScrn=  0.000000 ICntrl=       600 IOpCl=  0 I1Cent=           0 NGrid=           0
         NMat0=    1 NMatS0=   1830 NMatT0=    0 NMatD0=    1 NMtDS0=    0 NMtDT0=    0
 Petite list used in FoFCou.
 UHF open shell SCF:
 Using DIIS extrapolation, IDIIS=  1040.
 NGot= 17179869184 LenX= 17179414746 LenY= 17179409405
 Requested convergence on RMS density matrix=1.00D-08 within1000 cycles.
 Requested convergence on MAX density matrix=1.00D-06.
 Requested convergence on             energy=1.00D-06.
 No special actions if energy rises.

 Cycle   1  Pass 1  IDiag  1:
 E= -150.380865870946    
 DIIS: error= 1.69D-03 at cycle   1 NSaved=   1.
 NSaved= 1 IEnMin= 1 EnMin= -150.380865870946     IErMin= 1 ErrMin= 1.69D-03
 ErrMax= 1.69D-03  0.00D+00 EMaxC= 1.00D-01 BMatC= 3.47D-04 BMatP= 3.47D-04
 IDIUse=3 WtCom= 9.83D-01 WtEn= 1.69D-02
 Coeff-Com:  0.100D+01
 Coeff-En:   0.100D+01
 Coeff:      0.100D+01
 Gap=     0.505 Goal=   None    Shift=    0.000
 Gap=     0.350 Goal=   None    Shift=    0.000
 GapD=    0.350 DampG=1.000 DampE=1.000 DampFc=1.0000 IDamp=-1.
 RMSDP=1.09D-04 MaxDP=1.29D-03              OVMax= 2.90D-03

 Cycle   2  Pass 1  IDiag  1:
 E= -150.380941122723     Delta-E=       -0.000075251778 Rises=F Damp=F
 DIIS: error= 3.71D-04 at cycle   2 NSaved=   2.
 NSaved= 2 IEnMin= 2 EnMin= -150.380941122723     IErMin= 2 ErrMin= 3.71D-04
 ErrMax= 3.71D-04  0.00D+00 EMaxC= 1.00D-01 BMatC= 1.87D-05 BMatP= 3.47D-04
 IDIUse=3 WtCom= 9.96D-01 WtEn= 3.71D-03
 Coeff-Com:  0.911D-01 0.909D+00
 Coeff-En:   0.000D+00 0.100D+01
 Coeff:      0.908D-01 0.909D+00
 Gap=     0.493 Goal=   None    Shift=    0.000
 Gap=     0.349 Goal=   None    Shift=    0.000
 RMSDP=3.56D-05 MaxDP=6.63D-04 DE=-7.53D-05 OVMax= 8.03D-04

 Cycle   3  Pass 1  IDiag  1:
 E= -150.380943041535     Delta-E=       -0.000001918812 Rises=F Damp=F
 DIIS: error= 2.75D-04 at cycle   3 NSaved=   3.
 NSaved= 3 IEnMin= 3 EnMin= -150.380943041535     IErMin= 3 ErrMin= 2.75D-04
 ErrMax= 2.75D-04  0.00D+00 EMaxC= 1.00D-01 BMatC= 7.90D-06 BMatP= 1.87D-05
 IDIUse=3 WtCom= 9.97D-01 WtEn= 2.75D-03
 Coeff-Com: -0.185D-01 0.382D+00 0.636D+00
 Coeff-En:   0.000D+00 0.217D+00 0.783D+00
 Coeff:     -0.185D-01 0.382D+00 0.637D+00
 Gap=     0.493 Goal=   None    Shift=    0.000
 Gap=     0.349 Goal=   None    Shift=    0.000
 RMSDP=1.23D-05 MaxDP=2.03D-04 DE=-1.92D-06 OVMax= 3.11D-04

 Cycle   4  Pass 1  IDiag  1:
 E= -150.380944286895     Delta-E=       -0.000001245360 Rises=F Damp=F
 DIIS: error= 1.54D-05 at cycle   4 NSaved=   4.
 NSaved= 4 IEnMin= 4 EnMin= -150.380944286895     IErMin= 4 ErrMin= 1.54D-05
 ErrMax= 1.54D-05  0.00D+00 EMaxC= 1.00D-01 BMatC= 1.64D-08 BMatP= 7.90D-06
 IDIUse=1 WtCom= 1.00D+00 WtEn= 0.00D+00
 Coeff-Com: -0.136D-02-0.185D-01 0.112D-01 0.101D+01
 Coeff:     -0.136D-02-0.185D-01 0.112D-01 0.101D+01
 Gap=     0.493 Goal=   None    Shift=    0.000
 Gap=     0.349 Goal=   None    Shift=    0.000
 RMSDP=1.01D-06 MaxDP=2.13D-05 DE=-1.25D-06 OVMax= 2.46D-05

 Cycle   5  Pass 1  IDiag  1:
 E= -150.380944290750     Delta-E=       -0.000000003855 Rises=F Damp=F
 DIIS: error= 2.33D-06 at cycle   5 NSaved=   5.
 NSaved= 5 IEnMin= 5 EnMin= -150.380944290750     IErMin= 5 ErrMin= 2.33D-06
 ErrMax= 2.33D-06  0.00D+00 EMaxC= 1.00D-01 BMatC= 3.26D-10 BMatP= 1.64D-08
 IDIUse=1 WtCom= 1.00D+00 WtEn= 0.00D+00
 Coeff-Com:  0.398D-03-0.513D-02-0.109D-01-0.297D-01 0.105D+01
 Coeff:      0.398D-03-0.513D-02-0.109D-01-0.297D-01 0.105D+01
 Gap=     0.493 Goal=   None    Shift=    0.000
 Gap=     0.349 Goal=   None    Shift=    0.000
 RMSDP=1.45D-07 MaxDP=3.29D-06 DE=-3.86D-09 OVMax= 3.96D-06

 Cycle   6  Pass 1  IDiag  1:
 E= -150.380944290842     Delta-E=       -0.000000000092 Rises=F Damp=F
 DIIS: error= 5.99D-07 at cycle   6 NSaved=   6.
 NSaved= 6 IEnMin= 6 EnMin= -150.380944290842     IErMin= 6 ErrMin= 5.99D-07
 ErrMax= 5.99D-07  0.00D+00 EMaxC= 1.00D-01 BMatC= 2.66D-11 BMatP= 3.26D-10
 IDIUse=1 WtCom= 1.00D+00 WtEn= 0.00D+00
 Coeff-Com:  0.878D-04 0.179D-03-0.237D-02-0.556D-01 0.189D+00 0.869D+00
 Coeff:      0.878D-04 0.179D-03-0.237D-02-0.556D-01 0.189D+00 0.869D+00
 Gap=     0.493 Goal=   None    Shift=    0.000
 Gap=     0.349 Goal=   None    Shift=    0.000
 RMSDP=3.14D-08 MaxDP=6.03D-07 DE=-9.18D-11 OVMax= 1.03D-06

 Cycle   7  Pass 1  IDiag  1:
 E= -150.380944290847     Delta-E=       -0.000000000005 Rises=F Damp=F
 DIIS: error= 5.70D-08 at cycle   7 NSaved=   7.
 NSaved= 7 IEnMin= 7 EnMin= -150.380944290847     IErMin= 7 ErrMin= 5.70D-08
 ErrMax= 5.70D-08  0.00D+00 EMaxC= 1.00D-01 BMatC= 2.36D-13 BMatP= 2.66D-11
 IDIUse=1 WtCom= 1.00D+00 WtEn= 0.00D+00
 Coeff-Com: -0.689D-05 0.494D-04 0.287D-03 0.299D-02-0.294D-01 0.719D-02
 Coeff-Com:  0.102D+01
 Coeff:     -0.689D-05 0.494D-04 0.287D-03 0.299D-02-0.294D-01 0.719D-02
 Coeff:      0.102D+01
 Gap=     0.493 Goal=   None    Shift=    0.000
 Gap=     0.349 Goal=   None    Shift=    0.000
 RMSDP=2.11D-09 MaxDP=4.22D-08 DE=-5.09D-12 OVMax= 5.92D-08

 SCF Done:  E(UB3LYP) =  -150.380944291     A.U. after    7 cycles
            NFock=  7  Conv=0.21D-08     -V/T= 2.0052
 <Sx>= 0.0000 <Sy>= 0.0000 <Sz>= 1.0000 <S**2>= 2.0082 S= 1.0027
 <L.S>=  0.00000000000    
 KE= 1.496020097503D+02 PE=-4.116128501747D+02 EE= 8.354507615914D+01
 Annihilation of the first spin contaminant:
 S**2 before annihilation     2.0082,   after     2.0000
 Leave Link  502 at Mon Feb 28 19:23:04 2022, MaxMem= 17179869184 cpu:               7.2 elap:               0.3
 (Enter /home/saurabh/gaussian/g16/l701.exe)
 ... and contract with generalized density number  0.
 Compute integral first derivatives.
 Leave Link  701 at Mon Feb 28 19:23:05 2022, MaxMem= 17179869184 cpu:               3.2 elap:               0.2
 (Enter /home/saurabh/gaussian/g16/l702.exe)
 L702 exits ... SP integral derivatives will be done elsewhere.
 Leave Link  702 at Mon Feb 28 19:23:05 2022, MaxMem= 17179869184 cpu:               0.4 elap:               0.0
 (Enter /home/saurabh/gaussian/g16/l703.exe)
 Integral derivatives from FoFJK, PRISM(SPDF).
 Compute integral first derivatives, UseDBF=F ICtDFT=           0.
 Calling FoFJK, ICntrl=      2127 FMM=F ISym2X=1 I1Cent= 0 IOpClX= 1 NMat=1 NMatS=1 NMatT=0.
 FoFJK:  IHMeth= 1 ICntrl=    2127 DoSepK=F KAlg= 0 I1Cent=           0 FoldK=F
 IRaf=         0 NMat=       1 IRICut=       1 DoRegI=T DoRafI=F ISym2E= 1 IDoP0=0 IntGTp=1.
 FoFCou: FMM=F IPFlag=           0 FMFlag=      100000 FMFlg1=         800
         NFxFlg=           0 DoJE=F BraDBF=F KetDBF=F FulRan=T
         wScrn=  0.000000 ICntrl=      2127 IOpCl=  1 I1Cent=           0 NGrid=           0
         NMat0=    1 NMatS0=      1 NMatT0=    0 NMatD0=    1 NMtDS0=    0 NMtDT0=    0
 Petite list used in FoFCou.
 Leave Link  703 at Mon Feb 28 19:23:05 2022, MaxMem= 17179869184 cpu:               9.0 elap:               0.4
 (Enter /home/saurabh/gaussian/g16/l716.exe)
 Dipole        =-1.97215226D-31 5.11526993D-31 0.00000000D+00
 ***** Axes restored to original set *****
 -------------------------------------------------------------------
 Center     Atomic                   Forces (Hartrees/Bohr)
 Number     Number              X              Y              Z
 -------------------------------------------------------------------
      1        8           0.000098623    0.000017468    0.000000000
      2        8          -0.000098623   -0.000017468   -0.000000000
 -------------------------------------------------------------------
 Cartesian Forces:  Max     0.000098623 RMS     0.000057826
 Leave Link  716 at Mon Feb 28 19:23:05 2022, MaxMem= 17179869184 cpu:               0.5 elap:               0.0
 (Enter /home/saurabh/gaussian/g16/l103.exe)

 GradGradGradGradGradGradGradGradGradGradGradGradGradGradGradGradGradGrad
 Berny optimization.
 Using GEDIIS/GDIIS optimizer.
 Red2BG is reusing G-inverse.
 Internal  Forces:  Max     0.000100158 RMS     0.000100158
 Search for a local minimum.
 Step number   3 out of a maximum of  100
 All quantities printed in internal units (Hartrees-Bohrs-Radians)
 RMS Force = .10016D-03 SwitMx=.10000D-02 MixMth= 2
 Mixed Optimization -- En-DIIS/RFO-DIIS
 Update second derivatives using D2CorX and points    2    3
 DE= -1.33D-04 DEPred=-1.05D-04 R= 1.26D+00
 TightC=F SS=  1.41D+00  RLast= 1.81D-02 DXNew= 5.0454D-01 5.4412D-02
 Trust test= 1.26D+00 RLast= 1.81D-02 DXMaxT set to 3.00D-01
 The second derivative matrix:
                          R1
           R1           0.82994
 ITU=  1  1
 Use linear search instead of GDIIS.
     Eigenvalues ---    0.82994
 RFO step:  Lambda= 0.00000000D+00 EMin= 8.29935833D-01
 Quartic linear search produced a step of -0.00688.
 Iteration  1 RMS(Cart)=  0.00008826 RMS(Int)=  0.00000000
 Iteration  2 RMS(Cart)=  0.00000000 RMS(Int)=  0.00000000
 ITry= 1 IFail=0 DXMaxC= 6.15D-05 DCOld= 1.00D+10 DXMaxT= 3.00D-01 DXLimC= 3.00D+00 Rises=F
 ClnCor:  largest displacement from symmetrization is 1.78D-15 for atom     1.
 Variable       Old X    -DE/DX   Delta X   Delta X   Delta X     New X
                                 (Linear)    (Quad)   (Total)
    R1        2.27881  -0.00010  -0.00012  -0.00000  -0.00012   2.27869
         Item               Value     Threshold  Converged?
 Maximum Force            0.000100     0.000450     YES
 RMS     Force            0.000100     0.000300     YES
 Maximum Displacement     0.000061     0.001800     YES
 RMS     Displacement     0.000088     0.001200     YES
 Predicted change in Energy=-6.036490D-09
 Optimization completed.
    -- Stationary point found.
                           ----------------------------
                           !   Optimized Parameters   !
                           ! (Angstroms and Degrees)  !
 --------------------------                            --------------------------
 ! Name  Definition              Value          Derivative Info.                !
 --------------------------------------------------------------------------------
 ! R1    R(1,2)                  1.2059         -DE/DX =   -0.0001              !
 --------------------------------------------------------------------------------
 Lowest energy point so far.  Saving SCF results.
 Largest change from initial coordinates is atom    1       0.027 Angstoms.
 GradGradGradGradGradGradGradGradGradGradGradGradGradGradGradGradGradGrad

 Leave Link  103 at Mon Feb 28 19:23:05 2022, MaxMem= 17179869184 cpu:               0.2 elap:               0.0
 (Enter /home/saurabh/gaussian/g16/l202.exe)
                          Input orientation:                          
 ---------------------------------------------------------------------
 Center     Atomic      Atomic             Coordinates (Angstroms)
 Number     Number       Type             X           Y           Z
 ---------------------------------------------------------------------
      1          8           0       -4.309696    2.995186   -0.000000
      2          8           0       -3.122284    3.205504    0.000000
 ---------------------------------------------------------------------
 Stoichiometry    O2(3)
 Framework group  D*H[C*(O.O)]
 Deg. of freedom     1
 Full point group                 D*H     NOp   8
 RotChk:  IX=0 Diff= 4.48D-16
 Largest Abelian subgroup         D2H     NOp   8
 Largest concise Abelian subgroup C2      NOp   2
                         Standard orientation:                         
 ---------------------------------------------------------------------
 Center     Atomic      Atomic             Coordinates (Angstroms)
 Number     Number       Type             X           Y           Z
 ---------------------------------------------------------------------
      1          8           0       -0.000000    0.000000    0.602947
      2          8           0        0.000000   -0.000000   -0.602947
 ---------------------------------------------------------------------
 Rotational constants (GHZ):           0.0000000          43.4556593          43.4556593
 Leave Link  202 at Mon Feb 28 19:23:05 2022, MaxMem= 17179869184 cpu:               0.3 elap:               0.0
 (Enter /home/saurabh/gaussian/g16/l601.exe)
 Copying SCF densities to generalized density rwf, IOpCl= 1 IROHF=0.

 **********************************************************************

            Population analysis using the SCF Density.

 **********************************************************************

 Orbital symmetries:
 Alpha Orbitals:
       Occupied  (SGG) (SGU) (SGG) (SGU) (PIU) (PIU) (SGG) (PIG)
                 (PIG)
       Virtual   (SGU) (SGU) (PIU) (PIU) (SGG) (PIG) (PIG) (SGG)
                 (SGU) (DLTG) (DLTG) (PIU) (PIU) (DLTU) (DLTU)
                 (SGG) (SGU) (PIG) (PIG) (PIU) (PIU) (SGG) (PIG)
                 (PIG) (DLTG) (DLTG) (PIU) (PIU) (SGU) (SGG) (PHIU)
                 (PHIU) (PHIG) (PHIG) (DLTU) (DLTU) (SGU) (DLTG)
                 (DLTG) (DLTU) (DLTU) (PIG) (PIG) (PIU) (PIU) (SGU)
                 (SGG) (PIG) (PIG) (SGG) (SGU)
 Beta  Orbitals:
       Occupied  (SGG) (SGU) (SGG) (SGU) (SGG) (PIU) (PIU)
       Virtual   (PIG) (PIG) (SGU) (SGU) (PIU) (PIU) (SGG) (PIG)
                 (PIG) (SGG) (SGU) (DLTG) (DLTG) (PIU) (PIU) (DLTU)
                 (DLTU) (SGG) (SGU) (PIG) (PIG) (PIU) (PIU) (SGG)
                 (PIG) (PIG) (DLTG) (DLTG) (PIU) (PIU) (SGU) (SGG)
                 (PHIU) (PHIU) (PHIG) (PHIG) (DLTU) (DLTU) (SGU)
                 (DLTG) (DLTG) (DLTU) (DLTU) (PIG) (PIG) (PIU)
                 (PIU) (SGU) (SGG) (PIG) (PIG) (SGG) (SGU)
 The electronic state is 3-SGG.
 Alpha  occ. eigenvalues --  -19.29033 -19.29013  -1.31077  -0.84200  -0.56887
 Alpha  occ. eigenvalues --   -0.56887  -0.55437  -0.31288  -0.31288
 Alpha virt. eigenvalues --    0.18023   0.49346   0.49628   0.49628   0.54851
 Alpha virt. eigenvalues --    0.61199   0.61199   0.65739   1.19979   1.20132
 Alpha virt. eigenvalues --    1.20132   1.28523   1.28523   1.59842   1.59842
 Alpha virt. eigenvalues --    2.08285   2.12633   2.15476   2.15476   3.38209
 Alpha virt. eigenvalues --    3.38209   3.56211   3.66624   3.66624   4.55263
 Alpha virt. eigenvalues --    4.55263   4.62546   4.62546   4.69922   4.85702
 Alpha virt. eigenvalues --    4.87831   4.87831   5.12048   5.12048   5.65918
 Alpha virt. eigenvalues --    5.65918   5.75052   5.98590   5.98590   6.20718
 Alpha virt. eigenvalues --    6.20718   6.25653   6.25653   6.36258   6.36258
 Alpha virt. eigenvalues --    6.62559   6.90864   7.16797   7.16797   7.54592
 Alpha virt. eigenvalues --   12.13415
  Beta  occ. eigenvalues --  -19.25989 -19.25955  -1.25435  -0.75306  -0.51565
  Beta  occ. eigenvalues --   -0.46671  -0.46671
  Beta virt. eigenvalues --   -0.11773  -0.11773   0.21840   0.51279   0.53150
  Beta virt. eigenvalues --    0.53150   0.55785   0.65378   0.65378   0.67942
  Beta virt. eigenvalues --    1.23297   1.24367   1.24367   1.31517   1.31517
  Beta virt. eigenvalues --    1.65993   1.65993   2.11419   2.14576   2.19102
  Beta virt. eigenvalues --    2.19102   3.45752   3.45752   3.58375   3.74324
  Beta virt. eigenvalues --    3.74324   4.59379   4.59379   4.65856   4.65856
  Beta virt. eigenvalues --    4.73469   4.89001   4.94990   4.94990   5.19613
  Beta virt. eigenvalues --    5.19613   5.71809   5.71809   5.79322   6.09682
  Beta virt. eigenvalues --    6.09682   6.31002   6.31002   6.31794   6.31794
  Beta virt. eigenvalues --    6.42057   6.42057   6.65719   6.94824   7.20442
  Beta virt. eigenvalues --    7.20442   7.59108  12.17788
          Condensed to atoms (all electrons):
               1          2
     1  O    7.839880   0.160120
     2  O    0.160120   7.839880
          Atomic-Atomic Spin Densities.
               1          2
     1  O    1.372098  -0.372098
     2  O   -0.372098   1.372098
 Mulliken charges and spin densities:
               1          2
     1  O   -0.000000   1.000000
     2  O   -0.000000   1.000000
 Sum of Mulliken charges =  -0.00000   2.00000
 Mulliken charges and spin densities with hydrogens summed into heavy atoms:
               1          2
     1  O   -0.000000   1.000000
     2  O   -0.000000   1.000000
 Electronic spatial extent (au):  <R**2>=             43.2798
 Charge=             -0.0000 electrons
[...]
 Keep R2 and R3 ints in memory in symmetry-blocked form, NReq=34423012.
 FoFCou: FMM=F IPFlag=           0 FMFlag=           0 FMFlg1=           0
         NFxFlg=           0 DoJE=F BraDBF=F KetDBF=F FulRan=T
         wScrn=  0.000000 ICntrl=       600 IOpCl=  0 I1Cent=           0 NGrid=           0
         NMat0=    1 NMatS0=   7021 NMatT0=    0 NMatD0=    1 NMtDS0=    0 NMtDT0=    0
 Petite list used in FoFCou.
 CIDS: In Core Option IDoMem=           1.
 CCSD(T)
 =======
 Iterations=  50 Convergence= 0.100D-06
 Produce multiple copies of IABC intergrals
 Iteration Nr.   1
 **********************
 DD1Dir will call FoFMem   1 times, MxPair=       184
 NAB=    63 NAA=    36 NBB=    21.
 E(PMP3)=      -0.15033706284D+03
 MP4(R+Q)=  0.11080442D-01
 Maximum subspace dimension=  5
 A-vector RMS=  3.1267954D-03 Max=  3.1015130D-02 conv= 1.00D-05.
 RLE energy=       -0.5434830992
 E3=        0.57408389D-02        EUMP3=      -0.15033419331D+03
 E4(DQ)=   -0.32102861D-03        UMP4(DQ)=   -0.15033451433D+03
 E4(SDQ)=  -0.91417304D-02        UMP4(SDQ)=  -0.15034333504D+03
 VARIATIONAL ENERGIES WITH THE FIRST-ORDER WAVEFUNCTION:
 DE(Corr)= -0.54298459     E(Corr)=     -150.32297515    
 NORM(A)=   0.10498313D+01
 Iteration Nr.   2
 **********************
 DD1Dir will call FoFMem   1 times, MxPair=       184
 NAB=    63 NAA=    36 NBB=    21.
 A-vector RMS=  5.4525643D-04 Max=  8.5570757D-03 conv= 1.00D-05.
 RLE energy=       -0.5602682253
 DE(Corr)= -0.56064441     E(CORR)=     -150.34063497     Delta=-1.77D-02
 NORM(A)=   0.10549444D+01
 Iteration Nr.   3
 **********************
 DD1Dir will call FoFMem   1 times, MxPair=       184
 NAB=    63 NAA=    36 NBB=    21.
 A-vector RMS=  3.5362703D-04 Max=  3.4571575D-03 conv= 1.00D-05.
 RLE energy=       -0.5609077187
 DE(Corr)= -0.55969622     E(CORR)=     -150.33968678     Delta= 9.48D-04
 NORM(A)=   0.10562546D+01
 Iteration Nr.   4
 **********************
 DD1Dir will call FoFMem   1 times, MxPair=       184
 NAB=    63 NAA=    36 NBB=    21.
 A-vector RMS=  5.7982960D-05 Max=  4.6371816D-04 conv= 1.00D-05.
 RLE energy=       -0.5611030369
 DE(Corr)= -0.56103435     E(CORR)=     -150.34102491     Delta=-1.34D-03
 NORM(A)=   0.10565176D+01
 Iteration Nr.   5
 **********************
 DD1Dir will call FoFMem   1 times, MxPair=       184
 NAB=    63 NAA=    36 NBB=    21.
 A-vector RMS=  1.2929458D-05 Max=  1.4267288D-04 conv= 1.00D-05.
 RLE energy=       -0.5611211520
 DE(Corr)= -0.56110842     E(CORR)=     -150.34109898     Delta=-7.41D-05
 NORM(A)=   0.10565461D+01
 Iteration Nr.   6
 **********************
 DD1Dir will call FoFMem   1 times, MxPair=       184
 NAB=    63 NAA=    36 NBB=    21.
 A-vector RMS=  3.0479867D-06 Max=  3.5227073D-05 conv= 1.00D-05.
 RLE energy=       -0.5611094740
 DE(Corr)= -0.56111408     E(CORR)=     -150.34110464     Delta=-5.67D-06
 NORM(A)=   0.10565421D+01
 Iteration Nr.   7
 **********************
 DD1Dir will call FoFMem   1 times, MxPair=       184
 NAB=    63 NAA=    36 NBB=    21.
 A-vector RMS=  1.3717540D-06 Max=  1.1661552D-05 conv= 1.00D-05.
 RLE energy=       -0.5611161775
 DE(Corr)= -0.56111507     E(CORR)=     -150.34110563     Delta=-9.87D-07
 NORM(A)=   0.10565430D+01
 Iteration Nr.   8
 **********************
 DD1Dir will call FoFMem   1 times, MxPair=       184
 NAB=    63 NAA=    36 NBB=    21.
 A-vector RMS=  3.2391733D-07 Max=  3.3519970D-06 conv= 1.00D-05.
 RLE energy=       -0.5611137657
 DE(Corr)= -0.56111399     E(CORR)=     -150.34110455     Delta= 1.08D-06
 NORM(A)=   0.10565426D+01
 Iteration Nr.   9
 **********************
 DD1Dir will call FoFMem   1 times, MxPair=       184
 NAB=    63 NAA=    36 NBB=    21.
 A-vector RMS=  9.6343450D-08 Max=  1.2549454D-06 conv= 1.00D-05.
 RLE energy=       -0.5611149420
 DE(Corr)= -0.56111492     E(CORR)=     -150.34110547     Delta=-9.22D-07
 NORM(A)=   0.10565429D+01
 Iteration Nr.  10
 **********************
 DD1Dir will call FoFMem   1 times, MxPair=       184
 NAB=    63 NAA=    36 NBB=    21.
 A-vector RMS=  3.5721867D-08 Max=  3.7153048D-07 conv= 1.00D-05.
 RLE energy=       -0.5611147389
 DE(Corr)= -0.56111470     E(CORR)=     -150.34110526     Delta= 2.13D-07
 NORM(A)=   0.10565429D+01
 Iteration Nr.  11
 **********************
 DD1Dir will call FoFMem   1 times, MxPair=       184
 NAB=    63 NAA=    36 NBB=    21.
 A-vector RMS=  1.2072414D-08 Max=  1.4509841D-07 conv= 1.00D-05.
 RLE energy=       -0.5611148104
 DE(Corr)= -0.56111481     E(CORR)=     -150.34110537     Delta=-1.07D-07
 NORM(A)=   0.10565429D+01
 Iteration Nr.  12
 **********************
 DD1Dir will call FoFMem   1 times, MxPair=       184
 NAB=    63 NAA=    36 NBB=    21.
 A-vector RMS=  4.4393588D-09 Max=  3.5953814D-08 conv= 1.00D-05.
 RLE energy=       -0.5611148135
 DE(Corr)= -0.56111481     E(CORR)=     -150.34110537     Delta= 2.06D-09
 NORM(A)=   0.10565429D+01
 CI/CC converged in   12 iterations to DelEn= 2.06D-09 Conv= 1.00D-07 ErrA1= 4.44D-09 Conv= 1.00D-05
 Wavefunction amplitudes converged. E(Corr)=     -150.34110537    
 Largest amplitude= 9.27D-02
 Time for triples=      279.95 seconds.
 T4(CCSD)= -0.21085185D-01
 T5(CCSD)=  0.10925448D-02
 CCSD(T)= -0.15036109801D+03

 S**2, projected HF & approx projected MPn energies after annihilation of
 unwanted spin states (see manual for definitions):

 spins       (S**2,0) (S**2,1)    PUHF        PMP2        PMP3        PMP4
 annihilated
 s+1         1.99939  2.00038 -149.791247 -150.346763 -150.337063
 s+1,s+2     2.00000  2.00000 -149.791116 -150.346646 -150.336953
 s+1 to s+3  2.00000  2.00000 -149.791116 -150.346646 -150.336953
 s+1 to s+4  2.00000  2.00000 -149.791116 -150.346646 -150.336953
 s+1 to s+5  2.00000  2.00000 -149.791116
 s+1 to s+6  2.00000  2.00000 -149.791116

 Discarding MO integrals.
 Leave Link  913 at Mon Feb 28 19:24:22 2022, MaxMem= 17179869184 cpu:             391.8 elap:              17.8
 (Enter /home/saurabh/gaussian/g16/l601.exe)
 Copying SCF densities to generalized density rwf, IOpCl= 1 IROHF=0.

 **********************************************************************

            Population analysis using the SCF Density.

 **********************************************************************

 Orbital symmetries:
 Alpha Orbitals:
       Occupied  (SGG) (SGU) (SGG) (SGU) (PIU) (PIU) (SGG) (PIG)
                 (PIG)
       Virtual   (SGU) (PIU) (PIU) (SGG) (SGU) (SGG) (PIG) (PIG)
                 (SGU) (DLTG) (DLTG) (PIU) (PIU) (DLTU) (DLTU)
                 (SGG) (SGU) (PIG) (PIG) (PIU) (PIU) (SGG) (PIG)
                 (PIG) (SGG) (SGU) (DLTG) (DLTG) (PIU) (PIU) (PHIU)
                 (PHIU) (SGG) (PHIG) (PHIG) (SGU) (DLTU) (DLTU)
                 (SGU) (DLTG) (DLTG) (DLTU) (DLTU) (PIG) (PIG)
                 (PIU) (PIU) (PIG) (PIG) (SGG) (SGU) (PIU) (PIU)
                 (PIG) (PIG) (SGG) (SGU) (DLTG) (DLTG) (PHIU) (PHIU)
                 (PHIG) (PHIG) (PIU) (PIU) (DLTU) (DLTU) (SGU)
                 (PIG) (PIG) (SGG) (SGG) (SGU) (DLTG) (DLTG) (DLTU)
                 (DLTU) (PIU) (PIU) (PIG) (PIG) (SGG) (SGU) (PIU)
                 (PIU) (PIG) (PIG) (SGG) (DLTG) (DLTG) (PIU) (PIU)
                 (DLTU) (DLTU) (PIG) (PIG) (SGU) (SGG) (SGU) (SGG)
                 (SGU) (SGG) (SGU) (SGG) (SGU) (SGG) (SGU) (SGG)
                 (SGU)
 Beta  Orbitals:
       Occupied  (SGG) (SGU) (SGG) (SGU) (SGG) (PIU) (PIU)
       Virtual   (PIG) (PIG) (SGU) (SGG) (SGG) (PIU) (PIU) (SGU)
                 (PIG) (PIG) (SGU) (DLTG) (DLTG) (PIU) (PIU) (DLTU)
                 (DLTU) (SGG) (SGU) (PIG) (PIG) (PIU) (PIU) (SGG)
                 (PIG) (PIG) (SGG) (SGU) (DLTG) (DLTG) (PIU) (PIU)
                 (PHIU) (PHIU) (SGG) (SGU) (PHIG) (PHIG) (DLTU)
                 (DLTU) (SGU) (DLTG) (DLTG) (DLTU) (DLTU) (PIG)
                 (PIG) (PIU) (PIU) (PIG) (PIG) (SGG) (SGU) (PIU)
                 (PIU) (PIG) (PIG) (SGG) (SGU) (DLTG) (DLTG) (PHIU)
                 (PHIU) (PHIG) (PHIG) (PIU) (PIU) (DLTU) (DLTU)
                 (SGU) (PIG) (PIG) (SGG) (SGG) (SGU) (DLTG) (DLTG)
                 (DLTU) (DLTU) (PIU) (PIU) (PIG) (PIG) (SGG) (SGU)
                 (PIU) (PIU) (PIG) (PIG) (SGG) (DLTG) (DLTG) (PIU)
                 (PIU) (DLTU) (DLTU) (PIG) (PIG) (SGU) (SGG) (SGU)
                 (SGG) (SGU) (SGG) (SGU) (SGG) (SGU) (SGG) (SGU)
                 (SGG) (SGU)
 The electronic state is 3-SGG.
 Alpha  occ. eigenvalues --  -20.76661 -20.76595  -1.71685  -1.20591  -0.84092
 Alpha  occ. eigenvalues --   -0.84092  -0.76294  -0.55367  -0.55367
 Alpha virt. eigenvalues --    0.37651   0.67386   0.67386   0.70879   0.73193
 Alpha virt. eigenvalues --    0.73759   0.78568   0.78568   1.20713   1.43846
 Alpha virt. eigenvalues --    1.43846   1.53229   1.53229   1.84908   1.84908
 Alpha virt. eigenvalues --    2.28921   2.41264   2.43764   2.43764   3.55216
 Alpha virt. eigenvalues --    3.55216   3.79564   3.83343   3.83343   4.43437
 Alpha virt. eigenvalues --    4.47997   4.87685   4.87685   4.97750   4.97750
 Alpha virt. eigenvalues --    5.20753   5.20753   5.31445   5.46727   5.46727
 Alpha virt. eigenvalues --    5.47350   6.04515   6.04515   6.24136   6.40456
 Alpha virt. eigenvalues --    6.40456   6.62020   6.62020   6.69911   6.69911
 Alpha virt. eigenvalues --    6.80207   6.80207   7.54509   7.54509   7.86966
 Alpha virt. eigenvalues --    9.32831  15.18293  15.18293  15.36143  15.36143
 Alpha virt. eigenvalues --   15.75938  16.17689  18.14801  18.14801  18.24353
 Alpha virt. eigenvalues --   18.24353  18.37562  18.37562  18.58152  18.58152
 Alpha virt. eigenvalues --   18.68358  18.68358  18.78298  19.21120  19.21120
 Alpha virt. eigenvalues --   19.46756  21.75660  22.04839  22.28832  22.28832
 Alpha virt. eigenvalues --   22.39130  22.39130  22.42744  22.42744  22.57410
 Alpha virt. eigenvalues --   22.57410  22.84159  24.29183  74.79779  74.79779
 Alpha virt. eigenvalues --   74.93071  74.93071  74.97105  74.97371  74.97371
 Alpha virt. eigenvalues --   75.04051  75.04051  75.04062  75.04062  75.15582
 Alpha virt. eigenvalues --   75.15582  75.39253  75.51147  76.03984  85.91481
 Alpha virt. eigenvalues --   86.56732 309.03469 309.579571122.978401123.44969
 Alpha virt. eigenvalues -- 4392.446694392.80211********************
  Beta  occ. eigenvalues --  -20.71255 -20.71134  -1.58594  -0.99423  -0.70223
  Beta  occ. eigenvalues --   -0.57537  -0.57537
  Beta virt. eigenvalues --    0.11045   0.11045   0.43057   0.72986   0.73638
  Beta virt. eigenvalues --    0.74018   0.74018   0.77658   0.87651   0.87651
  Beta virt. eigenvalues --    1.23943   1.49055   1.49055   1.59019   1.59019
  Beta virt. eigenvalues --    1.94487   1.94487   2.33213   2.43586   2.48769
  Beta virt. eigenvalues --    2.48769   3.66405   3.66405   3.81973   3.93682
  Beta virt. eigenvalues --    3.93682   4.48583   4.52386   4.91200   4.91200
  Beta virt. eigenvalues --    5.00767   5.00767   5.26626   5.26626   5.36607
  Beta virt. eigenvalues --    5.51283   5.53286   5.53286   6.09919   6.09919
  Beta virt. eigenvalues --    6.27948   6.53299   6.53299   6.73764   6.73764
  Beta virt. eigenvalues --    6.77088   6.77088   6.86699   6.86699   7.57475
  Beta virt. eigenvalues --    7.57475   7.90069   9.36930  15.25282  15.25282
  Beta virt. eigenvalues --   15.43143  15.43143  15.78618  16.20051  18.19960
  Beta virt. eigenvalues --   18.19960  18.31682  18.31682  18.44835  18.44835
  Beta virt. eigenvalues --   18.61922  18.61922  18.73317  18.73317  18.81493
  Beta virt. eigenvalues --   19.24602  19.24602  19.49329  21.81023  22.07198
  Beta virt. eigenvalues --   22.36051  22.36051  22.46307  22.46307  22.46871
  Beta virt. eigenvalues --   22.46871  22.61558  22.61558  22.86129  24.33485
  Beta virt. eigenvalues --   74.82059  74.82059  74.95352  74.95352  74.98228
  Beta virt. eigenvalues --   75.00101  75.00101  75.05675  75.05675  75.06789
  Beta virt. eigenvalues --   75.06789  75.17207  75.17207  75.40217  75.52164
  Beta virt. eigenvalues --   76.05024  85.93046  86.58367 309.03985 309.58471
  Beta virt. eigenvalues -- 1122.980051123.451334392.447184392.80261**********
  Beta virt. eigenvalues -- **********
          Condensed to atoms (all electrons):
               1          2
     1  O    7.779800   0.220200
     2  O    0.220200   7.779800
          Atomic-Atomic Spin Densities.
               1          2
     1  O    1.413775  -0.413775
     2  O   -0.413775   1.413775
 Mulliken charges and spin densities:
               1          2
     1  O   -0.000000   1.000000
     2  O   -0.000000   1.000000
 Sum of Mulliken charges =  -0.00000   2.00000
 Mulliken charges and spin densities with hydrogens summed into heavy atoms:
               1          2
     1  O   -0.000000   1.000000
     2  O   -0.000000   1.000000
 Electronic spatial extent (au):  <R**2>=             43.1946
 Charge=             -0.0000 electrons
 Dipole moment (field-independent basis, Debye):
    X=             -0.0000    Y=             -0.0000    Z=             -0.0000  Tot=              0.0000
 Quadrupole moment (field-independent basis, Debye-Ang):
   XX=             -9.9229   YY=             -9.9229   ZZ=            -10.3135
   XY=             -0.0000   XZ=              0.0000   YZ=              0.0000
 Traceless Quadrupole moment (field-independent basis, Debye-Ang):
   XX=              0.1302   YY=              0.1302   ZZ=             -0.2604
   XY=             -0.0000   XZ=              0.0000   YZ=              0.0000
 Octapole moment (field-independent basis, Debye-Ang**2):
  XXX=             -0.0000  YYY=              0.0000  ZZZ=              0.0000  XYY=             -0.0000
  XXY=              0.0000  XXZ=              0.0000  XZZ=             -0.0000  YZZ=              0.0000
  YYZ=              0.0000  XYZ=              0.0000
 Hexadecapole moment (field-independent basis, Debye-Ang**3):
 XXXX=             -6.8219 YYYY=             -6.8219 ZZZZ=            -27.9153 XXXY=             -0.0000
 XXXZ=              0.0000 YYYX=             -0.0000 YYYZ=             -0.0000 ZZZX=              0.0000
 ZZZY=             -0.0000 XXYY=             -2.2740 XXZZ=             -5.9796 YYZZ=             -5.9796
 XXYZ=             -0.0000 YYXZ=              0.0000 ZZXY=             -0.0000
 N-N= 2.808481997441D+01 E-N=-4.121583845491D+02  KE= 1.502932390648D+02
 Symmetry AG   KE= 6.987860882609D+01
 Symmetry B1G  KE= 1.295190847445D-30
 Symmetry B2G  KE= 3.080941893404D+00
 Symmetry B3G  KE= 3.080941893404D+00
 Symmetry AU   KE= 1.275410039091D-30
 Symmetry B1U  KE= 6.546472970918D+01
 Symmetry B2U  KE= 4.394008371350D+00
 Symmetry B3U  KE= 4.394008371350D+00
 Symmetry AG   SP=-3.733803980938D-15
 Symmetry B1G  SP= 9.450095510192D-33
 Symmetry B2G  SP= 1.000000000000D+00
 Symmetry B3G  SP= 1.000000000000D+00
 Symmetry AU   SP= 1.457790719720D-33
 Symmetry B1U  SP=-1.064107826804D-15
 Symmetry B2U  SP= 1.795260877527D-15
 Symmetry B3U  SP= 6.615960111635D-16
 Leave Link  601 at Mon Feb 28 19:24:22 2022, MaxMem= 17179869184 cpu:               1.0 elap:               0.1
 (Enter /home/saurabh/gaussian/g16/l9999.exe)
 Unable to Open any file for archive entry.
 1\1\GINC-MEDIAWIKI\SP\UCCSD(T)-Full\MTSmall\O2(3)\SAURABH\28-Feb-2022\
 0\\#P Geom=AllCheck Guess=TCheck SCRF=Check CCSD(T,Full)/MTSmall int=d
 kh\\O2_w1u\\0,3\O,0,-4.3096963284,2.9951859296,0.\O,0,-3.1222836716,3.
 2055040704,0.\\Version=ES64L-G16RevC.01\State=3-SGG\HF=-149.7799906\MP
 2=-150.3399341\MP3=-150.3341933\MP4D=-150.3455948\MP4DQ=-150.3345143\P
 UHF=-149.7912475\PMP2-0=-150.3467626\PMP3-0=-150.3370628\MP4SDQ=-150.3
 43335\CCSD=-150.3411054\CCSD(T)=-150.361098\S2=2.042671\S2-1=2.008614\
 S2A=2.000928\RMSD=3.642e-09\PG=D*H [C*(O1.O1)]\\@
 The archive entry for this job was punched.


 EXPERIMENTALISTS THINK SILICON IS REALLY FUN TO USE
     ITS PLACE IN NOVEL COMPOUNDS IS CERTAIN TO AMUSE
 THEY SIT ALL DAY IN LABORATORIES MAKING ALL THIS SLUDGE
     "LOADED WITH THE SILICON THEY SAY", TO ME IT LOOKS LIKE FUDGE.
 FOR HAPPY THOUGH THEY BE WITH CRUD, I'D LIKE TO KNOW A LITTLE
      ABOUT THE PI BONDS ON THE EDGE AND SIGMAS IN THE MIDDLE.

 SO LETS DERIVE A WAVEFUNCTION.....6-31G*
     USE AN OPTIMAL GEOMETRY AND SEE WHERE ELECTRONS ARE.
 BUT WHAT OF CORRELATION?  ASKS THE WIRY LITTLE SKEPTIC.
     WE'LL THROW IN PERTURBATION AS AN ELECTRON ANTISEPTIC.
 AND WHEN THE PROGRAM GIVES US ANSWERS IN THEM WE CAN TRUST
     SINCE NOBODY CAN MAKE THE STUFF, WE HAVE NO CHOICE, WE MUST.

 SO THEORY GUYS HAVE GOT IT MADE, IN ROOMS FREE OF POLLUTION.
     INSTEAD OF PROBLEMS WITH THE REFLUX, THEY HAVE ONLY SOLUTIONS.
 AND WHEN THE FEDS ANNOUNCE THE LIST OF CARCINOGENIC TERRORS,
     THE THEORISTS SIT SAFELY AT THEIR TERMINALS FIXING ERRORS.
 IN OTHER WORDS, EXPERIMENTALISTS WILL LIKELY DIE OF CANCER
     FROM WORKING HARD YET FRUITLESSLY...TILL THEORY GIVES THE ANSWER.
          -- THOMAS A. HOLME, 1983
 Diagonal vibrational polarizability:
        0.0000000       0.0000000       0.0000000

 W1 and W2 theory:
 J.M.L. Martin and G. de Oliveira, JCP 111, 1843 (1999)
 S. Parthiban and J.M.L. Martin, JCP 114, 6014 (2001)

 W1U   Energy Components

                         SCF                 CCSD               CCSD(T)
 AVDZ+2d            -149.642705         -150.008608         -150.020789
 AVTZ+2df           -149.678466         -150.122009         -150.140947
 AVQZ+2df           -149.688758         -150.158157

                        NR/FC              DKH/Full
 MTsmall            -150.146743         -150.361098

 Extrapolated Energy Components

                         SCF                 CCSD               CCSD(T)
                    -149.691960           -0.486351           -0.021450

 Core + Scalar Relativistic Component
                      -0.214355

 W1U   Electronic Energy          -150.414116

 Temperature=                298.150000 Pressure=                        1.000000
 E(ZPE)=                       0.003654 E(Thermal)=                      0.006017
 W1U  (0 K)=                -150.410463 W1U   Energy=                 -150.408099
 W1U   Enthalpy=            -150.407155 W1U   Free Energy=            -150.430428

 W1U spin correction:
 G.P.F. Wood, L. Radom, G.A. Petersson, E.C. Barnes, M.J. Frisch
 and J.A. Montgomery, Jr., JCP 125, 94106 (2006).

 DE(Spin)=                         -0.000306

 W1Usc Electronic Energy          -150.414423

 Temperature=                298.150000 Pressure=                        1.000000
 E(ZPE)=                       0.003654 E(Thermal)=                      0.006017
 W1Usc(0 K)=                -150.410769 W1Usc Energy=                 -150.408405
 W1Usc Enthalpy=            -150.407461 W1Usc Free Energy=            -150.430734
 Unable to Open any file for archive entry.
 1\1\GINC-MEDIAWIKI\Mixed\W1Usc\W1Usc\O2(3)\SAURABH\28-Feb-2022\0\\#p w
 1u scf(verytight, maxcycles=1000) opt(calcfc, maxcyc=1000) int(grid=ul
 trafine)\\O2_w1u\\0,3\O,0,-4.3096963284,2.9951859296,0.\O,0,-3.1222836
 716,3.2055040704,0.\\Version=ES64L-G16RevC.01\State=3-SGG\HF/AVTZ+2d1f
 =-149.6784663\HF/AVQZ+2d1f=-149.6887576\HFExt=-149.6919597\CCSD/AVTZ+2
 d1f=-150.1220093\CCSD/AVQZ+2d1f=-150.1581569\CCSDExt=-0.4863515\CCSD(T
 )/AVDZ+2d=-150.0207886\CCSD(T)/AVTZ+2d1f=0.\TExt=-0.0214503\CCSD(T)/MT
 small=-150.146743\DK-CCSD(T,FU)/MTsmall=-150.361098\Core+Rel=-0.214355
 \W1=-150.4104628\W1sc=-150.4107689\FreqCoord=-8.1441457407,5.660081099
 1,0.,-5.9002610226,6.0575247842,0.\PG=D*H [C*(O1.O1)]\NImag=0\\0.77792
 479,0.13778048,0.02444883,0.,0.,0.00004473,-0.77792479,-0.13778048,0.,
 0.77792479,-0.13778048,-0.02444883,0.,0.13778048,0.02444883,0.,0.,-0.0
 0004473,0.,0.,0.00004473\\-0.00009862,-0.00001747,0.,0.00009862,0.0000
 1747,0.\\\@
 The archive entry for this job was punched.
 Job cpu time:       0 days  0 hours  7 minutes 40.2 seconds.
 Elapsed time:       0 days  0 hours  0 minutes 21.4 seconds.
 File lengths (MBytes):  RWF=    368 Int=      0 D2E=      0 Chk=      4 Scr=      1
 Normal termination of Gaussian 16 at Mon Feb 28 19:24:22 2022.
