 Entering Gaussian System, Link 0=g16
 Input=OH.com
 Output=OH.log
 Initial command:
 /home/saurabh/gaussian/g16/l1.exe "/home/saurabh/gaussian/gauss_scr/Gau-28061.inp" -scrdir="/home/saurabh/gaussian/gauss_scr/"
 Entering Link 1 = /home/saurabh/gaussian/g16/l1.exe PID=     28062.
  
 Copyright (c) 1988-2019, Gaussian, Inc.  All Rights Reserved.
  
 This is part of the Gaussian(R) 16 program.  It is based on
 the Gaussian(R) 09 system (copyright 2009, Gaussian, Inc.),
 the Gaussian(R) 03 system (copyright 2003, Gaussian, Inc.),
 the Gaussian(R) 98 system (copyright 1998, Gaussian, Inc.),
 the Gaussian(R) 94 system (copyright 1995, Gaussian, Inc.),
 the Gaussian 92(TM) system (copyright 1992, Gaussian, Inc.),
 the Gaussian 90(TM) system (copyright 1990, Gaussian, Inc.),
 the Gaussian 88(TM) system (copyright 1988, Gaussian, Inc.),
 the Gaussian 86(TM) system (copyright 1986, Carnegie Mellon
 University), and the Gaussian 82(TM) system (copyright 1983,
 Carnegie Mellon University). Gaussian is a federally registered
 trademark of Gaussian, Inc.
  
 This software contains proprietary and confidential information,
 including trade secrets, belonging to Gaussian, Inc.
  
 This software is provided under written license and may be
 used, copied, transmitted, or stored only in accord with that
 written license.
  
 The following legend is applicable only to US Government
 contracts under FAR:
  
                    RESTRICTED RIGHTS LEGEND
  
 Use, reproduction and disclosure by the US Government is
 subject to restrictions as set forth in subparagraphs (a)
 and (c) of the Commercial Computer Software - Restricted
 Rights clause in FAR 52.227-19.
  
 Gaussian, Inc.
 340 Quinnipiac St., Bldg. 40, Wallingford CT 06492
  
  
 ---------------------------------------------------------------
 Warning -- This program may not be used in any manner that
 competes with the business of Gaussian, Inc. or will provide
 assistance to any competitor of Gaussian, Inc.  The licensee
 of this program is prohibited from giving any competitor of
 Gaussian, Inc. access to this program.  By using this program,
 the user acknowledges that Gaussian, Inc. is engaged in the
 business of creating and licensing software in the field of
 computational chemistry and represents and warrants to the
 licensee that it is not a competitor of Gaussian, Inc. and that
 it will not use this program in any manner prohibited above.
 ---------------------------------------------------------------
  

 Cite this work as:
 Gaussian 16, Revision C.01,
 M. J. Frisch, G. W. Trucks, H. B. Schlegel, G. E. Scuseria, 
 M. A. Robb, J. R. Cheeseman, G. Scalmani, V. Barone, 
 G. A. Petersson, H. Nakatsuji, X. Li, M. Caricato, A. V. Marenich, 
 J. Bloino, B. G. Janesko, R. Gomperts, B. Mennucci, H. P. Hratchian, 
 J. V. Ortiz, A. F. Izmaylov, J. L. Sonnenberg, D. Williams-Young, 
 F. Ding, F. Lipparini, F. Egidi, J. Goings, B. Peng, A. Petrone, 
 T. Henderson, D. Ranasinghe, V. G. Zakrzewski, J. Gao, N. Rega, 
 G. Zheng, W. Liang, M. Hada, M. Ehara, K. Toyota, R. Fukuda, 
 J. Hasegawa, M. Ishida, T. Nakajima, Y. Honda, O. Kitao, H. Nakai, 
 T. Vreven, K. Throssell, J. A. Montgomery, Jr., J. E. Peralta, 
 F. Ogliaro, M. J. Bearpark, J. J. Heyd, E. N. Brothers, K. N. Kudin, 
 V. N. Staroverov, T. A. Keith, R. Kobayashi, J. Normand, 
 K. Raghavachari, A. P. Rendell, J. C. Burant, S. S. Iyengar, 
 J. Tomasi, M. Cossi, J. M. Millam, M. Klene, C. Adamo, R. Cammi, 
 J. W. Ochterski, R. L. Martin, K. Morokuma, O. Farkas, 
 J. B. Foresman, and D. J. Fox, Gaussian, Inc., Wallingford CT, 2019.
 
 ******************************************
 Gaussian 16:  ES64L-G16RevC.01  3-Jul-2019
                23-Feb-2022 
 ******************************************
 %nproc=22
 Will use up to   22 processors via shared memory.
 %mem=128GB
 %chk=OH_w1u.chk
 ----------------------------------------------------------------------
 #p w1u scf(verytight, maxcycles=1000) opt(calcfc, maxcyc=1000) int(gri
 d=ultrafine)
 ----------------------------------------------------------------------
 1/6=1000,10=4,18=20,19=15,26=4,38=1/1,3;
 2/9=110,12=2,17=6,18=5,40=1/2;
 3/5=16,6=1,7=9,11=2,25=1,30=1,71=2,74=-5,75=-5,140=1/1,2,3;
 4//1;
 5/5=2,7=1000,17=3,38=5/2;
 8/6=4,10=90,11=11/1;
 11/6=1,8=1,9=11,15=111,16=1/1,2,10;
 10/6=1,13=1/2;
 6/7=2,8=2,9=2,10=2,28=1/1;
 7/10=1,25=1/1,2,3,16;
 1/6=1000,10=4,18=20,19=15,26=4/3(2);
 2/9=110/2;
 99//99;
 2/9=110/2;
 3/5=16,6=1,7=9,11=2,25=1,30=1,71=1,74=-5,75=-5/1,2,3;
 4/5=5,16=3,69=1/1;
 5/5=2,7=1000,17=3,38=5/2;
 7//1,2,3,16;
 1/6=1000,18=20,19=15,26=4/3(-5);
 2/9=110/2;
 6/7=2,8=2,9=2,10=2,19=2,28=1/1;
 99/9=1/99;
 Leave Link    1 at Wed Feb 23 16:41:39 2022, MaxMem= 17179869184 cpu:               1.1 elap:               0.1
 (Enter /home/saurabh/gaussian/g16/l101.exe)
 ------
 OH_w1u
 ------
 Symbolic Z-matrix:
 Charge =  0 Multiplicity = 2
 O                    -1.85972   0.03567   0.14445 
 H                    -2.2675   -0.1608   -0.7363 
 
 ITRead=  0  0
 MicOpt= -1 -1
 NAtoms=      2 NQM=        2 NQMF=       0 NMMI=      0 NMMIF=      0
                NMic=       0 NMicF=      0.
                    Isotopes and Nuclear Properties:
 (Nuclear quadrupole moments (NQMom) in fm**2, nuclear magnetic moments (NMagM)
  in nuclear magnetons)

  Atom         1           2
 IAtWgt=          16           1
 AtmWgt=  15.9949146   1.0078250
 NucSpn=           0           1
 AtZEff=  -0.0000000  -0.0000000
 NQMom=    0.0000000   0.0000000
 NMagM=    0.0000000   2.7928460
 AtZNuc=   8.0000000   1.0000000
 Leave Link  101 at Wed Feb 23 16:41:40 2022, MaxMem= 17179869184 cpu:               8.7 elap:               0.4
 (Enter /home/saurabh/gaussian/g16/l103.exe)

 GradGradGradGradGradGradGradGradGradGradGradGradGradGradGradGradGradGrad
 Berny optimization.
 Initialization pass.
                           ----------------------------
                           !    Initial Parameters    !
                           ! (Angstroms and Degrees)  !
 --------------------------                            --------------------------
 ! Name  Definition              Value          Derivative Info.                !
 --------------------------------------------------------------------------------
 ! R1    R(1,2)                  0.9903         calculate D2E/DX2 analytically  !
 --------------------------------------------------------------------------------
 Trust Radius=3.00D-01 FncErr=1.00D-07 GrdErr=1.00D-06 EigMax=2.50D+02 EigMin=1.00D-04
 Number of steps in this run=    100 maximum allowed number of steps=    100.
 GradGradGradGradGradGradGradGradGradGradGradGradGradGradGradGradGradGrad

 Leave Link  103 at Wed Feb 23 16:41:40 2022, MaxMem= 17179869184 cpu:               0.2 elap:               0.0
 (Enter /home/saurabh/gaussian/g16/l202.exe)
                          Input orientation:                          
 ---------------------------------------------------------------------
 Center     Atomic      Atomic             Coordinates (Angstroms)
 Number     Number       Type             X           Y           Z
 ---------------------------------------------------------------------
      1          8           0       -1.859720    0.035670    0.144450
      2          1           0       -2.267500   -0.160800   -0.736300
 ---------------------------------------------------------------------
 Stoichiometry    HO(2)
 Framework group  C*V[C*(HO)]
 Deg. of freedom     1
 Full point group                 C*V     NOp   4
 Largest Abelian subgroup         C2V     NOp   4
 Largest concise Abelian subgroup C1      NOp   1
                         Standard orientation:                         
 ---------------------------------------------------------------------
 Center     Atomic      Atomic             Coordinates (Angstroms)
 Number     Number       Type             X           Y           Z
 ---------------------------------------------------------------------
      1          8           0        0.000000   -0.000000    0.110028
      2          1           0       -0.000000    0.000000   -0.880227
 ---------------------------------------------------------------------
 Rotational constants (GHZ):           0.0000000         543.5940414         543.5940414
 Leave Link  202 at Wed Feb 23 16:41:40 2022, MaxMem= 17179869184 cpu:               1.8 elap:               0.1
 (Enter /home/saurabh/gaussian/g16/l301.exe)
 Standard basis: CC-pVTZ+d (5D, 7F)
 Ernie: Thresh=  0.10000D-02 Tol=  0.10000D-05 Strict=F.
 Ernie:  3 primitive shells out of 34 were deleted.
 There are    24 symmetry adapted cartesian basis functions of A1  symmetry.
 There are     4 symmetry adapted cartesian basis functions of A2  symmetry.
 There are    11 symmetry adapted cartesian basis functions of B1  symmetry.
 There are    11 symmetry adapted cartesian basis functions of B2  symmetry.
 There are    20 symmetry adapted basis functions of A1  symmetry.
 There are     4 symmetry adapted basis functions of A2  symmetry.
 There are    10 symmetry adapted basis functions of B1  symmetry.
 There are    10 symmetry adapted basis functions of B2  symmetry.
    44 basis functions,    69 primitive gaussians,    50 cartesian basis functions
     5 alpha electrons        4 beta electrons
       nuclear repulsion energy         4.2750770466 Hartrees.
 IExCor=  402 DFT=T Ex+Corr=B3LYP ExCW=0 ScaHFX=  0.200000
 ScaDFX=  0.800000  0.720000  1.000000  0.810000 ScalE2=  1.000000  1.000000
 IRadAn=      5 IRanWt=     -1 IRanGd=            0 ICorTp=0 IEmpDi=  4
 NAtoms=    2 NActive=    2 NUniq=    2 SFac= 1.00D+00 NAtFMM=   60 NAOKFM=F Big=F
 Integral buffers will be    131072 words long.
 Raffenetti 2 integral format.
 Two-electron integral symmetry is turned on.
 Leave Link  301 at Wed Feb 23 16:41:40 2022, MaxMem= 17179869184 cpu:               1.2 elap:               0.1
 (Enter /home/saurabh/gaussian/g16/l302.exe)
 NPDir=0 NMtPBC=     1 NCelOv=     1 NCel=       1 NClECP=     1 NCelD=      1
         NCelK=      1 NCelE2=     1 NClLst=     1 CellRange=     0.0.
 One-electron integrals computed using PRISM.
 One-electron integral symmetry used in STVInt
 NBasis=    44 RedAO= T EigKep=  4.40D-03  NBF=    20     4    10    10
 NBsUse=    44 1.00D-06 EigRej= -1.00D+00 NBFU=    20     4    10    10
 Precomputing XC quadrature grid using
 IXCGrd= 4 IRadAn=           5 IRanWt=          -1 IRanGd=           0 AccXCQ= 0.00D+00.
 Generated NRdTot=       0 NPtTot=           0 NUsed=           0 NTot=          32
 NSgBfM=    50    50    50    50    50 MxSgAt=     2 MxSgA2=     2.
 Leave Link  302 at Wed Feb 23 16:41:40 2022, MaxMem= 17179869184 cpu:               3.0 elap:               0.2
 (Enter /home/saurabh/gaussian/g16/l303.exe)
 DipDrv:  MaxL=1.
 Leave Link  303 at Wed Feb 23 16:41:40 2022, MaxMem= 17179869184 cpu:               0.5 elap:               0.0
 (Enter /home/saurabh/gaussian/g16/l401.exe)
 ExpMin= 1.03D-01 ExpMax= 1.53D+04 ExpMxC= 5.22D+02 IAcc=3 IRadAn=         5 AccDes= 0.00D+00
 Harris functional with IExCor=  402 and IRadAn=       5 diagonalized for initial guess.
 HarFok:  IExCor=  402 AccDes= 0.00D+00 IRadAn=         5 IDoV= 1 UseB2=F ITyADJ=14
 ICtDFT=  3500011 ScaDFX=  1.000000  1.000000  1.000000  1.000000
 FoFCou: FMM=F IPFlag=           0 FMFlag=      100000 FMFlg1=           0
         NFxFlg=           0 DoJE=T BraDBF=F KetDBF=T FulRan=T
         wScrn=  0.000000 ICntrl=       500 IOpCl=  0 I1Cent=   200000004 NGrid=           0
         NMat0=    1 NMatS0=      1 NMatT0=    0 NMatD0=    1 NMtDS0=    0 NMtDT0=    0
 Petite list used in FoFCou.
 Harris En= -75.7339628273753    
 JPrj=0 DoOrth=F DoCkMO=F.
 Initial guess orbital symmetries:
 Alpha Orbitals:
       Occupied  (SG) (SG) (SG) (PI) (PI)
       Virtual   (SG) (SG) (SG) (PI) (PI) (PI) (PI) (SG) (SG) (DLTA)
                 (DLTA) (PI) (PI) (SG) (SG) (DLTA) (DLTA) (PI)
                 (PI) (PI) (PI) (SG) (PI) (PI) (SG) (SG) (PHI)
                 (PHI) (DLTA) (DLTA) (DLTA) (DLTA) (PI) (PI) (SG)
                 (PI) (PI) (SG) (SG)
 Beta  Orbitals:
       Occupied  (SG) (SG) (SG) (PI)
       Virtual   (PI) (SG) (SG) (SG) (PI) (PI) (PI) (PI) (SG) (SG)
                 (DLTA) (DLTA) (PI) (PI) (SG) (SG) (DLTA) (DLTA)
                 (PI) (PI) (PI) (PI) (SG) (PI) (PI) (SG) (SG) (PHI)
                 (PHI) (DLTA) (DLTA) (DLTA) (DLTA) (PI) (PI) (SG)
                 (PI) (PI) (SG) (SG)
 Initial guess <Sx>= 0.0000 <Sy>= 0.0000 <Sz>= 0.5000 <S**2>= 0.7500 S= 0.5000
 Leave Link  401 at Wed Feb 23 16:41:41 2022, MaxMem= 17179869184 cpu:               4.1 elap:               0.2
 (Enter /home/saurabh/gaussian/g16/l502.exe)
 Keep R1 and R2 ints in memory in symmetry-blocked form, NReq=19692805.
 FoFCou: FMM=F IPFlag=           0 FMFlag=           0 FMFlg1=           0
         NFxFlg=           0 DoJE=F BraDBF=F KetDBF=F FulRan=T
         wScrn=  0.000000 ICntrl=       600 IOpCl=  0 I1Cent=           0 NGrid=           0
         NMat0=    1 NMatS0=    990 NMatT0=    0 NMatD0=    1 NMtDS0=    0 NMtDT0=    0
 Petite list used in FoFCou.
 UHF open shell SCF:
 Using DIIS extrapolation, IDIIS=  1040.
 NGot= 17179869184 LenX= 17179601110 LenY= 17179598169
 Requested convergence on RMS density matrix=1.00D-08 within1000 cycles.
 Requested convergence on MAX density matrix=1.00D-06.
 Requested convergence on             energy=1.00D-06.
 No special actions if energy rises.
 Integral accuracy reduced to 1.0D-05 until final iterations.

 Cycle   1  Pass 0  IDiag  1:
 E= -75.7466741692095    
 DIIS: error= 2.69D-02 at cycle   1 NSaved=   1.
 NSaved= 1 IEnMin= 1 EnMin= -75.7466741692095     IErMin= 1 ErrMin= 2.69D-02
 ErrMax= 2.69D-02  0.00D+00 EMaxC= 1.00D-01 BMatC= 1.01D-01 BMatP= 1.01D-01
 IDIUse=3 WtCom= 7.31D-01 WtEn= 2.69D-01
 Coeff-Com:  0.100D+01
 Coeff-En:   0.100D+01
 Coeff:      0.100D+01
 Gap=     0.307 Goal=   None    Shift=    0.000
 Gap=     0.150 Goal=   None    Shift=    0.000
 GapD=    0.150 DampG=1.000 DampE=0.500 DampFc=0.5000 IDamp=-1.
 Damping current iteration by 5.00D-01
 RMSDP=3.52D-03 MaxDP=5.67D-02              OVMax= 1.08D-01

 Cycle   2  Pass 0  IDiag  1:
 E= -75.7539372620222     Delta-E=       -0.007263092813 Rises=F Damp=T
 DIIS: error= 9.63D-03 at cycle   2 NSaved=   2.
 NSaved= 2 IEnMin= 2 EnMin= -75.7539372620222     IErMin= 2 ErrMin= 9.63D-03
 ErrMax= 9.63D-03  0.00D+00 EMaxC= 1.00D-01 BMatC= 9.40D-03 BMatP= 1.01D-01
 IDIUse=3 WtCom= 9.04D-01 WtEn= 9.63D-02
 Coeff-Com:  0.585D-01 0.942D+00
 Coeff-En:   0.115D+00 0.885D+00
 Coeff:      0.640D-01 0.936D+00
 Gap=     0.370 Goal=   None    Shift=    0.000
 Gap=     0.146 Goal=   None    Shift=    0.000
 RMSDP=6.47D-04 MaxDP=1.71D-02 DE=-7.26D-03 OVMax= 5.45D-02

 Cycle   3  Pass 0  IDiag  1:
 E= -75.7637572645312     Delta-E=       -0.009820002509 Rises=F Damp=F
 DIIS: error= 3.14D-03 at cycle   3 NSaved=   3.
 NSaved= 3 IEnMin= 3 EnMin= -75.7637572645312     IErMin= 3 ErrMin= 3.14D-03
 ErrMax= 3.14D-03  0.00D+00 EMaxC= 1.00D-01 BMatC= 8.62D-04 BMatP= 9.40D-03
 IDIUse=3 WtCom= 9.69D-01 WtEn= 3.14D-02
 Coeff-Com: -0.758D-01 0.107D+00 0.968D+00
 Coeff-En:   0.000D+00 0.000D+00 0.100D+01
 Coeff:     -0.734D-01 0.104D+00 0.969D+00
 Gap=     0.369 Goal=   None    Shift=    0.000
 Gap=     0.149 Goal=   None    Shift=    0.000
 RMSDP=1.67D-04 MaxDP=3.83D-03 DE=-9.82D-03 OVMax= 5.36D-03

 Cycle   4  Pass 0  IDiag  1:
 E= -75.7639136547124     Delta-E=       -0.000156390181 Rises=F Damp=F
 DIIS: error= 4.84D-04 at cycle   4 NSaved=   4.
 NSaved= 4 IEnMin= 4 EnMin= -75.7639136547124     IErMin= 4 ErrMin= 4.84D-04
 ErrMax= 4.84D-04  0.00D+00 EMaxC= 1.00D-01 BMatC= 2.21D-05 BMatP= 8.62D-04
 IDIUse=3 WtCom= 9.95D-01 WtEn= 4.84D-03
 Coeff-Com: -0.137D-01-0.158D-03 0.151D+00 0.863D+00
 Coeff-En:   0.000D+00 0.000D+00 0.000D+00 0.100D+01
 Coeff:     -0.137D-01-0.157D-03 0.151D+00 0.863D+00
 Gap=     0.369 Goal=   None    Shift=    0.000
 Gap=     0.149 Goal=   None    Shift=    0.000
 RMSDP=4.24D-05 MaxDP=7.26D-04 DE=-1.56D-04 OVMax= 1.33D-03

 Cycle   5  Pass 0  IDiag  1:
 E= -75.7639193294514     Delta-E=       -0.000005674739 Rises=F Damp=F
 DIIS: error= 1.62D-04 at cycle   5 NSaved=   5.
 NSaved= 5 IEnMin= 5 EnMin= -75.7639193294514     IErMin= 5 ErrMin= 1.62D-04
 ErrMax= 1.62D-04  0.00D+00 EMaxC= 1.00D-01 BMatC= 1.42D-06 BMatP= 2.21D-05
 IDIUse=3 WtCom= 9.98D-01 WtEn= 1.62D-03
 Coeff-Com:  0.543D-02-0.670D-02-0.682D-01-0.738D-02 0.108D+01
 Coeff-En:   0.000D+00 0.000D+00 0.000D+00 0.000D+00 0.100D+01
 Coeff:      0.542D-02-0.669D-02-0.680D-01-0.737D-02 0.108D+01
 Gap=     0.369 Goal=   None    Shift=    0.000
 Gap=     0.149 Goal=   None    Shift=    0.000
 RMSDP=1.58D-05 MaxDP=2.60D-04 DE=-5.67D-06 OVMax= 5.26D-04

 Cycle   6  Pass 0  IDiag  1:
 E= -75.7639200418762     Delta-E=       -0.000000712425 Rises=F Damp=F
 DIIS: error= 4.04D-05 at cycle   6 NSaved=   6.
 NSaved= 6 IEnMin= 6 EnMin= -75.7639200418762     IErMin= 6 ErrMin= 4.04D-05
 ErrMax= 4.04D-05  0.00D+00 EMaxC= 1.00D-01 BMatC= 8.04D-08 BMatP= 1.42D-06
 IDIUse=1 WtCom= 1.00D+00 WtEn= 0.00D+00
 Coeff-Com: -0.657D-03 0.193D-02 0.127D-01-0.422D-01-0.336D+00 0.136D+01
 Coeff:     -0.657D-03 0.193D-02 0.127D-01-0.422D-01-0.336D+00 0.136D+01
 Gap=     0.369 Goal=   None    Shift=    0.000
 Gap=     0.149 Goal=   None    Shift=    0.000
 RMSDP=5.82D-06 MaxDP=8.94D-05 DE=-7.12D-07 OVMax= 2.24D-04

 Initial convergence to 1.0D-05 achieved.  Increase integral accuracy.
 Cycle   7  Pass 1  IDiag  1:
 E= -75.7639196533376     Delta-E=        0.000000388539 Rises=F Damp=F
 DIIS: error= 4.96D-06 at cycle   1 NSaved=   1.
 NSaved= 1 IEnMin= 1 EnMin= -75.7639196533376     IErMin= 1 ErrMin= 4.96D-06
 ErrMax= 4.96D-06  0.00D+00 EMaxC= 1.00D-01 BMatC= 1.35D-09 BMatP= 1.35D-09
 IDIUse=1 WtCom= 1.00D+00 WtEn= 0.00D+00
 Coeff-Com:  0.100D+01
 Coeff:      0.100D+01
 Gap=     0.369 Goal=   None    Shift=    0.000
 Gap=     0.149 Goal=   None    Shift=    0.000
 RMSDP=5.82D-06 MaxDP=8.94D-05 DE= 3.89D-07 OVMax= 2.23D-05

 Cycle   8  Pass 1  IDiag  1:
 E= -75.7639196539071     Delta-E=       -0.000000000569 Rises=F Damp=F
 DIIS: error= 2.97D-06 at cycle   2 NSaved=   2.
 NSaved= 2 IEnMin= 2 EnMin= -75.7639196539071     IErMin= 2 ErrMin= 2.97D-06
 ErrMax= 2.97D-06  0.00D+00 EMaxC= 1.00D-01 BMatC= 6.25D-10 BMatP= 1.35D-09
 IDIUse=1 WtCom= 1.00D+00 WtEn= 0.00D+00
 Coeff-Com:  0.316D+00 0.684D+00
 Coeff:      0.316D+00 0.684D+00
 Gap=     0.369 Goal=   None    Shift=    0.000
 Gap=     0.149 Goal=   None    Shift=    0.000
 RMSDP=2.10D-07 MaxDP=3.33D-06 DE=-5.69D-10 OVMax= 9.13D-06

 Cycle   9  Pass 1  IDiag  1:
 E= -75.7639196540364     Delta-E=       -0.000000000129 Rises=F Damp=F
 DIIS: error= 1.68D-06 at cycle   3 NSaved=   3.
 NSaved= 3 IEnMin= 3 EnMin= -75.7639196540364     IErMin= 3 ErrMin= 1.68D-06
 ErrMax= 1.68D-06  0.00D+00 EMaxC= 1.00D-01 BMatC= 1.96D-10 BMatP= 6.25D-10
 IDIUse=1 WtCom= 1.00D+00 WtEn= 0.00D+00
 Coeff-Com: -0.248D+00 0.318D+00 0.930D+00
 Coeff:     -0.248D+00 0.318D+00 0.930D+00
 Gap=     0.369 Goal=   None    Shift=    0.000
 Gap=     0.149 Goal=   None    Shift=    0.000
 RMSDP=1.49D-07 MaxDP=2.68D-06 DE=-1.29D-10 OVMax= 6.80D-06

 Cycle  10  Pass 1  IDiag  1:
 E= -75.7639196540989     Delta-E=       -0.000000000063 Rises=F Damp=F
 DIIS: error= 2.04D-07 at cycle   4 NSaved=   4.
 NSaved= 4 IEnMin= 4 EnMin= -75.7639196540989     IErMin= 4 ErrMin= 2.04D-07
 ErrMax= 2.04D-07  0.00D+00 EMaxC= 1.00D-01 BMatC= 2.62D-12 BMatP= 1.96D-10
 IDIUse=1 WtCom= 1.00D+00 WtEn= 0.00D+00
 Coeff-Com:  0.277D-02-0.516D-01-0.113D+00 0.116D+01
 Coeff:      0.277D-02-0.516D-01-0.113D+00 0.116D+01
 Gap=     0.369 Goal=   None    Shift=    0.000
 Gap=     0.149 Goal=   None    Shift=    0.000
 RMSDP=3.06D-08 MaxDP=5.92D-07 DE=-6.25D-11 OVMax= 1.32D-06

 Cycle  11  Pass 1  IDiag  1:
 E= -75.7639196541007     Delta-E=       -0.000000000002 Rises=F Damp=F
 DIIS: error= 4.66D-08 at cycle   5 NSaved=   5.
 NSaved= 5 IEnMin= 5 EnMin= -75.7639196541007     IErMin= 5 ErrMin= 4.66D-08
 ErrMax= 4.66D-08  0.00D+00 EMaxC= 1.00D-01 BMatC= 1.84D-13 BMatP= 2.62D-12
 IDIUse=1 WtCom= 1.00D+00 WtEn= 0.00D+00
 Coeff-Com:  0.138D-01-0.270D-01-0.636D-01 0.205D+00 0.871D+00
 Coeff:      0.138D-01-0.270D-01-0.636D-01 0.205D+00 0.871D+00
 Gap=     0.369 Goal=   None    Shift=    0.000
 Gap=     0.149 Goal=   None    Shift=    0.000
 RMSDP=4.46D-09 MaxDP=8.13D-08 DE=-1.82D-12 OVMax= 1.54D-07

 SCF Done:  E(UB3LYP) =  -75.7639196541     A.U. after   11 cycles
            NFock= 11  Conv=0.45D-08     -V/T= 2.0052
 <Sx>= 0.0000 <Sy>= 0.0000 <Sz>= 0.5000 <S**2>= 0.7523 S= 0.5011
 <L.S>=  0.00000000000    
 KE= 7.536967306252D+01 PE=-1.879552744672D+02 EE= 3.254660470404D+01
 Annihilation of the first spin contaminant:
 S**2 before annihilation     0.7523,   after     0.7500
 Leave Link  502 at Wed Feb 23 16:41:41 2022, MaxMem= 17179869184 cpu:               7.5 elap:               0.4
 (Enter /home/saurabh/gaussian/g16/l801.exe)
 DoSCS=F DFT=T ScalE2(SS,OS)=  1.000000  1.000000
 Range of M.O.s used for correlation:     1    44
 NBasis=    44 NAE=     5 NBE=     4 NFC=     0 NFV=     0
 NROrb=     44 NOA=     5 NOB=     4 NVA=    39 NVB=    40
 Leave Link  801 at Wed Feb 23 16:41:41 2022, MaxMem= 17179869184 cpu:               0.4 elap:               0.0
 (Enter /home/saurabh/gaussian/g16/l1101.exe)
 Using compressed storage, NAtomX=     2.
 Will process      3 centers per pass.
 Leave Link 1101 at Wed Feb 23 16:41:41 2022, MaxMem= 17179869184 cpu:               3.2 elap:               0.2
 (Enter /home/saurabh/gaussian/g16/l1102.exe)
 Symmetrizing basis deriv contribution to polar:
 IMax=3 JMax=2 DiffMx= 0.00D+00
 Leave Link 1102 at Wed Feb 23 16:41:41 2022, MaxMem= 17179869184 cpu:               0.4 elap:               0.0
 (Enter /home/saurabh/gaussian/g16/l1110.exe)
 Forming Gx(P) for the SCF density, NAtomX=     2.
 Integral derivatives from FoFJK, PRISM(SPDF).
 Do as many integral derivatives as possible in FoFJK.
 G2DrvN: MDV=   17179868854.
 G2DrvN: will do     3 centers at a time, making    1 passes.
 Calling FoFCou, ICntrl=  3107 FMM=F I1Cent=   0 AccDes= 0.00D+00.
 FoFJK:  IHMeth= 1 ICntrl=    3107 DoSepK=F KAlg= 0 I1Cent=           0 FoldK=F
 IRaf=         0 NMat=       1 IRICut=       1 DoRegI=T DoRafI=F ISym2E= 1 IDoP0=0 IntGTp=1.
 FoFCou: FMM=F IPFlag=           0 FMFlag=      100000 FMFlg1=           0
         NFxFlg=           0 DoJE=F BraDBF=F KetDBF=F FulRan=T
         wScrn=  0.000000 ICntrl=      3107 IOpCl=  1 I1Cent=           0 NGrid=           0
         NMat0=    1 NMatS0=      1 NMatT0=    0 NMatD0=    1 NMtDS0=    0 NMtDT0=    0
 Petite list used in FoFCou.
 End of G2Drv F.D. properties file   721 does not exist.
 End of G2Drv F.D. properties file   722 does not exist.
 End of G2Drv F.D. properties file   788 does not exist.
 Leave Link 1110 at Wed Feb 23 16:41:42 2022, MaxMem= 17179869184 cpu:              10.6 elap:               0.5
 (Enter /home/saurabh/gaussian/g16/l1002.exe)
 Minotr:  UHF open shell wavefunction.
          IDoAtm=11
          Direct CPHF calculation.
          Differentiating once with respect to nuclear coordinates.
          Using symmetry in CPHF.
          Requested convergence is 1.0D-08 RMS, and 1.0D-07 maximum.
          Secondary convergence is 1.0D-12 RMS, and 1.0D-12 maximum.
          NewPWx=T KeepS1=F KeepF1=F KeepIn=T MapXYZ=F SortEE=F KeepMc=T.
          590 words used for storage of precomputed grid.
 Keep R1 and R2 ints in memory in symmetry-blocked form, NReq=19617747.
 FoFCou: FMM=F IPFlag=           0 FMFlag=           0 FMFlg1=           0
         NFxFlg=           0 DoJE=F BraDBF=F KetDBF=F FulRan=T
         wScrn=  0.000000 ICntrl=       600 IOpCl=  0 I1Cent=           0 NGrid=           0
         NMat0=    1 NMatS0=    990 NMatT0=    0 NMatD0=    1 NMtDS0=    0 NMtDT0=    0
 Petite list used in FoFCou.
          MDV=   17179869184 using IRadAn=       1.
          Solving linear equations simultaneously, MaxMat=       0.
          There are     9 degrees of freedom in the 1st order CPHF.  IDoFFX=6 NUNeed=     0.
      3 vectors produced by pass  0 Test12= 3.94D-15 1.11D-08 XBig12= 6.78D-02 1.84D-01.
 AX will form     3 AO Fock derivatives at one time.
      3 vectors produced by pass  1 Test12= 3.94D-15 1.11D-08 XBig12= 1.16D-02 4.73D-02.
      3 vectors produced by pass  2 Test12= 3.94D-15 1.11D-08 XBig12= 1.72D-03 1.98D-02.
      3 vectors produced by pass  3 Test12= 3.94D-15 1.11D-08 XBig12= 6.92D-05 3.41D-03.
      3 vectors produced by pass  4 Test12= 3.94D-15 1.11D-08 XBig12= 3.25D-06 8.36D-04.
      3 vectors produced by pass  5 Test12= 3.94D-15 1.11D-08 XBig12= 4.42D-08 8.68D-05.
      3 vectors produced by pass  6 Test12= 3.94D-15 1.11D-08 XBig12= 2.81D-10 8.08D-06.
      2 vectors produced by pass  7 Test12= 3.94D-15 1.11D-08 XBig12= 3.61D-12 7.58D-07.
      1 vectors produced by pass  8 Test12= 3.94D-15 1.11D-08 XBig12= 1.64D-14 4.82D-08.
 InvSVY:  IOpt=1 It=  1 EMax= 2.22D-16
 Solved reduced A of dimension    24 with     3 vectors.
 End of Minotr F.D. properties file   721 does not exist.
 End of Minotr F.D. properties file   722 does not exist.
 End of Minotr F.D. properties file   788 does not exist.
 Leave Link 1002 at Wed Feb 23 16:41:42 2022, MaxMem= 17179869184 cpu:               7.9 elap:               0.4
 (Enter /home/saurabh/gaussian/g16/l601.exe)
 Copying SCF densities to generalized density rwf, IOpCl= 1 IROHF=0.

 **********************************************************************

            Population analysis using the SCF Density.

 **********************************************************************

 Orbital symmetries:
 Alpha Orbitals:
       Occupied  (SG) (SG) (SG) (PI) (PI)
       Virtual   (SG) (SG) (SG) (PI) (PI) (PI) (PI) (SG) (?A) (?A)
                 (?A) (PI) (PI) (?A) (SG) (DLTA) (DLTA) (?B) (?B)
                 (?B) (?B) (SG) (PI) (PI) (SG) (SG) (PHI) (PHI)
                 (DLTA) (DLTA) (?C) (?C) (PI) (PI) (SG) (PI) (PI)
                 (?C) (SG)
 Beta  Orbitals:
       Occupied  (SG) (SG) (SG) (?A)
       Virtual   (?A) (SG) (SG) (SG) (?A) (?A) (PI) (PI) (SG) (SG)
                 (DLTA) (DLTA) (PI) (PI) (SG) (SG) (DLTA) (DLTA)
                 (PI) (PI) (PI) (PI) (SG) (PI) (PI) (SG) (SG) (PHI)
                 (PHI) (DLTA) (DLTA) (DLTA) (DLTA) (PI) (PI) (SG)
                 (PI) (PI) (SG) (SG)
 Unable to determine electronic state:  an orbital has unidentified symmetry.
 Alpha  occ. eigenvalues --  -19.19764  -1.01341  -0.47486  -0.41621  -0.34335
 Alpha virt. eigenvalues --    0.02549   0.35813   0.51802   0.52637   0.56174
 Alpha virt. eigenvalues --    0.68688   0.70254   0.87669   1.22898   1.42001
 Alpha virt. eigenvalues --    1.42046   1.72026   1.75866   1.89095   2.41058
 Alpha virt. eigenvalues --    3.17859   3.17874   3.30107   3.33838   3.60071
 Alpha virt. eigenvalues --    3.62783   3.65347   4.00855   4.04286   4.25878
 Alpha virt. eigenvalues --    4.66357   5.06842   5.06868   5.31904   5.31975
 Alpha virt. eigenvalues --    6.13512   6.13559   6.21948   6.27609   6.31004
 Alpha virt. eigenvalues --    6.52440   6.57060   6.94163   9.98285
  Beta  occ. eigenvalues --  -19.17225  -0.94257  -0.44968  -0.31778
  Beta virt. eigenvalues --   -0.16914   0.03229   0.36402   0.52613   0.57197
  Beta virt. eigenvalues --    0.59860   0.70161   0.70184   0.90587   1.23981
  Beta virt. eigenvalues --    1.47218   1.47814   1.76480   1.77044   1.90475
  Beta virt. eigenvalues --    2.41688   3.18358   3.18421   3.34474   3.35896
  Beta virt. eigenvalues --    3.63096   3.64114   3.65755   4.04899   4.05533
  Beta virt. eigenvalues --    4.28031   4.69303   5.13903   5.14202   5.36479
  Beta virt. eigenvalues --    5.36983   6.22837   6.24277   6.29009   6.31002
  Beta virt. eigenvalues --    6.33516   6.57805   6.58385   6.97120  10.01809
          Condensed to atoms (all electrons):
               1          2
     1  O    7.933628   0.306841
     2  H    0.306841   0.452691
          Atomic-Atomic Spin Densities.
               1          2
     1  O    1.013680   0.002431
     2  H    0.002431  -0.018542
 Mulliken charges and spin densities:
               1          2
     1  O   -0.240468   1.016111
     2  H    0.240468  -0.016111
 Sum of Mulliken charges =   0.00000   1.00000
 Mulliken charges and spin densities with hydrogens summed into heavy atoms:
               1          2
     1  O    0.000000   1.000000
 APT charges:
               1
     1  O   -0.408389
     2  H    0.408389
 Sum of APT charges =   0.00000
 APT charges with hydrogens summed into heavy atoms:
               1
     1  O    0.000000
 Electronic spatial extent (au):  <R**2>=             15.4192
 Charge=              0.0000 electrons
 Dipole moment (field-independent basis, Debye):
    X=             -0.0000    Y=              0.0000    Z=             -1.6949  Tot=              1.6949
 Quadrupole moment (field-independent basis, Debye-Ang):
   XX=             -6.6116   YY=             -5.4077   ZZ=             -4.5333
   XY=             -0.0000   XZ=              0.0000   YZ=              0.0000
 Traceless Quadrupole moment (field-independent basis, Debye-Ang):
   XX=             -1.0940   YY=              0.1098   ZZ=              0.9842
   XY=             -0.0000   XZ=              0.0000   YZ=              0.0000
 Octapole moment (field-independent basis, Debye-Ang**2):
  XXX=              0.0000  YYY=              0.0000  ZZZ=             -1.9200  XYY=              0.0000
  XXY=              0.0000  XXZ=             -0.2199  XZZ=              0.0000  YZZ=              0.0000
  YYZ=             -0.1378  XYZ=             -0.0000
 Hexadecapole moment (field-independent basis, Debye-Ang**3):
 XXXX=             -5.2056 YYYY=             -3.6401 ZZZZ=             -5.3261 XXXY=             -0.0000
 XXXZ=             -0.0000 YYYX=             -0.0000 YYYZ=              0.0000 ZZZX=              0.0000
 ZZZY=              0.0000 XXYY=             -1.4741 XXZZ=             -2.0363 YYZZ=             -1.7486
 XXYZ=              0.0000 YYXZ=             -0.0000 ZZXY=             -0.0000
 N-N= 4.275077046582D+00 E-N=-1.879552744737D+02  KE= 7.536967306252D+01
 Symmetry A1   KE= 6.803784014981D+01
 Symmetry A2   KE= 1.452079833647D-30
 Symmetry B1   KE= 4.797530445433D+00
 Symmetry B2   KE= 2.534302467272D+00
 Symmetry A1   SP=-2.282446649051D-15
 Symmetry A2   SP= 1.739783243432D-32
 Symmetry B1   SP= 2.813109447561D-15
 Symmetry B2   SP= 1.000000000000D+00
  Exact polarizability:       0.000       0.000       0.000       0.000       0.000       0.000
 Approx polarizability:       4.371      -0.000       4.515       0.000      -0.000       9.371
                          Isotropic Fermi Contact Couplings
        Atom                 a.u.       MegaHertz       Gauss      10(-4) cm-1
     1  O(17)              0.01293      -7.83843      -2.79695      -2.61462
     2  H(1)              -0.01447     -64.68176     -23.08006     -21.57551
 --------------------------------------------------------
       Center         ----  Spin Dipole Couplings  ----
                      3XX-RR        3YY-RR        3ZZ-RR
 --------------------------------------------------------
     1   Atom       -1.974391      3.898588     -1.924197
     2   Atom       -0.128648     -0.031457      0.160105
 --------------------------------------------------------
                        XY            XZ            YZ
 --------------------------------------------------------
     1   Atom       -0.000000      0.000000     -0.000000
     2   Atom       -0.000000      0.000000      0.000000
 --------------------------------------------------------


 ---------------------------------------------------------------------------------
              Anisotropic Spin Dipole Couplings in Principal Axis System
 ---------------------------------------------------------------------------------

       Atom             a.u.   MegaHertz   Gauss  10(-4) cm-1        Axes

              Baa    -1.9744   142.866    50.978    47.655  1.0000 -0.0000  0.0000
     1 O(17)  Bbb    -1.9242   139.234    49.682    46.443  0.0000  0.0000  1.0000
              Bcc     3.8986  -282.099  -100.660   -94.098  0.0000  1.0000 -0.0000
 
              Baa    -0.1286   -68.641   -24.493   -22.896  1.0000  0.0000 -0.0000
     2 H(1)   Bbb    -0.0315   -16.784    -5.989    -5.598 -0.0000  1.0000 -0.0000
              Bcc     0.1601    85.425    30.482    28.495  0.0000  0.0000  1.0000
 

 ---------------------------------------------------------------------------------

 No NMR shielding tensors so no spin-rotation constants.
 Leave Link  601 at Wed Feb 23 16:41:42 2022, MaxMem= 17179869184 cpu:               5.3 elap:               0.3
 (Enter /home/saurabh/gaussian/g16/l701.exe)
 ... and contract with generalized density number  0.
 Compute integral second derivatives.
 Leave Link  701 at Wed Feb 23 16:41:43 2022, MaxMem= 17179869184 cpu:               4.3 elap:               0.2
 (Enter /home/saurabh/gaussian/g16/l702.exe)
 L702 exits ... SP integral derivatives will be done elsewhere.
 Leave Link  702 at Wed Feb 23 16:41:43 2022, MaxMem= 17179869184 cpu:               0.4 elap:               0.0
 (Enter /home/saurabh/gaussian/g16/l703.exe)
 Integral derivatives from FoFJK, PRISM(SPDF).
 Compute integral second derivatives, UseDBF=F ICtDFT=           0.
 Calling FoFJK, ICntrl=    100127 FMM=F ISym2X=1 I1Cent= 0 IOpClX= 1 NMat=1 NMatS=1 NMatT=0.
 FoFJK:  IHMeth= 1 ICntrl=  100127 DoSepK=F KAlg= 0 I1Cent=           0 FoldK=F
 IRaf=         0 NMat=       1 IRICut=       1 DoRegI=T DoRafI=F ISym2E= 1 IDoP0=0 IntGTp=1.
 FoFCou: FMM=F IPFlag=           0 FMFlag=      100000 FMFlg1=         800
         NFxFlg=           0 DoJE=F BraDBF=F KetDBF=F FulRan=T
         wScrn=  0.000000 ICntrl=    100127 IOpCl=  1 I1Cent=           0 NGrid=           0
         NMat0=    1 NMatS0=      1 NMatT0=    0 NMatD0=    1 NMtDS0=    0 NMtDT0=    0
 Petite list used in FoFCou.
 Leave Link  703 at Wed Feb 23 16:41:44 2022, MaxMem= 17179869184 cpu:              20.1 elap:               0.9
 (Enter /home/saurabh/gaussian/g16/l716.exe)
 Dipole        =-2.13764031D-17 9.83204904D-18-6.66809138D-01
 Polarizability= 0.00000000D+00 0.00000000D+00 0.00000000D+00
                 0.00000000D+00 0.00000000D+00 0.00000000D+00
 ***** Axes restored to original set *****
 -------------------------------------------------------------------
 Center     Atomic                   Forces (Hartrees/Bohr)
 Number     Number              X              Y              Z
 -------------------------------------------------------------------
      1        8          -0.005652674   -0.002723480   -0.012209015
      2        1           0.005652674    0.002723480    0.012209015
 -------------------------------------------------------------------
 Cartesian Forces:  Max     0.012209015 RMS     0.007925279
 Force constants in Cartesian coordinates: 
                1             2             3             4             5 
      1  0.806970D-01
      2  0.353455D-01  0.243862D-01
      3  0.158454D+00  0.763391D-01  0.349574D+00
      4 -0.806970D-01 -0.353455D-01 -0.158454D+00  0.806970D-01
      5 -0.353455D-01 -0.243862D-01 -0.763391D-01  0.353455D-01  0.243862D-01
      6 -0.158454D+00 -0.763391D-01 -0.349574D+00  0.158454D+00  0.763391D-01
                6 
      6  0.349574D+00
 FormGI is forming the generalized inverse of G from B-inverse, IUseBI=4.
 Force constants in internal coordinates: 
                1 
      1  0.439966D+00
 Leave Link  716 at Wed Feb 23 16:41:44 2022, MaxMem= 17179869184 cpu:               0.5 elap:               0.0
 (Enter /home/saurabh/gaussian/g16/l103.exe)

 GradGradGradGradGradGradGradGradGradGradGradGradGradGradGradGradGradGrad
 Berny optimization.
 Red2BG is reusing G-inverse.
 Internal  Forces:  Max     0.013726985 RMS     0.013726985
 Search for a local minimum.
 Step number   1 out of a maximum of  100
 All quantities printed in internal units (Hartrees-Bohrs-Radians)
 RMS Force = .13727D-01 SwitMx=.10000D-02 MixMth= 1
 Mixed Optimization -- RFO/linear search
 Second derivative matrix not updated -- analytic derivatives used.
 The second derivative matrix:
                          R1
           R1           0.43997
 ITU=  0
     Eigenvalues ---    0.43997
 RFO step:  Lambda=-4.27867725D-04 EMin= 4.39965526D-01
 Linear search not attempted -- first point.
 Iteration  1 RMS(Cart)=  0.02204039 RMS(Int)=  0.00000000
 Iteration  2 RMS(Cart)=  0.00000000 RMS(Int)=  0.00000000
 ITry= 1 IFail=0 DXMaxC= 1.39D-02 DCOld= 1.00D+10 DXMaxT= 3.00D-01 DXLimC= 3.00D+00 Rises=F
 ClnCor:  largest displacement from symmetrization is 1.64D-15 for atom     2.
 Variable       Old X    -DE/DX   Delta X   Delta X   Delta X     New X
                                 (Linear)    (Quad)   (Total)
    R1        1.87131  -0.01373   0.00000  -0.03117  -0.03117   1.84014
         Item               Value     Threshold  Converged?
 Maximum Force            0.013727     0.000450     NO 
 RMS     Force            0.013727     0.000300     NO 
 Maximum Displacement     0.013861     0.001800     NO 
 RMS     Displacement     0.022040     0.001200     NO 
 Predicted change in Energy=-2.141417D-04
 Lowest energy point so far.  Saving SCF results.
 GradGradGradGradGradGradGradGradGradGradGradGradGradGradGradGradGradGrad

 Leave Link  103 at Wed Feb 23 16:41:44 2022, MaxMem= 17179869184 cpu:               0.2 elap:               0.0
 (Enter /home/saurabh/gaussian/g16/l202.exe)
                          Input orientation:                          
 ---------------------------------------------------------------------
 Center     Atomic      Atomic             Coordinates (Angstroms)
 Number     Number       Type             X           Y           Z
 ---------------------------------------------------------------------
      1          8           0       -1.863116    0.034034    0.137115
      2          1           0       -2.264104   -0.159164   -0.728965
 ---------------------------------------------------------------------
 Stoichiometry    HO(2)
 Framework group  C*V[C*(HO)]
 Deg. of freedom     1
 Full point group                 C*V     NOp   4
 RotChk:  IX=0 Diff= 4.00D-16
 Largest Abelian subgroup         C2V     NOp   4
 Largest concise Abelian subgroup C1      NOp   1
                         Standard orientation:                         
 ---------------------------------------------------------------------
 Center     Atomic      Atomic             Coordinates (Angstroms)
 Number     Number       Type             X           Y           Z
 ---------------------------------------------------------------------
      1          8           0       -0.000000   -0.000000    0.108196
      2          1           0        0.000000    0.000000   -0.865565
 ---------------------------------------------------------------------
 Rotational constants (GHZ):           0.0000000         562.1656946         562.1656946
 Leave Link  202 at Wed Feb 23 16:41:44 2022, MaxMem= 17179869184 cpu:               0.2 elap:               0.0
 (Enter /home/saurabh/gaussian/g16/l301.exe)
 Standard basis: CC-pVTZ+d (5D, 7F)
 Ernie: Thresh=  0.10000D-02 Tol=  0.10000D-05 Strict=F.
 Ernie:  3 primitive shells out of 34 were deleted.
 There are    24 symmetry adapted cartesian basis functions of A1  symmetry.
 There are     4 symmetry adapted cartesian basis functions of A2  symmetry.
 There are    11 symmetry adapted cartesian basis functions of B1  symmetry.
 There are    11 symmetry adapted cartesian basis functions of B2  symmetry.
 There are    20 symmetry adapted basis functions of A1  symmetry.
 There are     4 symmetry adapted basis functions of A2  symmetry.
 There are    10 symmetry adapted basis functions of B1  symmetry.
 There are    10 symmetry adapted basis functions of B2  symmetry.
    44 basis functions,    69 primitive gaussians,    50 cartesian basis functions
     5 alpha electrons        4 beta electrons
       nuclear repulsion energy         4.3474918069 Hartrees.
 IExCor=  402 DFT=T Ex+Corr=B3LYP ExCW=0 ScaHFX=  0.200000
 ScaDFX=  0.800000  0.720000  1.000000  0.810000 ScalE2=  1.000000  1.000000
 IRadAn=      5 IRanWt=     -1 IRanGd=            0 ICorTp=0 IEmpDi=  4
 NAtoms=    2 NActive=    2 NUniq=    2 SFac= 1.00D+00 NAtFMM=   60 NAOKFM=F Big=F
 Integral buffers will be    131072 words long.
 Raffenetti 2 integral format.
 Two-electron integral symmetry is turned on.
 Leave Link  301 at Wed Feb 23 16:41:44 2022, MaxMem= 17179869184 cpu:               1.1 elap:               0.1
 (Enter /home/saurabh/gaussian/g16/l302.exe)
 NPDir=0 NMtPBC=     1 NCelOv=     1 NCel=       1 NClECP=     1 NCelD=      1
         NCelK=      1 NCelE2=     1 NClLst=     1 CellRange=     0.0.
 One-electron integrals computed using PRISM.
 One-electron integral symmetry used in STVInt
 NBasis=    44 RedAO= T EigKep=  4.14D-03  NBF=    20     4    10    10
 NBsUse=    44 1.00D-06 EigRej= -1.00D+00 NBFU=    20     4    10    10
 Precomputing XC quadrature grid using
 IXCGrd= 4 IRadAn=           5 IRanWt=          -1 IRanGd=           0 AccXCQ= 0.00D+00.
 Generated NRdTot=       0 NPtTot=           0 NUsed=           0 NTot=          32
 NSgBfM=    50    50    50    50    50 MxSgAt=     2 MxSgA2=     2.
 Leave Link  302 at Wed Feb 23 16:41:44 2022, MaxMem= 17179869184 cpu:               2.8 elap:               0.2
 (Enter /home/saurabh/gaussian/g16/l303.exe)
 DipDrv:  MaxL=1.
 Leave Link  303 at Wed Feb 23 16:41:44 2022, MaxMem= 17179869184 cpu:               0.5 elap:               0.0
 (Enter /home/saurabh/gaussian/g16/l401.exe)
 Initial guess from the checkpoint file:  "OH_w1u.chk"
 B after Tr=    -0.000000    0.000000    0.000000
         Rot=    1.000000   -0.000000    0.000000   -0.000000 Ang=   0.00 deg.
 Guess basis will be translated and rotated to current coordinates.
 JPrj=2 DoOrth=T DoCkMO=T.
 Initial guess orbital symmetries:
 Alpha Orbitals:
       Occupied  (SG) (SG) (SG) (PI) (PI)
       Virtual   (SG) (SG) (SG) (PI) (PI) (PI) (PI) (SG) (?A) (?A)
                 (?A) (PI) (PI) (?A) (SG) (DLTA) (DLTA) (?B) (?B)
                 (?B) (?B) (SG) (PI) (PI) (SG) (SG) (PHI) (PHI)
                 (DLTA) (DLTA) (?C) (?C) (PI) (PI) (SG) (PI) (PI)
                 (?C) (SG)
 Beta  Orbitals:
       Occupied  (SG) (SG) (SG) (?A)
       Virtual   (?A) (SG) (SG) (SG) (?A) (?A) (PI) (PI) (SG) (SG)
                 (DLTA) (DLTA) (PI) (PI) (SG) (SG) (DLTA) (DLTA)
                 (PI) (PI) (PI) (PI) (SG) (PI) (PI) (SG) (SG) (PHI)
                 (PHI) (DLTA) (DLTA) (DLTA) (DLTA) (PI) (PI) (SG)
                 (PI) (PI) (SG) (SG)
 Initial guess <Sx>= 0.0000 <Sy>= 0.0000 <Sz>= 0.5000 <S**2>= 0.7522 S= 0.5011
 Leave Link  401 at Wed Feb 23 16:41:44 2022, MaxMem= 17179869184 cpu:               1.5 elap:               0.1
 (Enter /home/saurabh/gaussian/g16/l502.exe)
 Keep R1 and R2 ints in memory in symmetry-blocked form, NReq=19692805.
 FoFCou: FMM=F IPFlag=           0 FMFlag=           0 FMFlg1=           0
         NFxFlg=           0 DoJE=F BraDBF=F KetDBF=F FulRan=T
         wScrn=  0.000000 ICntrl=       600 IOpCl=  0 I1Cent=           0 NGrid=           0
         NMat0=    1 NMatS0=    990 NMatT0=    0 NMatD0=    1 NMtDS0=    0 NMtDT0=    0
 Petite list used in FoFCou.
 UHF open shell SCF:
 Using DIIS extrapolation, IDIIS=  1040.
 NGot= 17179869184 LenX= 17179601110 LenY= 17179598169
 Requested convergence on RMS density matrix=1.00D-08 within1000 cycles.
 Requested convergence on MAX density matrix=1.00D-06.
 Requested convergence on             energy=1.00D-06.
 No special actions if energy rises.

 Cycle   1  Pass 1  IDiag  1:
 E= -75.7640524364316    
 DIIS: error= 2.35D-03 at cycle   1 NSaved=   1.
 NSaved= 1 IEnMin= 1 EnMin= -75.7640524364316     IErMin= 1 ErrMin= 2.35D-03
 ErrMax= 2.35D-03  0.00D+00 EMaxC= 1.00D-01 BMatC= 3.68D-04 BMatP= 3.68D-04
 IDIUse=3 WtCom= 9.77D-01 WtEn= 2.35D-02
 Coeff-Com:  0.100D+01
 Coeff-En:   0.100D+01
 Coeff:      0.100D+01
 Gap=     0.388 Goal=   None    Shift=    0.000
 Gap=     0.150 Goal=   None    Shift=    0.000
 GapD=    0.150 DampG=1.000 DampE=1.000 DampFc=1.0000 IDamp=-1.
 RMSDP=1.63D-04 MaxDP=1.44D-03              OVMax= 5.06D-03

 Cycle   2  Pass 1  IDiag  1:
 E= -75.7641175260417     Delta-E=       -0.000065089610 Rises=F Damp=F
 DIIS: error= 6.55D-04 at cycle   2 NSaved=   2.
 NSaved= 2 IEnMin= 2 EnMin= -75.7641175260417     IErMin= 2 ErrMin= 6.55D-04
 ErrMax= 6.55D-04  0.00D+00 EMaxC= 1.00D-01 BMatC= 4.86D-05 BMatP= 3.68D-04
 IDIUse=3 WtCom= 9.93D-01 WtEn= 6.55D-03
 Coeff-Com:  0.180D+00 0.820D+00
 Coeff-En:   0.000D+00 0.100D+01
 Coeff:      0.179D+00 0.821D+00
 Gap=     0.372 Goal=   None    Shift=    0.000
 Gap=     0.149 Goal=   None    Shift=    0.000
 RMSDP=6.00D-05 MaxDP=1.15D-03 DE=-6.51D-05 OVMax= 1.42D-03

 Cycle   3  Pass 1  IDiag  1:
 E= -75.7641211143988     Delta-E=       -0.000003588357 Rises=F Damp=F
 DIIS: error= 4.76D-04 at cycle   3 NSaved=   3.
 NSaved= 3 IEnMin= 3 EnMin= -75.7641211143988     IErMin= 3 ErrMin= 4.76D-04
 ErrMax= 4.76D-04  0.00D+00 EMaxC= 1.00D-01 BMatC= 2.64D-05 BMatP= 4.86D-05
 IDIUse=3 WtCom= 9.95D-01 WtEn= 4.76D-03
 Coeff-Com:  0.128D-01 0.422D+00 0.566D+00
 Coeff-En:   0.000D+00 0.348D+00 0.652D+00
 Coeff:      0.127D-01 0.421D+00 0.566D+00
 Gap=     0.373 Goal=   None    Shift=    0.000
 Gap=     0.149 Goal=   None    Shift=    0.000
 RMSDP=2.79D-05 MaxDP=4.37D-04 DE=-3.59D-06 OVMax= 8.23D-04

 Cycle   4  Pass 1  IDiag  1:
 E= -75.7641253443770     Delta-E=       -0.000004229978 Rises=F Damp=F
 DIIS: error= 6.27D-05 at cycle   4 NSaved=   4.
 NSaved= 4 IEnMin= 4 EnMin= -75.7641253443770     IErMin= 4 ErrMin= 6.27D-05
 ErrMax= 6.27D-05  0.00D+00 EMaxC= 1.00D-01 BMatC= 3.58D-07 BMatP= 2.64D-05
 IDIUse=1 WtCom= 1.00D+00 WtEn= 0.00D+00
 Coeff-Com: -0.575D-02 0.802D-01 0.169D+00 0.757D+00
 Coeff:     -0.575D-02 0.802D-01 0.169D+00 0.757D+00
 Gap=     0.373 Goal=   None    Shift=    0.000
 Gap=     0.149 Goal=   None    Shift=    0.000
 RMSDP=4.59D-06 MaxDP=7.61D-05 DE=-4.23D-06 OVMax= 1.28D-04

 Cycle   5  Pass 1  IDiag  1:
 E= -75.7641254111855     Delta-E=       -0.000000066809 Rises=F Damp=F
 DIIS: error= 8.75D-06 at cycle   5 NSaved=   5.
 NSaved= 5 IEnMin= 5 EnMin= -75.7641254111855     IErMin= 5 ErrMin= 8.75D-06
 ErrMax= 8.75D-06  0.00D+00 EMaxC= 1.00D-01 BMatC= 3.47D-09 BMatP= 3.58D-07
 IDIUse=1 WtCom= 1.00D+00 WtEn= 0.00D+00
 Coeff-Com: -0.229D-03-0.844D-02-0.122D-01 0.389D-01 0.982D+00
 Coeff:     -0.229D-03-0.844D-02-0.122D-01 0.389D-01 0.982D+00
 Gap=     0.373 Goal=   None    Shift=    0.000
 Gap=     0.149 Goal=   None    Shift=    0.000
 RMSDP=6.60D-07 MaxDP=1.29D-05 DE=-6.68D-08 OVMax= 3.17D-05

 Cycle   6  Pass 1  IDiag  1:
 E= -75.7641254124532     Delta-E=       -0.000000001268 Rises=F Damp=F
 DIIS: error= 1.90D-06 at cycle   6 NSaved=   6.
 NSaved= 6 IEnMin= 6 EnMin= -75.7641254124532     IErMin= 6 ErrMin= 1.90D-06
 ErrMax= 1.90D-06  0.00D+00 EMaxC= 1.00D-01 BMatC= 2.04D-10 BMatP= 3.47D-09
 IDIUse=1 WtCom= 1.00D+00 WtEn= 0.00D+00
 Coeff-Com:  0.273D-03 0.315D-03-0.675D-03-0.415D-01-0.379D+00 0.142D+01
 Coeff:      0.273D-03 0.315D-03-0.675D-03-0.415D-01-0.379D+00 0.142D+01
 Gap=     0.373 Goal=   None    Shift=    0.000
 Gap=     0.149 Goal=   None    Shift=    0.000
 RMSDP=2.88D-07 MaxDP=4.60D-06 DE=-1.27D-09 OVMax= 1.11D-05

 Cycle   7  Pass 1  IDiag  1:
 E= -75.7641254126040     Delta-E=       -0.000000000151 Rises=F Damp=F
 DIIS: error= 2.47D-07 at cycle   7 NSaved=   7.
 NSaved= 7 IEnMin= 7 EnMin= -75.7641254126040     IErMin= 7 ErrMin= 2.47D-07
 ErrMax= 2.47D-07  0.00D+00 EMaxC= 1.00D-01 BMatC= 3.54D-12 BMatP= 2.04D-10
 IDIUse=1 WtCom= 1.00D+00 WtEn= 0.00D+00
 Coeff-Com: -0.188D-04 0.390D-03 0.537D-03 0.150D-02-0.114D-01-0.111D+00
 Coeff-Com:  0.112D+01
 Coeff:     -0.188D-04 0.390D-03 0.537D-03 0.150D-02-0.114D-01-0.111D+00
 Coeff:      0.112D+01
 Gap=     0.373 Goal=   None    Shift=    0.000
 Gap=     0.149 Goal=   None    Shift=    0.000
 RMSDP=3.66D-08 MaxDP=6.27D-07 DE=-1.51D-10 OVMax= 1.64D-06

 Cycle   8  Pass 1  IDiag  1:
 E= -75.7641254126062     Delta-E=       -0.000000000002 Rises=F Damp=F
 DIIS: error= 3.30D-08 at cycle   8 NSaved=   8.
 NSaved= 8 IEnMin= 8 EnMin= -75.7641254126062     IErMin= 8 ErrMin= 3.30D-08
 ErrMax= 3.30D-08  0.00D+00 EMaxC= 1.00D-01 BMatC= 6.41D-14 BMatP= 3.54D-12
 IDIUse=1 WtCom= 1.00D+00 WtEn= 0.00D+00
 Coeff-Com: -0.277D-05 0.180D-04 0.432D-04 0.869D-03 0.330D-02-0.157D-01
 Coeff-Com: -0.423D-03 0.101D+01
 Coeff:     -0.277D-05 0.180D-04 0.432D-04 0.869D-03 0.330D-02-0.157D-01
 Coeff:     -0.423D-03 0.101D+01
 Gap=     0.373 Goal=   None    Shift=    0.000
 Gap=     0.149 Goal=   None    Shift=    0.000
 RMSDP=2.36D-09 MaxDP=4.60D-08 DE=-2.23D-12 OVMax= 7.08D-08

 SCF Done:  E(UB3LYP) =  -75.7641254126     A.U. after    8 cycles
            NFock=  8  Conv=0.24D-08     -V/T= 2.0049
 <Sx>= 0.0000 <Sy>= 0.0000 <Sz>= 0.5000 <S**2>= 0.7522 S= 0.5011
 <L.S>=  0.00000000000    
 KE= 7.539774377623D+01 PE=-1.881105985446D+02 EE= 3.260123754883D+01
 Annihilation of the first spin contaminant:
 S**2 before annihilation     0.7522,   after     0.7500
 Leave Link  502 at Wed Feb 23 16:41:45 2022, MaxMem= 17179869184 cpu:               8.7 elap:               0.4
 (Enter /home/saurabh/gaussian/g16/l701.exe)
 ... and contract with generalized density number  0.
 Compute integral first derivatives.
 Leave Link  701 at Wed Feb 23 16:41:45 2022, MaxMem= 17179869184 cpu:               3.1 elap:               0.2
 (Enter /home/saurabh/gaussian/g16/l702.exe)
 L702 exits ... SP integral derivatives will be done elsewhere.
 Leave Link  702 at Wed Feb 23 16:41:45 2022, MaxMem= 17179869184 cpu:               0.4 elap:               0.0
 (Enter /home/saurabh/gaussian/g16/l703.exe)
 Integral derivatives from FoFJK, PRISM(SPDF).
 Compute integral first derivatives, UseDBF=F ICtDFT=           0.
 Calling FoFJK, ICntrl=      2127 FMM=F ISym2X=1 I1Cent= 0 IOpClX= 1 NMat=1 NMatS=1 NMatT=0.
 FoFJK:  IHMeth= 1 ICntrl=    2127 DoSepK=F KAlg= 0 I1Cent=           0 FoldK=F
 IRaf=         0 NMat=       1 IRICut=       1 DoRegI=T DoRafI=F ISym2E= 1 IDoP0=0 IntGTp=1.
 FoFCou: FMM=F IPFlag=           0 FMFlag=      100000 FMFlg1=         800
         NFxFlg=           0 DoJE=F BraDBF=F KetDBF=F FulRan=T
         wScrn=  0.000000 ICntrl=      2127 IOpCl=  1 I1Cent=           0 NGrid=           0
         NMat0=    1 NMatS0=      1 NMatT0=    0 NMatD0=    1 NMtDS0=    0 NMtDT0=    0
 Petite list used in FoFCou.
 Leave Link  703 at Wed Feb 23 16:41:45 2022, MaxMem= 17179869184 cpu:               8.3 elap:               0.4
 (Enter /home/saurabh/gaussian/g16/l716.exe)
 Dipole        = 1.52399316D-16 4.19924276D-17-6.63994694D-01
 ***** Axes restored to original set *****
 -------------------------------------------------------------------
 Center     Atomic                   Forces (Hartrees/Bohr)
 Number     Number              X              Y              Z
 -------------------------------------------------------------------
      1        8           0.000329748    0.000158874    0.000712212
      2        1          -0.000329748   -0.000158874   -0.000712212
 -------------------------------------------------------------------
 Cartesian Forces:  Max     0.000712212 RMS     0.000462321
 Leave Link  716 at Wed Feb 23 16:41:45 2022, MaxMem= 17179869184 cpu:               0.4 elap:               0.0
 (Enter /home/saurabh/gaussian/g16/l103.exe)

 GradGradGradGradGradGradGradGradGradGradGradGradGradGradGradGradGradGrad
 Berny optimization.
 Using GEDIIS/GDIIS optimizer.
 Red2BG is reusing G-inverse.
 Internal  Forces:  Max     0.000800763 RMS     0.000800763
 Search for a local minimum.
 Step number   2 out of a maximum of  100
 All quantities printed in internal units (Hartrees-Bohrs-Radians)
 RMS Force = .80076D-03 SwitMx=.10000D-02 MixMth= 2
 Mixed Optimization -- En-DIIS/RFO-DIIS
 Update second derivatives using D2CorX and points    1    2
 DE= -2.06D-04 DEPred=-2.14D-04 R= 9.61D-01
 TightC=F SS=  1.41D+00  RLast= 3.12D-02 DXNew= 5.0454D-01 9.3509D-02
 Trust test= 9.61D-01 RLast= 3.12D-02 DXMaxT set to 3.00D-01
 The second derivative matrix:
                          R1
           R1           0.46608
 ITU=  1  0
 Use linear search instead of GDIIS.
     Eigenvalues ---    0.46608
 RFO step:  Lambda= 0.00000000D+00 EMin= 4.66083721D-01
 Quartic linear search produced a step of -0.05227.
 Iteration  1 RMS(Cart)=  0.00115205 RMS(Int)=  0.00000000
 Iteration  2 RMS(Cart)=  0.00000000 RMS(Int)=  0.00000000
 ITry= 1 IFail=0 DXMaxC= 7.25D-04 DCOld= 1.00D+10 DXMaxT= 3.00D-01 DXLimC= 3.00D+00 Rises=F
 ClnCor:  largest displacement from symmetrization is 9.16D-16 for atom     2.
 Variable       Old X    -DE/DX   Delta X   Delta X   Delta X     New X
                                 (Linear)    (Quad)   (Total)
    R1        1.84014   0.00080   0.00163  -0.00000   0.00163   1.84177
         Item               Value     Threshold  Converged?
 Maximum Force            0.000801     0.000450     NO 
 RMS     Force            0.000801     0.000300     NO 
 Maximum Displacement     0.000725     0.001800     YES
 RMS     Displacement     0.001152     0.001200     YES
 Predicted change in Energy=-6.860439D-07
 Lowest energy point so far.  Saving SCF results.
 GradGradGradGradGradGradGradGradGradGradGradGradGradGradGradGradGradGrad

 Leave Link  103 at Wed Feb 23 16:41:45 2022, MaxMem= 17179869184 cpu:               0.2 elap:               0.0
 (Enter /home/saurabh/gaussian/g16/l202.exe)
                          Input orientation:                          
 ---------------------------------------------------------------------
 Center     Atomic      Atomic             Coordinates (Angstroms)
 Number     Number       Type             X           Y           Z
 ---------------------------------------------------------------------
      1          8           0       -1.862939    0.034119    0.137498
      2          1           0       -2.264281   -0.159249   -0.729348
 ---------------------------------------------------------------------
 Stoichiometry    HO(2)
 Framework group  C*V[C*(HO)]
 Deg. of freedom     1
 Full point group                 C*V     NOp   4
 RotChk:  IX=0 Diff= 3.83D-16
 Largest Abelian subgroup         C2V     NOp   4
 Largest concise Abelian subgroup C1      NOp   1
                         Standard orientation:                         
 ---------------------------------------------------------------------
 Center     Atomic      Atomic             Coordinates (Angstroms)
 Number     Number       Type             X           Y           Z
 ---------------------------------------------------------------------
      1          8           0       -0.000000   -0.000000    0.108291
      2          1           0        0.000000    0.000000   -0.866332
 ---------------------------------------------------------------------
 Rotational constants (GHZ):           0.0000000         561.1715385         561.1715385
 Leave Link  202 at Wed Feb 23 16:41:45 2022, MaxMem= 17179869184 cpu:               0.3 elap:               0.0
 (Enter /home/saurabh/gaussian/g16/l301.exe)
 Standard basis: CC-pVTZ+d (5D, 7F)
 Ernie: Thresh=  0.10000D-02 Tol=  0.10000D-05 Strict=F.
 Ernie:  3 primitive shells out of 34 were deleted.
 There are    24 symmetry adapted cartesian basis functions of A1  symmetry.
 There are     4 symmetry adapted cartesian basis functions of A2  symmetry.
 There are    11 symmetry adapted cartesian basis functions of B1  symmetry.
 There are    11 symmetry adapted cartesian basis functions of B2  symmetry.
 There are    20 symmetry adapted basis functions of A1  symmetry.
 There are     4 symmetry adapted basis functions of A2  symmetry.
 There are    10 symmetry adapted basis functions of B1  symmetry.
 There are    10 symmetry adapted basis functions of B2  symmetry.
    44 basis functions,    69 primitive gaussians,    50 cartesian basis functions
     5 alpha electrons        4 beta electrons
       nuclear repulsion energy         4.3436459677 Hartrees.
 IExCor=  402 DFT=T Ex+Corr=B3LYP ExCW=0 ScaHFX=  0.200000
 ScaDFX=  0.800000  0.720000  1.000000  0.810000 ScalE2=  1.000000  1.000000
 IRadAn=      5 IRanWt=     -1 IRanGd=            0 ICorTp=0 IEmpDi=  4
 NAtoms=    2 NActive=    2 NUniq=    2 SFac= 1.00D+00 NAtFMM=   60 NAOKFM=F Big=F
 Integral buffers will be    131072 words long.
 Raffenetti 2 integral format.
 Two-electron integral symmetry is turned on.
 Leave Link  301 at Wed Feb 23 16:41:46 2022, MaxMem= 17179869184 cpu:               1.3 elap:               0.1
 (Enter /home/saurabh/gaussian/g16/l302.exe)
 NPDir=0 NMtPBC=     1 NCelOv=     1 NCel=       1 NClECP=     1 NCelD=      1
         NCelK=      1 NCelE2=     1 NClLst=     1 CellRange=     0.0.
 One-electron integrals computed using PRISM.
 One-electron integral symmetry used in STVInt
 NBasis=    44 RedAO= T EigKep=  4.15D-03  NBF=    20     4    10    10
 NBsUse=    44 1.00D-06 EigRej= -1.00D+00 NBFU=    20     4    10    10
 Precomputing XC quadrature grid using
 IXCGrd= 4 IRadAn=           5 IRanWt=          -1 IRanGd=           0 AccXCQ= 0.00D+00.
 Generated NRdTot=       0 NPtTot=           0 NUsed=           0 NTot=          32
 NSgBfM=    50    50    50    50    50 MxSgAt=     2 MxSgA2=     2.
 Leave Link  302 at Wed Feb 23 16:41:46 2022, MaxMem= 17179869184 cpu:               3.0 elap:               0.2
 (Enter /home/saurabh/gaussian/g16/l303.exe)
 DipDrv:  MaxL=1.
 Leave Link  303 at Wed Feb 23 16:41:46 2022, MaxMem= 17179869184 cpu:               0.5 elap:               0.0
 (Enter /home/saurabh/gaussian/g16/l401.exe)
 Initial guess from the checkpoint file:  "OH_w1u.chk"
 B after Tr=    -0.000000   -0.000000   -0.000000
         Rot=    1.000000    0.000000   -0.000000    0.000000 Ang=   0.00 deg.
 Guess basis will be translated and rotated to current coordinates.
 JPrj=2 DoOrth=T DoCkMO=T.
 Initial guess orbital symmetries:
 Alpha Orbitals:
       Occupied  (SG) (SG) (SG) (PI) (PI)
       Virtual   (SG) (SG) (SG) (PI) (PI) (PI) (PI) (SG) (?A) (?A)
                 (?A) (PI) (PI) (?A) (SG) (DLTA) (DLTA) (?B) (?B)
                 (?B) (?B) (SG) (PI) (PI) (SG) (SG) (PHI) (PHI)
                 (DLTA) (DLTA) (?C) (?C) (PI) (PI) (SG) (PI) (PI)
                 (?C) (SG)
 Beta  Orbitals:
       Occupied  (SG) (SG) (SG) (?A)
       Virtual   (?A) (SG) (SG) (SG) (?A) (?A) (PI) (PI) (SG) (SG)
                 (DLTA) (DLTA) (PI) (PI) (SG) (SG) (DLTA) (DLTA)
                 (PI) (PI) (PI) (PI) (SG) (PI) (PI) (SG) (SG) (PHI)
                 (PHI) (DLTA) (DLTA) (DLTA) (DLTA) (PI) (PI) (SG)
                 (PI) (PI) (SG) (SG)
 Initial guess <Sx>= 0.0000 <Sy>= 0.0000 <Sz>= 0.5000 <S**2>= 0.7522 S= 0.5011
 Leave Link  401 at Wed Feb 23 16:41:46 2022, MaxMem= 17179869184 cpu:               1.7 elap:               0.1
 (Enter /home/saurabh/gaussian/g16/l502.exe)
 Keep R1 and R2 ints in memory in symmetry-blocked form, NReq=19692805.
 FoFCou: FMM=F IPFlag=           0 FMFlag=           0 FMFlg1=           0
         NFxFlg=           0 DoJE=F BraDBF=F KetDBF=F FulRan=T
         wScrn=  0.000000 ICntrl=       600 IOpCl=  0 I1Cent=           0 NGrid=           0
         NMat0=    1 NMatS0=    990 NMatT0=    0 NMatD0=    1 NMtDS0=    0 NMtDT0=    0
 Petite list used in FoFCou.
 UHF open shell SCF:
 Using DIIS extrapolation, IDIIS=  1040.
 NGot= 17179869184 LenX= 17179601110 LenY= 17179598169
 Requested convergence on RMS density matrix=1.00D-08 within1000 cycles.
 Requested convergence on MAX density matrix=1.00D-06.
 Requested convergence on             energy=1.00D-06.
 No special actions if energy rises.

 Cycle   1  Pass 1  IDiag  1:
 E= -75.7641258599004    
 DIIS: error= 1.26D-04 at cycle   1 NSaved=   1.
 NSaved= 1 IEnMin= 1 EnMin= -75.7641258599004     IErMin= 1 ErrMin= 1.26D-04
 ErrMax= 1.26D-04  0.00D+00 EMaxC= 1.00D-01 BMatC= 1.05D-06 BMatP= 1.05D-06
 IDIUse=3 WtCom= 9.99D-01 WtEn= 1.26D-03
 Coeff-Com:  0.100D+01
 Coeff-En:   0.100D+01
 Coeff:      0.100D+01
 Gap=     0.373 Goal=   None    Shift=    0.000
 Gap=     0.149 Goal=   None    Shift=    0.000
 RMSDP=8.62D-06 MaxDP=7.60D-05              OVMax= 2.64D-04

 Cycle   2  Pass 1  IDiag  1:
 E= -75.7641260431234     Delta-E=       -0.000000183223 Rises=F Damp=F
 DIIS: error= 3.37D-05 at cycle   2 NSaved=   2.
 NSaved= 2 IEnMin= 2 EnMin= -75.7641260431234     IErMin= 2 ErrMin= 3.37D-05
 ErrMax= 3.37D-05  0.00D+00 EMaxC= 1.00D-01 BMatC= 1.29D-07 BMatP= 1.05D-06
 IDIUse=1 WtCom= 1.00D+00 WtEn= 0.00D+00
 Coeff-Com:  0.172D+00 0.828D+00
 Coeff:      0.172D+00 0.828D+00
 Gap=     0.373 Goal=   None    Shift=    0.000
 Gap=     0.149 Goal=   None    Shift=    0.000
 RMSDP=3.10D-06 MaxDP=5.96D-05 DE=-1.83D-07 OVMax= 7.37D-05

 Cycle   3  Pass 1  IDiag  1:
 E= -75.7641260523949     Delta-E=       -0.000000009272 Rises=F Damp=F
 DIIS: error= 2.48D-05 at cycle   3 NSaved=   3.
 NSaved= 3 IEnMin= 3 EnMin= -75.7641260523949     IErMin= 3 ErrMin= 2.48D-05
 ErrMax= 2.48D-05  0.00D+00 EMaxC= 1.00D-01 BMatC= 7.15D-08 BMatP= 1.29D-07
 IDIUse=1 WtCom= 1.00D+00 WtEn= 0.00D+00
 Coeff-Com:  0.126D-01 0.424D+00 0.563D+00
 Coeff:      0.126D-01 0.424D+00 0.563D+00
 Gap=     0.373 Goal=   None    Shift=    0.000
 Gap=     0.149 Goal=   None    Shift=    0.000
 RMSDP=1.46D-06 MaxDP=2.29D-05 DE=-9.27D-09 OVMax= 4.27D-05

 Cycle   4  Pass 1  IDiag  1:
 E= -75.7641260638317     Delta-E=       -0.000000011437 Rises=F Damp=F
 DIIS: error= 3.33D-06 at cycle   4 NSaved=   4.
 NSaved= 4 IEnMin= 4 EnMin= -75.7641260638317     IErMin= 4 ErrMin= 3.33D-06
 ErrMax= 3.33D-06  0.00D+00 EMaxC= 1.00D-01 BMatC= 1.02D-09 BMatP= 7.15D-08
 IDIUse=1 WtCom= 1.00D+00 WtEn= 0.00D+00
 Coeff-Com: -0.560D-02 0.821D-01 0.171D+00 0.753D+00
 Coeff:     -0.560D-02 0.821D-01 0.171D+00 0.753D+00
 Gap=     0.373 Goal=   None    Shift=    0.000
 Gap=     0.149 Goal=   None    Shift=    0.000
 RMSDP=2.43D-07 MaxDP=4.02D-06 DE=-1.14D-08 OVMax= 6.77D-06

 Cycle   5  Pass 1  IDiag  1:
 E= -75.7641260640219     Delta-E=       -0.000000000190 Rises=F Damp=F
 DIIS: error= 4.54D-07 at cycle   5 NSaved=   5.
 NSaved= 5 IEnMin= 5 EnMin= -75.7641260640219     IErMin= 5 ErrMin= 4.54D-07
 ErrMax= 4.54D-07  0.00D+00 EMaxC= 1.00D-01 BMatC= 9.43D-12 BMatP= 1.02D-09
 IDIUse=1 WtCom= 1.00D+00 WtEn= 0.00D+00
 Coeff-Com: -0.249D-03-0.828D-02-0.115D-01 0.402D-01 0.980D+00
 Coeff:     -0.249D-03-0.828D-02-0.115D-01 0.402D-01 0.980D+00
 Gap=     0.373 Goal=   None    Shift=    0.000
 Gap=     0.149 Goal=   None    Shift=    0.000
 RMSDP=3.41D-08 MaxDP=6.67D-07 DE=-1.90D-10 OVMax= 1.64D-06

 Cycle   6  Pass 1  IDiag  1:
 E= -75.7641260640253     Delta-E=       -0.000000000003 Rises=F Damp=F
 DIIS: error= 9.75D-08 at cycle   6 NSaved=   6.
 NSaved= 6 IEnMin= 6 EnMin= -75.7641260640253     IErMin= 6 ErrMin= 9.75D-08
 ErrMax= 9.75D-08  0.00D+00 EMaxC= 1.00D-01 BMatC= 5.44D-13 BMatP= 9.43D-12
 IDIUse=1 WtCom= 1.00D+00 WtEn= 0.00D+00
 Coeff-Com:  0.270D-03 0.224D-03-0.900D-03-0.404D-01-0.371D+00 0.141D+01
 Coeff:      0.270D-03 0.224D-03-0.900D-03-0.404D-01-0.371D+00 0.141D+01
 Gap=     0.373 Goal=   None    Shift=    0.000
 Gap=     0.149 Goal=   None    Shift=    0.000
 RMSDP=1.48D-08 MaxDP=2.38D-07 DE=-3.42D-12 OVMax= 5.73D-07

 Cycle   7  Pass 1  IDiag  1:
 E= -75.7641260640257     Delta-E=       -0.000000000000 Rises=F Damp=F
 DIIS: error= 1.33D-08 at cycle   7 NSaved=   7.
 NSaved= 7 IEnMin= 7 EnMin= -75.7641260640257     IErMin= 7 ErrMin= 1.33D-08
 ErrMax= 1.33D-08  0.00D+00 EMaxC= 1.00D-01 BMatC= 1.05D-14 BMatP= 5.44D-13
 IDIUse=1 WtCom= 1.00D+00 WtEn= 0.00D+00
 Coeff-Com: -0.169D-04 0.404D-03 0.550D-03 0.107D-02-0.145D-01-0.111D+00
 Coeff-Com:  0.112D+01
 Coeff:     -0.169D-04 0.404D-03 0.550D-03 0.107D-02-0.145D-01-0.111D+00
 Coeff:      0.112D+01
 Gap=     0.373 Goal=   None    Shift=    0.000
 Gap=     0.149 Goal=   None    Shift=    0.000
 RMSDP=2.03D-09 MaxDP=3.53D-08 DE=-3.27D-13 OVMax= 9.14D-08

 SCF Done:  E(UB3LYP) =  -75.7641260640     A.U. after    7 cycles
            NFock=  7  Conv=0.20D-08     -V/T= 2.0049
 <Sx>= 0.0000 <Sy>= 0.0000 <Sz>= 0.5000 <S**2>= 0.7522 S= 0.5011
 <L.S>=  0.00000000000    
 KE= 7.539623253821D+01 PE=-1.881023533561D+02 EE= 3.259834878609D+01
 Annihilation of the first spin contaminant:
 S**2 before annihilation     0.7522,   after     0.7500
 Leave Link  502 at Wed Feb 23 16:41:46 2022, MaxMem= 17179869184 cpu:               6.5 elap:               0.3
 (Enter /home/saurabh/gaussian/g16/l701.exe)
 ... and contract with generalized density number  0.
 Compute integral first derivatives.
 Leave Link  701 at Wed Feb 23 16:41:46 2022, MaxMem= 17179869184 cpu:               3.2 elap:               0.2
 (Enter /home/saurabh/gaussian/g16/l702.exe)
 L702 exits ... SP integral derivatives will be done elsewhere.
 Leave Link  702 at Wed Feb 23 16:41:46 2022, MaxMem= 17179869184 cpu:               0.5 elap:               0.0
 (Enter /home/saurabh/gaussian/g16/l703.exe)
 Integral derivatives from FoFJK, PRISM(SPDF).
 Compute integral first derivatives, UseDBF=F ICtDFT=           0.
 Calling FoFJK, ICntrl=      2127 FMM=F ISym2X=1 I1Cent= 0 IOpClX= 1 NMat=1 NMatS=1 NMatT=0.
 FoFJK:  IHMeth= 1 ICntrl=    2127 DoSepK=F KAlg= 0 I1Cent=           0 FoldK=F
 IRaf=         0 NMat=       1 IRICut=       1 DoRegI=T DoRafI=F ISym2E= 1 IDoP0=0 IntGTp=1.
 FoFCou: FMM=F IPFlag=           0 FMFlag=      100000 FMFlg1=         800
         NFxFlg=           0 DoJE=F BraDBF=F KetDBF=F FulRan=T
         wScrn=  0.000000 ICntrl=      2127 IOpCl=  1 I1Cent=           0 NGrid=           0
         NMat0=    1 NMatS0=      1 NMatT0=    0 NMatD0=    1 NMtDS0=    0 NMtDT0=    0
 Petite list used in FoFCou.
 Leave Link  703 at Wed Feb 23 16:41:47 2022, MaxMem= 17179869184 cpu:               9.2 elap:               0.4
 (Enter /home/saurabh/gaussian/g16/l716.exe)
 Dipole        = 3.32684585D-17 1.51721659D-17-6.64144282D-01
 ***** Axes restored to original set *****
 -------------------------------------------------------------------
 Center     Atomic                   Forces (Hartrees/Bohr)
 Number     Number              X              Y              Z
 -------------------------------------------------------------------
      1        8          -0.000000129   -0.000000062   -0.000000279
      2        1           0.000000129    0.000000062    0.000000279
 -------------------------------------------------------------------
 Cartesian Forces:  Max     0.000000279 RMS     0.000000181
 Leave Link  716 at Wed Feb 23 16:41:47 2022, MaxMem= 17179869184 cpu:               0.5 elap:               0.0
 (Enter /home/saurabh/gaussian/g16/l103.exe)

 GradGradGradGradGradGradGradGradGradGradGradGradGradGradGradGradGradGrad
 Berny optimization.
 Using GEDIIS/GDIIS optimizer.
 Red2BG is reusing G-inverse.
 Internal  Forces:  Max     0.000000314 RMS     0.000000314
 Search for a local minimum.
 Step number   3 out of a maximum of  100
 All quantities printed in internal units (Hartrees-Bohrs-Radians)
 RMS Force = .31417D-06 SwitMx=.10000D-02 MixMth= 2
 Mixed Optimization -- En-DIIS/RFO-DIIS
 Swapping is turned off.
 Update second derivatives using D2CorX and points    2    3
 DE= -6.51D-07 DEPred=-6.86D-07 R= 9.50D-01
 Trust test= 9.50D-01 RLast= 1.63D-03 DXMaxT set to 3.00D-01
 The second derivative matrix:
                          R1
           R1           0.49168
 ITU=  0  1
     Eigenvalues ---    0.49168
 En-DIIS/RFO-DIIS/Sim-DIIS IScMMF=       -3 using points:     3    2
 RFO step:  Lambda=-2.00756078D-13.
 NNeg= 0 NGDIIS= 2 SimSw=  2.50D-03 Rises=F DC= -6.51D-07 SmlDif=  1.00D-05
 NRisDI= 0 DoIntr=F SqrtH=F CThrHd= 10.0 CDAdj=  3.0
 RMS Error=  0.6389719576D-06 NUsed= 2 OKEnD=F EnDIS=F
 InvSVX:  RCond= 2.99D-06 Info=           0 Equed=N FErr=  8.89D-16 BErr=  4.75D-17
 DidBck=F Rises=F RFO-DIIS coefs:    0.99961    0.00039
 Iteration  1 RMS(Cart)=  0.00000045 RMS(Int)=  0.00000000
 ITry= 1 IFail=0 DXMaxC= 2.84D-07 DCOld= 1.00D+10 DXMaxT= 3.00D-01 DXLimC= 3.00D+00 Rises=F
 ClnCor:  largest displacement from symmetrization is 4.58D-16 for atom     2.
 Variable       Old X    -DE/DX   Delta X   Delta X   Delta X     New X
                                 (Linear)    (Quad)   (Total)
    R1        1.84177  -0.00000  -0.00000   0.00000  -0.00000   1.84177
         Item               Value     Threshold  Converged?
 Maximum Force            0.000000     0.000450     YES
 RMS     Force            0.000000     0.000300     YES
 Maximum Displacement     0.000000     0.001800     YES
 RMS     Displacement     0.000000     0.001200     YES
 Predicted change in Energy=-1.003737D-13
 Optimization completed.
    -- Stationary point found.
                           ----------------------------
                           !   Optimized Parameters   !
                           ! (Angstroms and Degrees)  !
 --------------------------                            --------------------------
 ! Name  Definition              Value          Derivative Info.                !
 --------------------------------------------------------------------------------
 ! R1    R(1,2)                  0.9746         -DE/DX =    0.0                 !
 --------------------------------------------------------------------------------
 Lowest energy point so far.  Saving SCF results.
 Largest change from initial coordinates is atom    2       0.014 Angstoms.
 GradGradGradGradGradGradGradGradGradGradGradGradGradGradGradGradGradGrad

 Leave Link  103 at Wed Feb 23 16:41:47 2022, MaxMem= 17179869184 cpu:               0.2 elap:               0.0
 (Enter /home/saurabh/gaussian/g16/l202.exe)
                          Input orientation:                          
 ---------------------------------------------------------------------
 Center     Atomic      Atomic             Coordinates (Angstroms)
 Number     Number       Type             X           Y           Z
 ---------------------------------------------------------------------
      1          8           0       -1.862939    0.034119    0.137498
      2          1           0       -2.264281   -0.159249   -0.729348
 ---------------------------------------------------------------------
 Stoichiometry    HO(2)
 Framework group  C*V[C*(HO)]
 Deg. of freedom     1
 Full point group                 C*V     NOp   4
 RotChk:  IX=0 Diff= 2.03D-16
 Largest Abelian subgroup         C2V     NOp   4
 Largest concise Abelian subgroup C1      NOp   1
                         Standard orientation:                         
 ---------------------------------------------------------------------
 Center     Atomic      Atomic             Coordinates (Angstroms)
 Number     Number       Type             X           Y           Z
 ---------------------------------------------------------------------
      1          8           0        0.000000    0.000000    0.108291
      2          1           0       -0.000000   -0.000000   -0.866332
 ---------------------------------------------------------------------
 Rotational constants (GHZ):           0.0000000         561.1715385         561.1715385
 Leave Link  202 at Wed Feb 23 16:41:47 2022, MaxMem= 17179869184 cpu:               0.3 elap:               0.0
 (Enter /home/saurabh/gaussian/g16/l601.exe)
 Copying SCF densities to generalized density rwf, IOpCl= 1 IROHF=0.

 **********************************************************************

            Population analysis using the SCF Density.

 **********************************************************************

 Orbital symmetries:
 Alpha Orbitals:
       Occupied  (SG) (SG) (SG) (PI) (PI)
       Virtual   (SG) (SG) (SG) (PI) (PI) (PI) (PI) (SG) (?A) (?A)
                 (?A) (PI) (PI) (?A) (SG) (DLTA) (DLTA) (?B) (?B)
                 (?B) (?B) (SG) (PI) (PI) (SG) (SG) (PHI) (PHI)
                 (DLTA) (DLTA) (?C) (?C) (PI) (PI) (SG) (PI) (PI)
                 (?C) (SG)
 Beta  Orbitals:
       Occupied  (SG) (SG) (SG) (?A)
       Virtual   (?A) (SG) (SG) (SG) (?A) (?A) (PI) (PI) (SG) (SG)
                 (DLTA) (DLTA) (PI) (PI) (SG) (SG) (DLTA) (DLTA)
                 (PI) (PI) (PI) (PI) (SG) (PI) (PI) (SG) (SG) (PHI)
                 (PHI) (DLTA) (DLTA) (DLTA) (DLTA) (PI) (PI) (SG)
                 (PI) (PI) (SG) (SG)
 Unable to determine electronic state:  an orbital has unidentified symmetry.
 Alpha  occ. eigenvalues --  -19.19657  -1.01758  -0.47719  -0.41689  -0.34404
 Alpha virt. eigenvalues --    0.02855   0.36641   0.51599   0.52711   0.56264
 Alpha virt. eigenvalues --    0.68843   0.70418   0.87158   1.24662   1.41937
 Alpha virt. eigenvalues --    1.41983   1.72762   1.76605   1.87808   2.42338
 Alpha virt. eigenvalues --    3.18299   3.18315   3.30898   3.34648   3.59808
 Alpha virt. eigenvalues --    3.62603   3.67164   4.02618   4.06020   4.30345
 Alpha virt. eigenvalues --    4.65531   5.06775   5.06801   5.33621   5.33689
 Alpha virt. eigenvalues --    6.13520   6.13558   6.25285   6.31085   6.34467
 Alpha virt. eigenvalues --    6.54944   6.59411   6.96713  10.12177
  Beta  occ. eigenvalues --  -19.17123  -0.94713  -0.45171  -0.31850
  Beta virt. eigenvalues --   -0.16987   0.03518   0.37265   0.52395   0.57299
  Beta virt. eigenvalues --    0.59982   0.70329   0.70336   0.90026   1.25809
  Beta virt. eigenvalues --    1.47155   1.47752   1.77216   1.77773   1.89200
  Beta virt. eigenvalues --    2.43020   3.18861   3.18927   3.35289   3.36705
  Beta virt. eigenvalues --    3.62978   3.64061   3.67568   4.06613   4.07192
  Beta virt. eigenvalues --    4.32624   4.68476   5.13836   5.14135   5.38188
  Beta virt. eigenvalues --    5.38692   6.22828   6.24267   6.32541   6.34693
  Beta virt. eigenvalues --    6.36964   6.60081   6.60475   6.99590  10.15682
          Condensed to atoms (all electrons):
               1          2
     1  O    7.923560   0.310980
     2  H    0.310980   0.454480
          Atomic-Atomic Spin Densities.
               1          2
     1  O    1.011652   0.002617
     2  H    0.002617  -0.016885
 Mulliken charges and spin densities:
               1          2
     1  O   -0.234540   1.014268
     2  H    0.234540  -0.014268
 Sum of Mulliken charges =   0.00000   1.00000
 Mulliken charges and spin densities with hydrogens summed into heavy atoms:
               1          2
     1  O    0.000000   1.000000
 Electronic spatial extent (au):  <R**2>=             15.3186
 Charge=              0.0000 electrons
 Dipole moment (field-independent basis, Debye):
    X=             -0.0000    Y=             -0.0000    Z=             -1.6881  Tot=              1.6881
 Quadrupole moment (field-independent basis, Debye-Ang):
   XX=             -6.5955   YY=             -5.3924   ZZ=             -4.5606
   XY=              0.0000   XZ=             -0.0000   YZ=              0.0000
 Traceless Quadrupole moment (field-independent basis, Debye-Ang):
   XX=             -1.0793   YY=              0.1238   ZZ=              0.9555
   XY=              0.0000   XZ=             -0.0000   YZ=              0.0000
 Octapole moment (field-independent basis, Debye-Ang**2):
  XXX=              0.0000  YYY=             -0.0000  ZZZ=             -1.8855  XYY=              0.0000
  XXY=             -0.0000  XXZ=             -0.2290  XZZ=              0.0000  YZZ=             -0.0000
  YYZ=             -0.1495  XYZ=              0.0000
 Hexadecapole moment (field-independent basis, Debye-Ang**3):
 XXXX=             -5.1843 YYYY=             -3.6209 ZZZZ=             -5.2720 XXXY=              0.0000
 XXXZ=              0.0000 YYYX=              0.0000 YYYZ=              0.0000 ZZZX=             -0.0000
 ZZZY=              0.0000 XXYY=             -1.4674 XXZZ=             -2.0081 YYZZ=             -1.7214
 XXYZ=              0.0000 YYXZ=              0.0000 ZZXY=              0.0000
 N-N= 4.343645967736D+00 E-N=-1.881023533270D+02  KE= 7.539623253821D+01
 Symmetry A1   KE= 6.806688268238D+01
 Symmetry A2   KE= 4.344660482207D-31
 Symmetry B1   KE= 4.796105146342D+00
 Symmetry B2   KE= 2.533244709495D+00
 Symmetry A1   SP= 4.834471807405D-15
 Symmetry A2   SP= 6.555086138886D-33
 Symmetry B1   SP= 3.665141118398D-15
 Symmetry B2   SP= 1.000000000000D+00
                          Isotropic Fermi Contact Couplings
        Atom                 a.u.       MegaHertz       Gauss      10(-4) cm-1
     1  O(17)              0.01260      -7.63548      -2.72453      -2.54692
     2  H(1)              -0.01426     -63.75427     -22.74911     -21.26614
 --------------------------------------------------------
       Center         ----  Spin Dipole Couplings  ----
                      3XX-RR        3YY-RR        3ZZ-RR
 --------------------------------------------------------
     1   Atom       -1.970693      3.898455     -1.927761
     2   Atom       -0.133587     -0.030375      0.163963
 --------------------------------------------------------
                        XY            XZ            YZ
 --------------------------------------------------------
     1   Atom        0.000000      0.000000     -0.000000
     2   Atom        0.000000     -0.000000     -0.000000
 --------------------------------------------------------


 ---------------------------------------------------------------------------------
              Anisotropic Spin Dipole Couplings in Principal Axis System
 ---------------------------------------------------------------------------------

       Atom             a.u.   MegaHertz   Gauss  10(-4) cm-1        Axes

              Baa    -1.9707   142.598    50.883    47.566  1.0000 -0.0000  0.0000
     1 O(17)  Bbb    -1.9278   139.491    49.774    46.529  0.0000  0.0000  1.0000
              Bcc     3.8985  -282.089  -100.657   -94.095  0.0000  1.0000 -0.0000
 
              Baa    -0.1336   -71.276   -25.433   -23.775  1.0000  0.0000  0.0000
     2 H(1)   Bbb    -0.0304   -16.207    -5.783    -5.406  0.0000  1.0000  0.0000
              Bcc     0.1640    87.483    31.216    29.181 -0.0000 -0.0000  1.0000
 

 ---------------------------------------------------------------------------------

 No NMR shielding tensors so no spin-rotation constants.
 Leave Link  601 at Wed Feb 23 16:41:47 2022, MaxMem= 17179869184 cpu:               5.1 elap:               0.3
 (Enter /home/saurabh/gaussian/g16/l9999.exe)
 Unable to Open any file for archive entry.
 1\1\GINC-MEDIAWIKI\FOpt\UB3LYP\CC-pVTZ+d\H1O1(2)\SAURABH\23-Feb-2022\0
 \\#p w1u scf(verytight, maxcycles=1000) opt(calcfc, maxcyc=1000) int(g
 rid=ultrafine)\\OH_w1u\\0,2\O,-1.8629386135,0.0341192594,0.1374982275\
 H,-2.2642813865,-0.1592492594,-0.7293482275\\Version=ES64L-G16RevC.01\
 HF=-75.7641261\S2=0.752211\S2-1=0.\S2A=0.750003\RMSD=2.026e-09\RMSF=1.
 814e-07\Dipole=-0.2734898,-0.1317685,-0.5907013\Quadrupole=-0.5442267,
 0.1147002,0.4295265,0.0857286,0.561761,0.0931932\PG=C*V [C*(H1O1)]\\@
 The archive entry for this job was punched.


 IT PROBABLY IS NOT POSSIBLE FOR A SCIENTIST TO INTERROGATE NATURE 
 FROM A WHOLLY DISINTERESTED VIEWPOINT.
 EVEN IF HE HAS NO PARTICULAR AXE TO GRIND, HE IS LIKELY TO HAVE 
 A DISTINCTIVE WAY OF VIEWING NATURE.

                                                   -- JOHN LOSEE
 Leave Link 9999 at Wed Feb 23 16:41:47 2022, MaxMem= 17179869184 cpu:               0.5 elap:               0.0
 Job cpu time:       0 days  0 hours  2 minutes 22.0 seconds.
 Elapsed time:       0 days  0 hours  0 minutes  7.6 seconds.
 File lengths (MBytes):  RWF=      6 Int=      0 D2E=      0 Chk=      1 Scr=      1
 Normal termination of Gaussian 16 at Wed Feb 23 16:41:47 2022.
 (Enter /home/saurabh/gaussian/g16/l1.exe)
 Link1:  Proceeding to internal job step number  2.
 -------------------------------------------------------------
 #P Geom=AllCheck Guess=TCheck SCRF=Check B3LYP/cc-pVTZ+d Freq
 -------------------------------------------------------------
 1/6=1000,10=4,29=7,30=1,38=1,40=1/1,3;
 2/12=2,40=1/2;
 3/5=16,6=1,7=9,11=2,14=-4,25=1,30=1,70=2,71=2,74=-5,75=-5,116=-2,140=1/1,2,3;
 4/5=101/1;
 5/5=2,7=1000,17=3,38=6,98=1/2;
 8/6=4,10=90,11=11/1;
 11/6=1,8=1,9=11,15=111,16=1/1,2,10;
 10/6=1/2;
 6/7=2,8=2,9=2,10=2,28=1/1;
 7/8=1,10=1,25=1/1,2,3,16;
 1/6=1000,10=4,30=1/3;
 99//99;
[...]
 ErrMax= 2.59D-07  0.00D+00 EMaxC= 1.00D-01 BMatC= 4.21D-12 BMatP= 5.07D-11
 IDIUse=1 WtCom= 1.00D+00 WtEn= 0.00D+00
 Coeff-Com: -0.337D-02 0.675D-02-0.670D-02-0.699D-02 0.636D-01-0.450D+00
 Coeff-Com:  0.140D+01
 Coeff:     -0.337D-02 0.675D-02-0.670D-02-0.699D-02 0.636D-01-0.450D+00
 Coeff:      0.140D+01
 Gap=     0.696 Goal=   None    Shift=    0.000
 Gap=     0.623 Goal=   None    Shift=    0.000
 RMSDP=2.09D-08 MaxDP=7.66D-07 DE=-3.40D-11 OVMax= 1.45D-06

 Cycle   8  Pass 1  IDiag  1:
 E= -75.4711284631896     Delta-E=       -0.000000000003 Rises=F Damp=F
 DIIS: error= 8.40D-08 at cycle   8 NSaved=   8.
 NSaved= 8 IEnMin= 8 EnMin= -75.4711284631896     IErMin= 8 ErrMin= 8.40D-08
 ErrMax= 8.40D-08  0.00D+00 EMaxC= 1.00D-01 BMatC= 4.93D-13 BMatP= 4.21D-12
 IDIUse=1 WtCom= 1.00D+00 WtEn= 0.00D+00
 Coeff-Com: -0.356D-03 0.712D-03-0.699D-03-0.948D-03-0.138D-02 0.134D+00
 Coeff-Com: -0.683D+00 0.155D+01
 Coeff:     -0.356D-03 0.712D-03-0.699D-03-0.948D-03-0.138D-02 0.134D+00
 Coeff:     -0.683D+00 0.155D+01
 Gap=     0.696 Goal=   None    Shift=    0.000
 Gap=     0.623 Goal=   None    Shift=    0.000
 RMSDP=6.51D-09 MaxDP=1.98D-07 DE=-2.93D-12 OVMax= 4.20D-07

 SCF Done:  E(UHF) =  -75.4711284632     A.U. after    8 cycles
            NFock=  8  Conv=0.65D-08     -V/T= 1.9957
 <Sx>= 0.0000 <Sy>= 0.0000 <Sz>= 0.5000 <S**2>= 0.7562 S= 0.5031
 <L.S>=  0.00000000000    
 KE= 7.579769615799D+01 PE=-1.885425360068D+02 EE= 3.293006541788D+01
 Annihilation of the first spin contaminant:
 S**2 before annihilation     0.7562,   after     0.7500
 Leave Link  502 at Wed Feb 23 16:42:10 2022, MaxMem= 17179869184 cpu:               6.2 elap:               0.3
 (Enter /home/saurabh/gaussian/g16/l801.exe)
 Windowed orbitals will be sorted by symmetry type.
 Range of M.O.s used for correlation:     1    75
 NBasis=    75 NAE=     5 NBE=     4 NFC=     0 NFV=     0
 NROrb=     75 NOA=     5 NOB=     4 NVA=    70 NVB=    71
 Leave Link  801 at Wed Feb 23 16:42:10 2022, MaxMem= 17179869184 cpu:               0.4 elap:               0.0
 (Enter /home/saurabh/gaussian/g16/l804.exe)
 Open-shell transformation, MDV= 17179869184 ITran=4 ISComp=2.
 Unit  1 TFree=        352845 TCopy=         69526.
 Semi-Direct transformation.
 ModeAB=           2 MOrb=             5 LenV=   17179530611
 LASXX=       264159 LTotXX=      264159 LenRXX=      264159
 LTotAB=      279846 MaxLAS=     1402875 LenRXY=     1402875
 NonZer=     1469625 LenScr=     2938880 LnRSAI=           0
 LnScr1=           0 LExtra=           0 Total=      4605914
 MaxDsk=          -1 SrtSym=           F ITran=            4
 DoSDTr:  NPSUse= 22
 JobTyp=1 Pass  1:  I=   1 to   5.
 (rs|ai) integrals will be sorted in core.
 Complete sort for first half transformation.
 First half transformation complete.
 Complete sort for second half transformation.
 Second half transformation complete.
 ModeAB=           2 MOrb=             4 LenV=   17179530611
 LASXX=       216029 LTotXX=      216029 LenRXX=     1122300
 LTotAB=      198781 MaxLAS=     1122300 LenRXY=      198781
 NonZer=     1175700 LenScr=     2357760 LnRSAI=           0
 LnScr1=           0 LExtra=           0 Total=      3678841
 MaxDsk=          -1 SrtSym=           F ITran=            4
 DoSDTr:  NPSUse= 22
 JobTyp=2 Pass  1:  I=   1 to   4.
 (rs|ai) integrals will be sorted in core.
 Complete sort for first half transformation.
 First half transformation complete.
 Complete sort for second half transformation.
 Second half transformation complete.
 Spin components of T(2) and E(2):
     alpha-alpha T2 =       0.7073784986D-02 E2=     -0.3734382059D-01
     alpha-beta  T2 =       0.3377770743D-01 E2=     -0.2073651201D+00
     beta-beta   T2 =       0.3557649172D-02 E2=     -0.1811492807D-01
 ANorm=    0.1021963376D+01
 E2 =    -0.2628238687D+00 EUMP2 =    -0.75733952331909D+02
 (S**2,0)=  0.75616D+00           (S**2,1)=  0.75082D+00
 E(PUHF)=      -0.75474407392D+02        E(PMP2)=      -0.75735812661D+02
 Leave Link  804 at Wed Feb 23 16:42:10 2022, MaxMem= 17179869184 cpu:              12.3 elap:               0.6
 (Enter /home/saurabh/gaussian/g16/l913.exe)
 CIDS:  MDV= 17179869184.
 IFCWin=0 IBDFC=1 NFBD=     0     0 NFCmp=     0     0 NFFFC=     0     0
 Using original routines for 1st iteration.
 Using DD4UQ or CC4UQ for 2nd and later iterations.
 Keep R2 and R3 ints in memory in symmetry-blocked form, NReq=13798427.
 FoFCou: FMM=F IPFlag=           0 FMFlag=           0 FMFlg1=           0
         NFxFlg=           0 DoJE=F BraDBF=F KetDBF=F FulRan=T
         wScrn=  0.000000 ICntrl=       600 IOpCl=  0 I1Cent=           0 NGrid=           0
         NMat0=    1 NMatS0=   2850 NMatT0=    0 NMatD0=    1 NMtDS0=    0 NMtDT0=    0
 Petite list used in FoFCou.
 CIDS: In Core Option IDoMem=           1.
 CCSD(T)
 =======
 Iterations=  50 Convergence= 0.100D-06
 Produce multiple copies of IABC intergrals
 Iteration Nr.   1
 **********************
 DD1Dir will call FoFMem   1 times, MxPair=        56
 NAB=    20 NAA=    10 NBB=     6.
 E(PMP3)=      -0.75747205149D+02
 MP4(R+Q)=  0.35018059D-02
 Maximum subspace dimension=  5
 A-vector RMS=  1.7847494D-03 Max=  5.0208050D-03 conv= 1.00D-05.
 RLE energy=       -0.2718544158
 E3=       -0.12266142D-01        EUMP3=      -0.75746218474D+02
 E4(DQ)=    0.18190637D-03        UMP4(DQ)=   -0.75746036568D+02
 E4(SDQ)=  -0.11414874D-02        UMP4(SDQ)=  -0.75747359962D+02
 VARIATIONAL ENERGIES WITH THE FIRST-ORDER WAVEFUNCTION:
 DE(Corr)= -0.27155444     E(Corr)=     -75.742682904    
 NORM(A)=   0.10242378D+01
 Iteration Nr.   2
 **********************
 DD1Dir will call FoFMem   1 times, MxPair=        56
 NAB=    20 NAA=    10 NBB=     6.
 A-vector RMS=  3.6486956D-04 Max=  2.3023048D-03 conv= 1.00D-05.
 RLE energy=       -0.2761637614
 DE(Corr)= -0.27544668     E(CORR)=     -75.746575145     Delta=-3.89D-03
 NORM(A)=   0.10257165D+01
 Iteration Nr.   3
 **********************
 DD1Dir will call FoFMem   1 times, MxPair=        56
 NAB=    20 NAA=    10 NBB=     6.
 A-vector RMS=  1.6643737D-04 Max=  1.2489658D-03 conv= 1.00D-05.
 RLE energy=       -0.2764197649
 DE(Corr)= -0.27611647     E(CORR)=     -75.747244931     Delta=-6.70D-04
 NORM(A)=   0.10261093D+01
 Iteration Nr.   4
 **********************
 DD1Dir will call FoFMem   1 times, MxPair=        56
 NAB=    20 NAA=    10 NBB=     6.
 A-vector RMS=  4.3175191D-05 Max=  5.7580796D-04 conv= 1.00D-05.
 RLE energy=       -0.2764917057
 DE(Corr)= -0.27644988     E(CORR)=     -75.747578348     Delta=-3.33D-04
 NORM(A)=   0.10262012D+01
 Iteration Nr.   5
 **********************
 DD1Dir will call FoFMem   1 times, MxPair=        56
 NAB=    20 NAA=    10 NBB=     6.
 A-vector RMS=  1.6305292D-05 Max=  2.6926977D-04 conv= 1.00D-05.
 RLE energy=       -0.2764909251
 DE(Corr)= -0.27648428     E(CORR)=     -75.747612744     Delta=-3.44D-05
 NORM(A)=   0.10262113D+01
 Iteration Nr.   6
 **********************
 DD1Dir will call FoFMem   1 times, MxPair=        56
 NAB=    20 NAA=    10 NBB=     6.
 A-vector RMS=  7.6201635D-06 Max=  1.1498953D-04 conv= 1.00D-05.
 RLE energy=       -0.2764843597
 DE(Corr)= -0.27648907     E(CORR)=     -75.747617533     Delta=-4.79D-06
 NORM(A)=   0.10262120D+01
 Iteration Nr.   7
 **********************
 DD1Dir will call FoFMem   1 times, MxPair=        56
 NAB=    20 NAA=    10 NBB=     6.
 A-vector RMS=  2.8567850D-06 Max=  4.6596081D-05 conv= 1.00D-05.
 RLE energy=       -0.2764913384
 DE(Corr)= -0.27648943     E(CORR)=     -75.747617895     Delta=-3.62D-07
 NORM(A)=   0.10262134D+01
 Iteration Nr.   8
 **********************
 DD1Dir will call FoFMem   1 times, MxPair=        56
 NAB=    20 NAA=    10 NBB=     6.
 A-vector RMS=  9.3087355D-07 Max=  1.6005804D-05 conv= 1.00D-05.
 RLE energy=       -0.2764892702
 DE(Corr)= -0.27648940     E(CORR)=     -75.747617860     Delta= 3.51D-08
 NORM(A)=   0.10262136D+01
 Iteration Nr.   9
 **********************
 DD1Dir will call FoFMem   1 times, MxPair=        56
 NAB=    20 NAA=    10 NBB=     6.
 A-vector RMS=  3.5374473D-07 Max=  4.2548430D-06 conv= 1.00D-05.
 RLE energy=       -0.2764898970
 DE(Corr)= -0.27648972     E(CORR)=     -75.747618187     Delta=-3.27D-07
 NORM(A)=   0.10262137D+01
 Iteration Nr.  10
 **********************
 DD1Dir will call FoFMem   1 times, MxPair=        56
 NAB=    20 NAA=    10 NBB=     6.
 A-vector RMS=  1.4785553D-07 Max=  1.0293781D-06 conv= 1.00D-05.
 RLE energy=       -0.2764896080
 DE(Corr)= -0.27648963     E(CORR)=     -75.747618095     Delta= 9.14D-08
 NORM(A)=   0.10262137D+01
 CI/CC converged in   10 iterations to DelEn= 9.14D-08 Conv= 1.00D-07 ErrA1= 1.48D-07 Conv= 1.00D-05
 Wavefunction amplitudes converged. E(Corr)=     -75.747618095    
 Largest amplitude= 4.66D-02
 Time for triples=       34.05 seconds.
 T4(CCSD)= -0.60992836D-02
 T5(CCSD)=  0.13808572D-03
 CCSD(T)= -0.75753579293D+02

 S**2, projected HF & approx projected MPn energies after annihilation of
 unwanted spin states (see manual for definitions):

 spins       (S**2,0) (S**2,1)    PUHF        PMP2        PMP3        PMP4
 annihilated
 s+1         0.74999  0.75001  -75.474407  -75.735813  -75.747205
 s+1,s+2     0.75000  0.75000  -75.474403  -75.735808  -75.747201
 s+1 to s+3  0.75000  0.75000  -75.474403  -75.735808  -75.747201
 s+1 to s+4  0.75000  0.75000  -75.474403  -75.735808  -75.747201

 Discarding MO integrals.
 Leave Link  913 at Wed Feb 23 16:42:13 2022, MaxMem= 17179869184 cpu:              56.4 elap:               2.6
 (Enter /home/saurabh/gaussian/g16/l601.exe)
 Copying SCF densities to generalized density rwf, IOpCl= 1 IROHF=0.

 **********************************************************************

            Population analysis using the SCF Density.

 **********************************************************************

 Orbital symmetries:
 Alpha Orbitals:
       Occupied  (SG) (SG) (SG) (PI) (PI)
       Virtual   (SG) (SG) (SG) (PI) (PI) (PI) (PI) (SG) (?A) (?A)
                 (?A) (?A) (PI) (PI) (SG) (DLTA) (DLTA) (?B) (?B)
                 (?B) (?B) (SG) (PI) (PI) (SG) (SG) (?C) (PHI)
                 (PHI) (?C) (?C) (?D) (?D) (PI) (PI) (PI) (PI)
                 (?D) (SG) (SG) (PI) (PI) (SG) (?E) (?E) (?F) (?F)
                 (?E) (?E) (?F) (?A) (?A) (?A) (PI) (PI) (?A) (SG)
                 (PI) (PI) (?G) (?G) (PI) (PI) (SG) (?G) (SG) (SG)
                 (SG) (SG) (SG)
 Beta  Orbitals:
       Occupied  (SG) (SG) (SG) (?A)
       Virtual   (?A) (SG) (SG) (SG) (?A) (?A) (?A) (?A) (SG) (?B)
                 (?B) (?B) (?B) (PI) (PI) (SG) (DLTA) (DLTA) (?C)
                 (?C) (?C) (SG) (?C) (PI) (PI) (SG) (SG) (SG) (PHI)
                 (PHI) (DLTA) (DLTA) (DLTA) (DLTA) (PI) (PI) (PI)
                 (PI) (SG) (SG) (SG) (PI) (PI) (SG) (PHI) (PHI)
                 (DLTA) (DLTA) (PI) (PI) (SG) (SG) (DLTA) (DLTA)
                 (PI) (PI) (SG) (SG) (PI) (PI) (DLTA) (DLTA) (PI)
                 (PI) (SG) (SG) (SG) (SG) (SG) (SG) (SG)
 Unable to determine electronic state:  an orbital has unidentified symmetry.
 Alpha  occ. eigenvalues --  -20.64566  -1.38359  -0.67490  -0.65148  -0.55526
 Alpha virt. eigenvalues --    0.14078   0.54457   0.68042   0.70967   0.75481
 Alpha virt. eigenvalues --    0.86511   0.88389   0.94941   1.44375   1.66515
 Alpha virt. eigenvalues --    1.66555   1.96467   1.98214   2.02768   2.46402
 Alpha virt. eigenvalues --    3.47384   3.47392   3.56426   3.62052   3.87953
 Alpha virt. eigenvalues --    3.90612   3.90722   4.29237   4.32642   4.34089
 Alpha virt. eigenvalues --    4.83574   5.22182   5.41350   5.41353   5.68880
 Alpha virt. eigenvalues --    5.69064   6.57290   6.57310   6.69166   6.75464
 Alpha virt. eigenvalues --    6.91230   6.96261   7.20292   7.85500  11.32166
 Alpha virt. eigenvalues --   15.30226  15.37378  15.89975  18.40808  18.40814
 Alpha virt. eigenvalues --   18.50480  18.50632  18.93445  18.99473  19.20203
 Alpha virt. eigenvalues --   21.92413  22.43750  22.43778  22.53704  22.59430
 Alpha virt. eigenvalues --   23.28990  62.19915  74.92887  74.96416  75.11013
 Alpha virt. eigenvalues --   75.11093  75.17420  75.20983  75.36261  75.63563
 Alpha virt. eigenvalues --   86.16012 309.275981123.203994392.64415**********
  Beta  occ. eigenvalues --  -20.60662  -1.22570  -0.63215  -0.50934
  Beta virt. eigenvalues --    0.11331   0.14903   0.55343   0.69308   0.77079
  Beta virt. eigenvalues --    0.86926   0.88127   0.88703   0.98090   1.45913
  Beta virt. eigenvalues --    1.74628   1.74723   1.97258   2.03553   2.05453
  Beta virt. eigenvalues --    2.48200   3.48074   3.48076   3.63430   3.66534
  Beta virt. eigenvalues --    3.90910   3.91407   3.91624   4.32594   4.33182
  Beta virt. eigenvalues --    4.36952   4.87221   5.24611   5.47068   5.47068
  Beta virt. eigenvalues --    5.72801   5.72808   6.66982   6.67000   6.77382
  Beta virt. eigenvalues --    6.77958   6.95565   6.97058   7.22638   7.87450
  Beta virt. eigenvalues --   11.32524  15.38661  15.39217  15.92067  18.46277
  Beta virt. eigenvalues --   18.46277  18.54597  18.54628  18.98055  19.00756
  Beta virt. eigenvalues --   19.22614  21.95221  22.48967  22.48971  22.58920
  Beta virt. eigenvalues --   22.60758  23.31713  62.19750  74.95402  74.97078
  Beta virt. eigenvalues --   75.13002  75.13032  75.19370  75.21530  75.36953
  Beta virt. eigenvalues --   75.64497  86.17140 309.279331123.204934392.64440
  Beta virt. eigenvalues -- **********
          Condensed to atoms (all electrons):
               1          2
     1  O    7.930231   0.314310
     2  H    0.314310   0.441148
          Atomic-Atomic Spin Densities.
               1          2
     1  O    1.057590  -0.012991
     2  H   -0.012991  -0.031608
 Mulliken charges and spin densities:
               1          2
     1  O   -0.244542   1.044599
     2  H    0.244542  -0.044599
 Sum of Mulliken charges =   0.00000   1.00000
 Mulliken charges and spin densities with hydrogens summed into heavy atoms:
               1          2
     1  O    0.000000   1.000000
 Electronic spatial extent (au):  <R**2>=             15.1129
 Charge=              0.0000 electrons
 Dipole moment (field-independent basis, Debye):
    X=             -0.0000    Y=             -0.0000    Z=             -1.7855  Tot=              1.7855
 Quadrupole moment (field-independent basis, Debye-Ang):
   XX=             -6.5417   YY=             -5.3074   ZZ=             -4.4227
   XY=             -0.0000   XZ=             -0.0000   YZ=             -0.0000
 Traceless Quadrupole moment (field-independent basis, Debye-Ang):
   XX=             -1.1178   YY=              0.1165   ZZ=              1.0012
   XY=             -0.0000   XZ=             -0.0000   YZ=             -0.0000
 Octapole moment (field-independent basis, Debye-Ang**2):
  XXX=             -0.0000  YYY=             -0.0000  ZZZ=             -2.0802  XYY=             -0.0000
  XXY=             -0.0000  XXZ=             -0.2541  XZZ=             -0.0000  YZZ=             -0.0000
  YYZ=             -0.1669  XYZ=             -0.0000
 Hexadecapole moment (field-independent basis, Debye-Ang**3):
 XXXX=             -5.0125 YYYY=             -3.4496 ZZZZ=             -4.8737 XXXY=             -0.0000
 XXXZ=             -0.0000 YYYX=             -0.0000 YYYZ=             -0.0000 ZZZX=             -0.0000
 ZZZY=             -0.0000 XXYY=             -1.4101 XXZZ=             -1.9364 YYZZ=             -1.6498
 XXYZ=             -0.0000 YYXZ=             -0.0000 ZZXY=             -0.0000
 N-N= 4.343645967736D+00 E-N=-1.885425360308D+02  KE= 7.579769615799D+01
 Symmetry A1   KE= 6.856597332688D+01
 Symmetry A2   KE= 8.555642261193D-31
 Symmetry B1   KE= 4.717798671046D+00
 Symmetry B2   KE= 2.513924160055D+00
 Symmetry A1   SP=-1.065594464925D-15
 Symmetry A2   SP= 5.372450931558D-32
 Symmetry B1   SP=-4.633962456428D-15
 Symmetry B2   SP= 1.000000000000D+00
 Leave Link  601 at Wed Feb 23 16:42:13 2022, MaxMem= 17179869184 cpu:               0.6 elap:               0.1
 (Enter /home/saurabh/gaussian/g16/l9999.exe)
 Unable to Open any file for archive entry.
 1\1\GINC-MEDIAWIKI\SP\UCCSD(T)-Full\MTSmall\H1O1(2)\SAURABH\23-Feb-202
 2\0\\#P Geom=AllCheck Guess=TCheck SCRF=Check CCSD(T,Full)/MTSmall int
 =dkh\\OH_w1u\\0,2\O,0,-1.8629386135,0.0341192594,0.1374982275\H,0,-2.2
 642813865,-0.1592492594,-0.7293482275\\Version=ES64L-G16RevC.01\HF=-75
 .4711285\MP2=-75.7339523\MP3=-75.7462185\MP4D=-75.7495384\MP4DQ=-75.74
 60366\PUHF=-75.4744074\PMP2-0=-75.7358127\PMP3-0=-75.7472051\MP4SDQ=-7
 5.74736\CCSD=-75.7476181\CCSD(T)=-75.7535793\S2=0.756157\S2-1=0.750818
 \S2A=0.750021\RMSD=6.509e-09\PG=C*V [C*(H1O1)]\\@
 The archive entry for this job was punched.


 MEMORIES ARE LIKE AN ENGLISH GRAMMER LESSON -
 PRESENT TENSE, AND PAST PERFECT.
 Diagonal vibrational polarizability:
        0.0000000       0.0000000       0.0000000

 W1 and W2 theory:
 J.M.L. Martin and G. de Oliveira, JCP 111, 1843 (1999)
 S. Parthiban and J.M.L. Martin, JCP 114, 6014 (2001)

 W1U   Energy Components

                         SCF                 CCSD               CCSD(T)
 AVDZ+2d             -75.403254          -75.579891          -75.583131
 AVTZ+2df            -75.421384          -75.639262          -75.645125
 AVQZ+2df            -75.426401          -75.657804

                        NR/FC              DKH/Full
 MTsmall             -75.646440          -75.753579

 Extrapolated Energy Components

                         SCF                 CCSD               CCSD(T)
                     -75.427962           -0.240271           -0.006839

 Core + Scalar Relativistic Component
                      -0.107140

 W1U   Electronic Energy           -75.782211

 Temperature=                298.150000 Pressure=                        1.000000
 E(ZPE)=                       0.008295 E(Thermal)=                      0.010655
 W1U  (0 K)=                 -75.773917 W1U   Energy=                  -75.771556
 W1U   Enthalpy=             -75.770612 W1U   Free Energy=             -75.790843

 W1U spin correction:
 G.P.F. Wood, L. Radom, G.A. Petersson, E.C. Barnes, M.J. Frisch
 and J.A. Montgomery, Jr., JCP 125, 94106 (2006).

 DE(Spin)=                         -0.000045

 W1Usc Electronic Energy           -75.782257

 Temperature=                298.150000 Pressure=                        1.000000
 E(ZPE)=                       0.008295 E(Thermal)=                      0.010655
 W1Usc(0 K)=                 -75.773962 W1Usc Energy=                  -75.771602
 W1Usc Enthalpy=             -75.770657 W1Usc Free Energy=             -75.790888
 Unable to Open any file for archive entry.
 1\1\GINC-MEDIAWIKI\Mixed\W1Usc\W1Usc\H1O1(2)\SAURABH\23-Feb-2022\0\\#p
  w1u scf(verytight, maxcycles=1000) opt(calcfc, maxcyc=1000) int(grid=
 ultrafine)\\OH_w1u\\0,2\O,0,-1.8629386135,0.0341192594,0.1374982275\H,
 0,-2.2642813865,-0.1592492594,-0.7293482275\\Version=ES64L-G16RevC.01\
 HF/AVTZ+2d1f=-75.4213837\HF/AVQZ+2d1f=-75.4264011\HFExt=-75.4279622\CC
 SD/AVTZ+2d1f=-75.6392617\CCSD/AVQZ+2d1f=-75.6578044\CCSDExt=-0.240271\
 CCSD(T)/AVDZ+2d=-75.5831309\CCSD(T)/AVTZ+2d1f=0.\TExt=-0.0068387\CCSD(
 T)/MTsmall=-75.6464397\DK-CCSD(T,FU)/MTsmall=-75.7535793\Core+Rel=-0.1
 071396\W1=-75.7739168\W1sc=-75.773962\FreqCoord=-3.5204437663,0.064476
 0559,0.2598339926,-4.2788716895,-0.3009374859,-1.3782683994\PG=C*V [C*
 (H1O1)]\NImag=0\\0.08312575,0.04005093,0.01931664,0.17954796,0.0865021
 7,0.38779653,-0.08312575,-0.04005093,-0.17954796,0.08312575,-0.0400509
 3,-0.01931664,-0.08650217,0.04005093,0.01931664,-0.17954796,-0.0865021
 7,-0.38779653,0.17954796,0.08650217,0.38779653\\0.00000013,0.00000006,
 0.00000028,-0.00000013,-0.00000006,-0.00000028\\\@
 The archive entry for this job was punched.
 Job cpu time:       0 days  0 hours  1 minutes 36.2 seconds.
 Elapsed time:       0 days  0 hours  0 minutes  4.8 seconds.
 File lengths (MBytes):  RWF=    158 Int=      0 D2E=      0 Chk=      2 Scr=      1
 Normal termination of Gaussian 16 at Wed Feb 23 16:42:13 2022.
