 Entering Gaussian System, Link 0=g16
 Input=OOH.com
 Output=OOH.log
 Initial command:
 /home/saurabh/gaussian/g16/l1.exe "/home/saurabh/gaussian/gauss_scr/Gau-30822.inp" -scrdir="/home/saurabh/gaussian/gauss_scr/"
 Entering Link 1 = /home/saurabh/gaussian/g16/l1.exe PID=     30823.
  
 Copyright (c) 1988-2019, Gaussian, Inc.  All Rights Reserved.
  
 This is part of the Gaussian(R) 16 program.  It is based on
 the Gaussian(R) 09 system (copyright 2009, Gaussian, Inc.),
 the Gaussian(R) 03 system (copyright 2003, Gaussian, Inc.),
 the Gaussian(R) 98 system (copyright 1998, Gaussian, Inc.),
 the Gaussian(R) 94 system (copyright 1995, Gaussian, Inc.),
 the Gaussian 92(TM) system (copyright 1992, Gaussian, Inc.),
 the Gaussian 90(TM) system (copyright 1990, Gaussian, Inc.),
 the Gaussian 88(TM) system (copyright 1988, Gaussian, Inc.),
 the Gaussian 86(TM) system (copyright 1986, Carnegie Mellon
 University), and the Gaussian 82(TM) system (copyright 1983,
 Carnegie Mellon University). Gaussian is a federally registered
 trademark of Gaussian, Inc.
  
 This software contains proprietary and confidential information,
 including trade secrets, belonging to Gaussian, Inc.
  
 This software is provided under written license and may be
 used, copied, transmitted, or stored only in accord with that
 written license.
  
 The following legend is applicable only to US Government
 contracts under FAR:
  
                    RESTRICTED RIGHTS LEGEND
  
 Use, reproduction and disclosure by the US Government is
 subject to restrictions as set forth in subparagraphs (a)
 and (c) of the Commercial Computer Software - Restricted
 Rights clause in FAR 52.227-19.
  
 Gaussian, Inc.
 340 Quinnipiac St., Bldg. 40, Wallingford CT 06492
  
  
 ---------------------------------------------------------------
 Warning -- This program may not be used in any manner that
 competes with the business of Gaussian, Inc. or will provide
 assistance to any competitor of Gaussian, Inc.  The licensee
 of this program is prohibited from giving any competitor of
 Gaussian, Inc. access to this program.  By using this program,
 the user acknowledges that Gaussian, Inc. is engaged in the
 business of creating and licensing software in the field of
 computational chemistry and represents and warrants to the
 licensee that it is not a competitor of Gaussian, Inc. and that
 it will not use this program in any manner prohibited above.
 ---------------------------------------------------------------
  

 Cite this work as:
 Gaussian 16, Revision C.01,
 M. J. Frisch, G. W. Trucks, H. B. Schlegel, G. E. Scuseria, 
 M. A. Robb, J. R. Cheeseman, G. Scalmani, V. Barone, 
 G. A. Petersson, H. Nakatsuji, X. Li, M. Caricato, A. V. Marenich, 
 J. Bloino, B. G. Janesko, R. Gomperts, B. Mennucci, H. P. Hratchian, 
 J. V. Ortiz, A. F. Izmaylov, J. L. Sonnenberg, D. Williams-Young, 
 F. Ding, F. Lipparini, F. Egidi, J. Goings, B. Peng, A. Petrone, 
 T. Henderson, D. Ranasinghe, V. G. Zakrzewski, J. Gao, N. Rega, 
 G. Zheng, W. Liang, M. Hada, M. Ehara, K. Toyota, R. Fukuda, 
 J. Hasegawa, M. Ishida, T. Nakajima, Y. Honda, O. Kitao, H. Nakai, 
 T. Vreven, K. Throssell, J. A. Montgomery, Jr., J. E. Peralta, 
 F. Ogliaro, M. J. Bearpark, J. J. Heyd, E. N. Brothers, K. N. Kudin, 
 V. N. Staroverov, T. A. Keith, R. Kobayashi, J. Normand, 
 K. Raghavachari, A. P. Rendell, J. C. Burant, S. S. Iyengar, 
 J. Tomasi, M. Cossi, J. M. Millam, M. Klene, C. Adamo, R. Cammi, 
 J. W. Ochterski, R. L. Martin, K. Morokuma, O. Farkas, 
 J. B. Foresman, and D. J. Fox, Gaussian, Inc., Wallingford CT, 2019.
 
 ******************************************
 Gaussian 16:  ES64L-G16RevC.01  3-Jul-2019
                23-Feb-2022 
 ******************************************
 %nproc=22
 Will use up to   22 processors via shared memory.
 %mem=128GB
 %chk=OOH_w1u.chk
 ----------------------------------------------------------------------
 #p w1u scf(verytight, maxcycles=1000) opt(calcfc, maxcyc=1000) int(gri
 d=ultrafine)
 ----------------------------------------------------------------------
 1/6=1000,10=4,18=20,19=15,26=4,38=1/1,3;
 2/9=110,12=2,17=6,18=5,40=1/2;
 3/5=16,6=1,7=9,11=2,25=1,30=1,71=2,74=-5,75=-5,140=1/1,2,3;
 4//1;
 5/5=2,7=1000,17=3,38=5/2;
 8/6=4,10=90,11=11/1;
 11/6=1,8=1,9=11,15=111,16=1/1,2,10;
 10/6=1,13=1/2;
 6/7=2,8=2,9=2,10=2,28=1/1;
 7/10=1,25=1/1,2,3,16;
 1/6=1000,10=4,18=20,19=15,26=4/3(2);
 2/9=110/2;
 99//99;
 2/9=110/2;
 3/5=16,6=1,7=9,11=2,25=1,30=1,71=1,74=-5,75=-5/1,2,3;
 4/5=5,16=3,69=1/1;
 5/5=2,7=1000,17=3,38=5/2;
 7//1,2,3,16;
 1/6=1000,18=20,19=15,26=4/3(-5);
 2/9=110/2;
 6/7=2,8=2,9=2,10=2,19=2,28=1/1;
 99/9=1/99;
 Leave Link    1 at Wed Feb 23 16:42:13 2022, MaxMem= 17179869184 cpu:               0.6 elap:               0.0
 (Enter /home/saurabh/gaussian/g16/l101.exe)
 -------
 OOH_w1u
 -------
 Symbolic Z-matrix:
 Charge =  0 Multiplicity = 2
 O                    -5.03282   4.17414   0. 
 O                    -3.82212   3.65831   0. 
 H                    -3.21811   4.44302   0. 
 
 ITRead=  0  0  0
 MicOpt= -1 -1 -1
 NAtoms=      3 NQM=        3 NQMF=       0 NMMI=      0 NMMIF=      0
                NMic=       0 NMicF=      0.
                    Isotopes and Nuclear Properties:
 (Nuclear quadrupole moments (NQMom) in fm**2, nuclear magnetic moments (NMagM)
  in nuclear magnetons)

  Atom         1           2           3
 IAtWgt=          16          16           1
 AtmWgt=  15.9949146  15.9949146   1.0078250
 NucSpn=           0           0           1
 AtZEff=  -0.0000000  -0.0000000  -0.0000000
 NQMom=    0.0000000   0.0000000   0.0000000
 NMagM=    0.0000000   0.0000000   2.7928460
 AtZNuc=   8.0000000   8.0000000   1.0000000
 Leave Link  101 at Wed Feb 23 16:42:14 2022, MaxMem= 17179869184 cpu:               7.2 elap:               0.4
 (Enter /home/saurabh/gaussian/g16/l103.exe)

 GradGradGradGradGradGradGradGradGradGradGradGradGradGradGradGradGradGrad
 Berny optimization.
 Initialization pass.
                           ----------------------------
                           !    Initial Parameters    !
                           ! (Angstroms and Degrees)  !
 --------------------------                            --------------------------
 ! Name  Definition              Value          Derivative Info.                !
 --------------------------------------------------------------------------------
 ! R1    R(1,2)                  1.316          calculate D2E/DX2 analytically  !
 ! R2    R(2,3)                  0.9903         calculate D2E/DX2 analytically  !
 ! A1    A(1,2,3)              104.5095         calculate D2E/DX2 analytically  !
 --------------------------------------------------------------------------------
 Trust Radius=3.00D-01 FncErr=1.00D-07 GrdErr=1.00D-06 EigMax=2.50D+02 EigMin=1.00D-04
 Number of steps in this run=    100 maximum allowed number of steps=    100.
 GradGradGradGradGradGradGradGradGradGradGradGradGradGradGradGradGradGrad

 Leave Link  103 at Wed Feb 23 16:42:14 2022, MaxMem= 17179869184 cpu:               0.2 elap:               0.0
 (Enter /home/saurabh/gaussian/g16/l202.exe)
                          Input orientation:                          
 ---------------------------------------------------------------------
 Center     Atomic      Atomic             Coordinates (Angstroms)
 Number     Number       Type             X           Y           Z
 ---------------------------------------------------------------------
      1          8           0       -5.032820    4.174140    0.000000
      2          8           0       -3.822120    3.658310    0.000000
      3          1           0       -3.218110    4.443020    0.000000
 ---------------------------------------------------------------------
                    Distance matrix (angstroms):
                    1          2          3
     1  O    0.000000
     2  O    1.316007   0.000000
     3  H    1.834521   0.990251   0.000000
 Stoichiometry    HO2(2)
 Framework group  CS[SG(HO2)]
 Deg. of freedom     3
 Full point group                 CS      NOp   2
 Largest Abelian subgroup         CS      NOp   2
 Largest concise Abelian subgroup C1      NOp   1
                         Standard orientation:                         
 ---------------------------------------------------------------------
 Center     Atomic      Atomic             Coordinates (Angstroms)
 Number     Number       Type             X           Y           Z
 ---------------------------------------------------------------------
      1          8           0        0.056392    0.711304    0.000000
      2          8           0        0.056392   -0.604704    0.000000
      3          1           0       -0.902276   -0.852801   -0.000000
 ---------------------------------------------------------------------
 Rotational constants (GHZ):         597.5315988          34.3679789          32.4987610
 Leave Link  202 at Wed Feb 23 16:42:14 2022, MaxMem= 17179869184 cpu:               0.2 elap:               0.0
 (Enter /home/saurabh/gaussian/g16/l301.exe)
 Standard basis: CC-pVTZ+d (5D, 7F)
 Ernie: Thresh=  0.10000D-02 Tol=  0.10000D-05 Strict=F.
 Ernie:  6 primitive shells out of 60 were deleted.
 There are    59 symmetry adapted cartesian basis functions of A'  symmetry.
 There are    26 symmetry adapted cartesian basis functions of A"  symmetry.
 There are    50 symmetry adapted basis functions of A'  symmetry.
 There are    24 symmetry adapted basis functions of A"  symmetry.
    74 basis functions,   121 primitive gaussians,    85 cartesian basis functions
     9 alpha electrons        8 beta electrons
       nuclear repulsion energy        32.3176554405 Hartrees.
 IExCor=  402 DFT=T Ex+Corr=B3LYP ExCW=0 ScaHFX=  0.200000
 ScaDFX=  0.800000  0.720000  1.000000  0.810000 ScalE2=  1.000000  1.000000
 IRadAn=      5 IRanWt=     -1 IRanGd=            0 ICorTp=0 IEmpDi=  4
 NAtoms=    3 NActive=    3 NUniq=    3 SFac= 1.00D+00 NAtFMM=   60 NAOKFM=F Big=F
 Integral buffers will be    131072 words long.
 Raffenetti 2 integral format.
 Two-electron integral symmetry is turned on.
 Leave Link  301 at Wed Feb 23 16:42:14 2022, MaxMem= 17179869184 cpu:               1.0 elap:               0.1
 (Enter /home/saurabh/gaussian/g16/l302.exe)
 NPDir=0 NMtPBC=     1 NCelOv=     1 NCel=       1 NClECP=     1 NCelD=      1
         NCelK=      1 NCelE2=     1 NClLst=     1 CellRange=     0.0.
 One-electron integrals computed using PRISM.
 One-electron integral symmetry used in STVInt
 NBasis=    74 RedAO= T EigKep=  3.25D-03  NBF=    50    24
 NBsUse=    74 1.00D-06 EigRej= -1.00D+00 NBFU=    50    24
 Precomputing XC quadrature grid using
 IXCGrd= 4 IRadAn=           5 IRanWt=          -1 IRanGd=           0 AccXCQ= 0.00D+00.
 Generated NRdTot=       0 NPtTot=           0 NUsed=           0 NTot=          32
 NSgBfM=    85    85    85    85    85 MxSgAt=     3 MxSgA2=     3.
 Leave Link  302 at Wed Feb 23 16:42:14 2022, MaxMem= 17179869184 cpu:               2.8 elap:               0.2
 (Enter /home/saurabh/gaussian/g16/l303.exe)
 DipDrv:  MaxL=1.
 Leave Link  303 at Wed Feb 23 16:42:14 2022, MaxMem= 17179869184 cpu:               0.4 elap:               0.0
 (Enter /home/saurabh/gaussian/g16/l401.exe)
 ExpMin= 1.03D-01 ExpMax= 1.53D+04 ExpMxC= 5.22D+02 IAcc=3 IRadAn=         5 AccDes= 0.00D+00
 Harris functional with IExCor=  402 and IRadAn=       5 diagonalized for initial guess.
 HarFok:  IExCor=  402 AccDes= 0.00D+00 IRadAn=         5 IDoV= 1 UseB2=F ITyADJ=14
 ICtDFT=  3500011 ScaDFX=  1.000000  1.000000  1.000000  1.000000
 FoFCou: FMM=F IPFlag=           0 FMFlag=      100000 FMFlg1=           0
         NFxFlg=           0 DoJE=T BraDBF=F KetDBF=T FulRan=T
         wScrn=  0.000000 ICntrl=       500 IOpCl=  0 I1Cent=   200000004 NGrid=           0
         NMat0=    1 NMatS0=      1 NMatT0=    0 NMatD0=    1 NMtDS0=    0 NMtDT0=    0
 Petite list used in FoFCou.
 Harris En= -150.954249332252    
 JPrj=0 DoOrth=F DoCkMO=F.
 Initial guess orbital symmetries:
 Alpha Orbitals:
       Occupied  (A') (A') (A') (A') (A') (A') (A") (A') (A")
       Virtual   (A') (A') (A') (A') (A') (A") (A') (A') (A") (A")
                 (A') (A') (A') (A") (A') (A") (A') (A') (A") (A')
                 (A') (A") (A') (A') (A') (A") (A') (A") (A') (A')
                 (A") (A') (A") (A') (A') (A") (A') (A') (A") (A')
                 (A") (A') (A') (A") (A') (A') (A") (A') (A") (A")
                 (A') (A") (A') (A') (A") (A') (A') (A") (A') (A')
                 (A") (A') (A') (A') (A')
 Beta  Orbitals:
       Occupied  (A') (A') (A') (A') (A') (A') (A") (A')
       Virtual   (A") (A') (A') (A') (A') (A') (A") (A') (A') (A")
                 (A") (A') (A') (A') (A") (A') (A") (A') (A') (A")
                 (A') (A') (A") (A') (A') (A') (A") (A') (A") (A')
                 (A') (A") (A') (A") (A') (A') (A") (A') (A') (A")
                 (A') (A") (A') (A') (A") (A') (A') (A") (A') (A")
                 (A") (A') (A") (A') (A') (A") (A') (A') (A") (A')
                 (A') (A") (A') (A') (A') (A')
 The electronic state of the initial guess is 2-A".
 Initial guess <Sx>= 0.0000 <Sy>= 0.0000 <Sz>= 0.5000 <S**2>= 0.7500 S= 0.5000
 Leave Link  401 at Wed Feb 23 16:42:14 2022, MaxMem= 17179869184 cpu:               4.1 elap:               0.2
 (Enter /home/saurabh/gaussian/g16/l502.exe)
 Keep R1 and R2 ints in memory in symmetry-blocked form, NReq=23948333.
 FoFCou: FMM=F IPFlag=           0 FMFlag=           0 FMFlg1=           0
         NFxFlg=           0 DoJE=F BraDBF=F KetDBF=F FulRan=T
         wScrn=  0.000000 ICntrl=       600 IOpCl=  0 I1Cent=           0 NGrid=           0
         NMat0=    1 NMatS0=   2775 NMatT0=    0 NMatD0=    1 NMtDS0=    0 NMtDT0=    0
 Petite list used in FoFCou.
 UHF open shell SCF:
 Using DIIS extrapolation, IDIIS=  1040.
 NGot= 17179869184 LenX= 17175921837 LenY= 17175914171
 Requested convergence on RMS density matrix=1.00D-08 within1000 cycles.
 Requested convergence on MAX density matrix=1.00D-06.
 Requested convergence on             energy=1.00D-06.
 No special actions if energy rises.
 Integral accuracy reduced to 1.0D-05 until final iterations.

 Cycle   1  Pass 0  IDiag  1:
 E= -150.941746160774    
 DIIS: error= 3.39D-02 at cycle   1 NSaved=   1.
 NSaved= 1 IEnMin= 1 EnMin= -150.941746160774     IErMin= 1 ErrMin= 3.39D-02
 ErrMax= 3.39D-02  0.00D+00 EMaxC= 1.00D-01 BMatC= 1.46D-01 BMatP= 1.46D-01
 IDIUse=3 WtCom= 6.61D-01 WtEn= 3.39D-01
 Coeff-Com:  0.100D+01
 Coeff-En:   0.100D+01
 Coeff:      0.100D+01
 Gap=     0.233 Goal=   None    Shift=    0.000
 Gap=     0.136 Goal=   None    Shift=    0.000
 GapD=    0.136 DampG=1.000 DampE=0.500 DampFc=0.5000 IDamp=-1.
 Damping current iteration by 5.00D-01
 RMSDP=2.72D-03 MaxDP=5.09D-02              OVMax= 1.79D-01

 Cycle   2  Pass 0  IDiag  1:
 E= -150.951641881138     Delta-E=       -0.009895720363 Rises=F Damp=T
 DIIS: error= 8.59D-03 at cycle   2 NSaved=   2.
 NSaved= 2 IEnMin= 2 EnMin= -150.951641881138     IErMin= 2 ErrMin= 8.59D-03
 ErrMax= 8.59D-03  0.00D+00 EMaxC= 1.00D-01 BMatC= 2.92D-02 BMatP= 1.46D-01
 IDIUse=3 WtCom= 9.14D-01 WtEn= 8.59D-02
 Coeff-Com:  0.896D-01 0.910D+00
 Coeff-En:   0.142D+00 0.858D+00
 Coeff:      0.941D-01 0.906D+00
 Gap=     0.315 Goal=   None    Shift=    0.000
 Gap=     0.159 Goal=   None    Shift=    0.000
 RMSDP=8.89D-04 MaxDP=2.50D-02 DE=-9.90D-03 OVMax= 1.16D-01

 Cycle   3  Pass 0  IDiag  1:
 E= -150.961541375936     Delta-E=       -0.009899494799 Rises=F Damp=F
 DIIS: error= 1.37D-02 at cycle   3 NSaved=   3.
 NSaved= 3 IEnMin= 3 EnMin= -150.961541375936     IErMin= 2 ErrMin= 8.59D-03
 ErrMax= 1.37D-02  0.00D+00 EMaxC= 1.00D-01 BMatC= 3.87D-02 BMatP= 2.92D-02
 IDIUse=2 WtCom= 0.00D+00 WtEn= 1.00D+00
 Coeff-En:   0.000D+00 0.226D-01 0.977D+00
 Coeff:      0.000D+00 0.226D-01 0.977D+00
 Gap=     0.280 Goal=   None    Shift=    0.000
 Gap=     0.147 Goal=   None    Shift=    0.000
 RMSDP=1.58D-03 MaxDP=3.30D-02 DE=-9.90D-03 OVMax= 1.41D-01

 Cycle   4  Pass 0  IDiag  1:
 E= -150.937896721664     Delta-E=        0.023644654272 Rises=F Damp=F
 DIIS: error= 2.42D-02 at cycle   4 NSaved=   4.
 NSaved= 4 IEnMin= 3 EnMin= -150.961541375936     IErMin= 2 ErrMin= 8.59D-03
 ErrMax= 2.42D-02  0.00D+00 EMaxC= 1.00D-01 BMatC= 1.87D-01 BMatP= 2.92D-02
 IDIUse=2 WtCom= 0.00D+00 WtEn= 1.00D+00
 Coeff-En:   0.000D+00 0.000D+00 0.765D+00 0.235D+00
 Coeff:      0.000D+00 0.000D+00 0.765D+00 0.235D+00
 Gap=     0.300 Goal=   None    Shift=    0.000
 Gap=     0.156 Goal=   None    Shift=    0.000
 RMSDP=8.16D-04 MaxDP=1.51D-02 DE= 2.36D-02 OVMax= 6.13D-02

 Cycle   5  Pass 0  IDiag  1:
 E= -150.965983661939     Delta-E=       -0.028086940275 Rises=F Damp=F
 DIIS: error= 6.63D-03 at cycle   5 NSaved=   5.
 NSaved= 5 IEnMin= 5 EnMin= -150.965983661939     IErMin= 5 ErrMin= 6.63D-03
 ErrMax= 6.63D-03  0.00D+00 EMaxC= 1.00D-01 BMatC= 1.34D-02 BMatP= 2.92D-02
 IDIUse=3 WtCom= 9.34D-01 WtEn= 6.63D-02
 Coeff-Com:  0.329D-02-0.390D-01 0.179D+00-0.186D+00 0.104D+01
 Coeff-En:   0.000D+00 0.000D+00 0.296D+00 0.000D+00 0.704D+00
 Coeff:      0.307D-02-0.364D-01 0.187D+00-0.174D+00 0.102D+01
 Gap=     0.307 Goal=   None    Shift=    0.000
 Gap=     0.160 Goal=   None    Shift=    0.000
 RMSDP=2.95D-04 MaxDP=4.71D-03 DE=-2.81D-02 OVMax= 1.86D-02

 Cycle   6  Pass 0  IDiag  1:
 E= -150.968123790285     Delta-E=       -0.002140128345 Rises=F Damp=F
 DIIS: error= 2.66D-04 at cycle   6 NSaved=   6.
 NSaved= 6 IEnMin= 6 EnMin= -150.968123790285     IErMin= 6 ErrMin= 2.66D-04
 ErrMax= 2.66D-04  0.00D+00 EMaxC= 1.00D-01 BMatC= 6.54D-06 BMatP= 1.34D-02
 IDIUse=3 WtCom= 9.97D-01 WtEn= 2.66D-03
 Coeff-Com: -0.130D-02 0.543D-02-0.793D-01 0.302D-01-0.250D+00 0.129D+01
 Coeff-En:   0.000D+00 0.000D+00 0.000D+00 0.000D+00 0.000D+00 0.100D+01
 Coeff:     -0.130D-02 0.542D-02-0.791D-01 0.301D-01-0.249D+00 0.129D+01
 Gap=     0.307 Goal=   None    Shift=    0.000
 Gap=     0.160 Goal=   None    Shift=    0.000
 RMSDP=3.52D-05 MaxDP=9.24D-04 DE=-2.14D-03 OVMax= 4.21D-03

 Cycle   7  Pass 0  IDiag  1:
 E= -150.968130703533     Delta-E=       -0.000006913248 Rises=F Damp=F
 DIIS: error= 9.27D-05 at cycle   7 NSaved=   7.
 NSaved= 7 IEnMin= 7 EnMin= -150.968130703533     IErMin= 7 ErrMin= 9.27D-05
 ErrMax= 9.27D-05  0.00D+00 EMaxC= 1.00D-01 BMatC= 1.81D-06 BMatP= 6.54D-06
 IDIUse=1 WtCom= 1.00D+00 WtEn= 0.00D+00
 Coeff-Com:  0.883D-04 0.154D-02 0.238D-02 0.160D-02-0.168D-01-0.211D+00
 Coeff-Com:  0.122D+01
 Coeff:      0.883D-04 0.154D-02 0.238D-02 0.160D-02-0.168D-01-0.211D+00
 Coeff:      0.122D+01
 Gap=     0.307 Goal=   None    Shift=    0.000
 Gap=     0.160 Goal=   None    Shift=    0.000
 RMSDP=9.14D-06 MaxDP=2.05D-04 DE=-6.91D-06 OVMax= 5.47D-04

 Initial convergence to 1.0D-05 achieved.  Increase integral accuracy.
 Cycle   8  Pass 1  IDiag  1:
 E= -150.968129885658     Delta-E=        0.000000817876 Rises=F Damp=F
 DIIS: error= 1.44D-05 at cycle   1 NSaved=   1.
 NSaved= 1 IEnMin= 1 EnMin= -150.968129885658     IErMin= 1 ErrMin= 1.44D-05
 ErrMax= 1.44D-05  0.00D+00 EMaxC= 1.00D-01 BMatC= 3.01D-08 BMatP= 3.01D-08
 IDIUse=1 WtCom= 1.00D+00 WtEn= 0.00D+00
 Coeff-Com:  0.100D+01
 Coeff:      0.100D+01
 Gap=     0.307 Goal=   None    Shift=    0.000
 Gap=     0.160 Goal=   None    Shift=    0.000
 RMSDP=9.14D-06 MaxDP=2.05D-04 DE= 8.18D-07 OVMax= 1.33D-04

 Cycle   9  Pass 1  IDiag  1:
 E= -150.968129883430     Delta-E=        0.000000002228 Rises=F Damp=F
 DIIS: error= 1.72D-05 at cycle   2 NSaved=   2.
 NSaved= 2 IEnMin= 1 EnMin= -150.968129885658     IErMin= 1 ErrMin= 1.44D-05
 ErrMax= 1.72D-05  0.00D+00 EMaxC= 1.00D-01 BMatC= 9.14D-08 BMatP= 3.01D-08
 IDIUse=1 WtCom= 1.00D+00 WtEn= 0.00D+00
 Coeff-Com:  0.674D+00 0.326D+00
 Coeff:      0.674D+00 0.326D+00
 Gap=     0.307 Goal=   None    Shift=    0.000
 Gap=     0.160 Goal=   None    Shift=    0.000
 RMSDP=8.54D-07 MaxDP=1.47D-05 DE= 2.23D-09 OVMax= 6.24D-05

 Cycle  10  Pass 1  IDiag  1:
 E= -150.968129898570     Delta-E=       -0.000000015141 Rises=F Damp=F
 DIIS: error= 2.86D-06 at cycle   3 NSaved=   3.
 NSaved= 3 IEnMin= 3 EnMin= -150.968129898570     IErMin= 3 ErrMin= 2.86D-06
 ErrMax= 2.86D-06  0.00D+00 EMaxC= 1.00D-01 BMatC= 2.65D-09 BMatP= 3.01D-08
 IDIUse=1 WtCom= 1.00D+00 WtEn= 0.00D+00
 Coeff-Com: -0.104D+00 0.502D-01 0.105D+01
 Coeff:     -0.104D+00 0.502D-01 0.105D+01
 Gap=     0.307 Goal=   None    Shift=    0.000
 Gap=     0.160 Goal=   None    Shift=    0.000
 RMSDP=4.31D-07 MaxDP=7.38D-06 DE=-1.51D-08 OVMax= 2.36D-05

 Cycle  11  Pass 1  IDiag  1:
 E= -150.968129900071     Delta-E=       -0.000000001501 Rises=F Damp=F
 DIIS: error= 1.16D-06 at cycle   4 NSaved=   4.
 NSaved= 4 IEnMin= 4 EnMin= -150.968129900071     IErMin= 4 ErrMin= 1.16D-06
 ErrMax= 1.16D-06  0.00D+00 EMaxC= 1.00D-01 BMatC= 4.19D-10 BMatP= 2.65D-09
 IDIUse=1 WtCom= 1.00D+00 WtEn= 0.00D+00
 Coeff-Com: -0.135D+00-0.575D-01 0.874D-01 0.111D+01
 Coeff:     -0.135D+00-0.575D-01 0.874D-01 0.111D+01
 Gap=     0.307 Goal=   None    Shift=    0.000
 Gap=     0.160 Goal=   None    Shift=    0.000
 RMSDP=2.50D-07 MaxDP=4.60D-06 DE=-1.50D-09 OVMax= 1.17D-05

 Cycle  12  Pass 1  IDiag  1:
 E= -150.968129900343     Delta-E=       -0.000000000272 Rises=F Damp=F
 DIIS: error= 6.91D-07 at cycle   5 NSaved=   5.
 NSaved= 5 IEnMin= 5 EnMin= -150.968129900343     IErMin= 5 ErrMin= 6.91D-07
 ErrMax= 6.91D-07  0.00D+00 EMaxC= 1.00D-01 BMatC= 7.02D-11 BMatP= 4.19D-10
 IDIUse=1 WtCom= 1.00D+00 WtEn= 0.00D+00
 Coeff-Com: -0.505D-01-0.293D-01-0.266D-01 0.466D+00 0.640D+00
 Coeff:     -0.505D-01-0.293D-01-0.266D-01 0.466D+00 0.640D+00
 Gap=     0.307 Goal=   None    Shift=    0.000
 Gap=     0.160 Goal=   None    Shift=    0.000
 RMSDP=4.63D-08 MaxDP=8.98D-07 DE=-2.72D-10 OVMax= 2.31D-06

 Cycle  13  Pass 1  IDiag  1:
 E= -150.968129900359     Delta-E=       -0.000000000016 Rises=F Damp=F
 DIIS: error= 1.48D-07 at cycle   6 NSaved=   6.
 NSaved= 6 IEnMin= 6 EnMin= -150.968129900359     IErMin= 6 ErrMin= 1.48D-07
 ErrMax= 1.48D-07  0.00D+00 EMaxC= 1.00D-01 BMatC= 6.27D-12 BMatP= 7.02D-11
 IDIUse=1 WtCom= 1.00D+00 WtEn= 0.00D+00
 Coeff-Com:  0.134D-01 0.737D-03-0.138D-01-0.109D+00 0.133D+00 0.975D+00
 Coeff:      0.134D-01 0.737D-03-0.138D-01-0.109D+00 0.133D+00 0.975D+00
 Gap=     0.307 Goal=   None    Shift=    0.000
 Gap=     0.160 Goal=   None    Shift=    0.000
 RMSDP=1.91D-08 MaxDP=3.75D-07 DE=-1.59D-11 OVMax= 7.68D-07

 Cycle  14  Pass 1  IDiag  1:
 E= -150.968129900361     Delta-E=       -0.000000000002 Rises=F Damp=F
 DIIS: error= 2.27D-08 at cycle   7 NSaved=   7.
 NSaved= 7 IEnMin= 7 EnMin= -150.968129900361     IErMin= 7 ErrMin= 2.27D-08
 ErrMax= 2.27D-08  0.00D+00 EMaxC= 1.00D-01 BMatC= 1.05D-13 BMatP= 6.27D-12
 IDIUse=1 WtCom= 1.00D+00 WtEn= 0.00D+00
 Coeff-Com:  0.193D-02 0.470D-03 0.995D-03-0.160D-01-0.289D-01 0.791D-02
 Coeff-Com:  0.103D+01
 Coeff:      0.193D-02 0.470D-03 0.995D-03-0.160D-01-0.289D-01 0.791D-02
 Coeff:      0.103D+01
 Gap=     0.307 Goal=   None    Shift=    0.000
 Gap=     0.160 Goal=   None    Shift=    0.000
 RMSDP=3.28D-09 MaxDP=4.75D-08 DE=-1.71D-12 OVMax= 1.57D-07

 SCF Done:  E(UB3LYP) =  -150.968129900     A.U. after   14 cycles
            NFock= 14  Conv=0.33D-08     -V/T= 2.0053
 <Sx>= 0.0000 <Sy>= 0.0000 <Sz>= 0.5000 <S**2>= 0.7535 S= 0.5017
 <L.S>=  0.00000000000    
 KE= 1.501712445204D+02 PE=-4.217080333841D+02 EE= 8.825100352286D+01
 Annihilation of the first spin contaminant:
 S**2 before annihilation     0.7535,   after     0.7500
 Leave Link  502 at Wed Feb 23 16:42:15 2022, MaxMem= 17179869184 cpu:              12.1 elap:               0.6
 (Enter /home/saurabh/gaussian/g16/l801.exe)
 DoSCS=F DFT=T ScalE2(SS,OS)=  1.000000  1.000000
 Range of M.O.s used for correlation:     1    74
 NBasis=    74 NAE=     9 NBE=     8 NFC=     0 NFV=     0
 NROrb=     74 NOA=     9 NOB=     8 NVA=    65 NVB=    66
 Leave Link  801 at Wed Feb 23 16:42:15 2022, MaxMem= 17179869184 cpu:               0.4 elap:               0.0
 (Enter /home/saurabh/gaussian/g16/l1101.exe)
 Using compressed storage, NAtomX=     3.
 Will process      4 centers per pass.
 Leave Link 1101 at Wed Feb 23 16:42:15 2022, MaxMem= 17179869184 cpu:               3.2 elap:               0.2
 (Enter /home/saurabh/gaussian/g16/l1102.exe)
 Symmetrizing basis deriv contribution to polar:
 IMax=3 JMax=2 DiffMx= 0.00D+00
 Leave Link 1102 at Wed Feb 23 16:42:15 2022, MaxMem= 17179869184 cpu:               0.4 elap:               0.0
 (Enter /home/saurabh/gaussian/g16/l1110.exe)
 Forming Gx(P) for the SCF density, NAtomX=     3.
 Integral derivatives from FoFJK, PRISM(SPDF).
 Do as many integral derivatives as possible in FoFJK.
 G2DrvN: MDV=   17179868751.
 G2DrvN: will do     4 centers at a time, making    1 passes.
 Calling FoFCou, ICntrl=  3107 FMM=F I1Cent=   0 AccDes= 0.00D+00.
 FoFJK:  IHMeth= 1 ICntrl=    3107 DoSepK=F KAlg= 0 I1Cent=           0 FoldK=F
 IRaf=         0 NMat=       1 IRICut=       1 DoRegI=T DoRafI=F ISym2E= 1 IDoP0=0 IntGTp=1.
 FoFCou: FMM=F IPFlag=           0 FMFlag=      100000 FMFlg1=           0
         NFxFlg=           0 DoJE=F BraDBF=F KetDBF=F FulRan=T
         wScrn=  0.000000 ICntrl=      3107 IOpCl=  1 I1Cent=           0 NGrid=           0
         NMat0=    1 NMatS0=      1 NMatT0=    0 NMatD0=    1 NMtDS0=    0 NMtDT0=    0
 Petite list used in FoFCou.
 End of G2Drv F.D. properties file   721 does not exist.
 End of G2Drv F.D. properties file   722 does not exist.
 End of G2Drv F.D. properties file   788 does not exist.
 Leave Link 1110 at Wed Feb 23 16:42:16 2022, MaxMem= 17179869184 cpu:              15.3 elap:               0.7
 (Enter /home/saurabh/gaussian/g16/l1002.exe)
 Minotr:  UHF open shell wavefunction.
          IDoAtm=111
          Direct CPHF calculation.
          Differentiating once with respect to nuclear coordinates.
          Using symmetry in CPHF.
          Requested convergence is 1.0D-08 RMS, and 1.0D-07 maximum.
          Secondary convergence is 1.0D-12 RMS, and 1.0D-12 maximum.
          NewPWx=T KeepS1=F KeepF1=F KeepIn=T MapXYZ=F SortEE=F KeepMc=T.
          888 words used for storage of precomputed grid.
 Keep R1 and R2 ints in memory in symmetry-blocked form, NReq=23874200.
 FoFCou: FMM=F IPFlag=           0 FMFlag=           0 FMFlg1=           0
         NFxFlg=           0 DoJE=F BraDBF=F KetDBF=F FulRan=T
         wScrn=  0.000000 ICntrl=       600 IOpCl=  0 I1Cent=           0 NGrid=           0
         NMat0=    1 NMatS0=   2775 NMatT0=    0 NMatD0=    1 NMtDS0=    0 NMtDT0=    0
 Petite list used in FoFCou.
          MDV=   17179869184 using IRadAn=       1.
          Solving linear equations simultaneously, MaxMat=       0.
          There are    12 degrees of freedom in the 1st order CPHF.  IDoFFX=6 NUNeed=     0.
      6 vectors produced by pass  0 Test12= 9.28D-15 8.33D-09 XBig12= 1.55D-01 2.05D-01.
 AX will form     6 AO Fock derivatives at one time.
      6 vectors produced by pass  1 Test12= 9.28D-15 8.33D-09 XBig12= 2.68D-02 4.83D-02.
      6 vectors produced by pass  2 Test12= 9.28D-15 8.33D-09 XBig12= 1.78D-03 1.67D-02.
      6 vectors produced by pass  3 Test12= 9.28D-15 8.33D-09 XBig12= 5.00D-05 1.86D-03.
      6 vectors produced by pass  4 Test12= 9.28D-15 8.33D-09 XBig12= 1.52D-06 5.10D-04.
      6 vectors produced by pass  5 Test12= 9.28D-15 8.33D-09 XBig12= 2.95D-08 5.85D-05.
      6 vectors produced by pass  6 Test12= 9.28D-15 8.33D-09 XBig12= 2.26D-10 4.18D-06.
      5 vectors produced by pass  7 Test12= 9.28D-15 8.33D-09 XBig12= 1.57D-12 2.88D-07.
      3 vectors produced by pass  8 Test12= 9.28D-15 8.33D-09 XBig12= 1.43D-14 3.45D-08.
 InvSVY:  IOpt=1 It=  1 EMax= 5.55D-16
 Solved reduced A of dimension    50 with     6 vectors.
 End of Minotr F.D. properties file   721 does not exist.
 End of Minotr F.D. properties file   722 does not exist.
 End of Minotr F.D. properties file   788 does not exist.
 Leave Link 1002 at Wed Feb 23 16:42:17 2022, MaxMem= 17179869184 cpu:              18.3 elap:               0.9
 (Enter /home/saurabh/gaussian/g16/l601.exe)
 Copying SCF densities to generalized density rwf, IOpCl= 1 IROHF=0.

 **********************************************************************

            Population analysis using the SCF Density.

 **********************************************************************

 Orbital symmetries:
 Alpha Orbitals:
       Occupied  (A') (A') (A') (A') (A') (A") (A') (A") (A')
       Virtual   (A') (A') (A') (A') (A') (A") (A') (A") (A') (A")
                 (A') (A') (A') (A") (A') (A") (A') (A') (A") (A')
                 (A') (A") (A') (A') (A') (A") (A') (A") (A') (A")
                 (A') (A') (A") (A') (A') (A") (A') (A') (A") (A')
                 (A") (A') (A') (A") (A') (A') (A") (A') (A") (A")
                 (A') (A") (A') (A') (A") (A') (A') (A") (A') (A')
                 (A") (A') (A') (A') (A')
 Beta  Orbitals:
       Occupied  (A') (A') (A') (A') (A') (A') (A") (A')
       Virtual   (A") (A') (A') (A') (A') (A') (A") (A') (A') (A")
                 (A") (A') (A') (A') (A") (A') (A") (A') (A') (A")
                 (A') (A') (A") (A') (A') (A') (A") (A') (A") (A')
                 (A") (A') (A') (A") (A') (A') (A") (A') (A') (A")
                 (A') (A") (A') (A') (A") (A') (A') (A") (A') (A")
                 (A") (A') (A") (A') (A') (A") (A') (A') (A") (A')
                 (A') (A") (A') (A') (A') (A')
 The electronic state is 2-A".
 Alpha  occ. eigenvalues --  -19.25858 -19.21252  -1.20861  -0.87273  -0.56924
 Alpha  occ. eigenvalues --   -0.50323  -0.48809  -0.30614  -0.30045
 Alpha virt. eigenvalues --    0.00697   0.10666   0.34583   0.48178   0.50312
 Alpha virt. eigenvalues --    0.50774   0.56075   0.61465   0.62274   0.68308
 Alpha virt. eigenvalues --    0.75916   0.89330   1.08750   1.24926   1.29175
 Alpha virt. eigenvalues --    1.40670   1.47362   1.51039   1.75847   1.86051
 Alpha virt. eigenvalues --    1.92831   2.08599   2.15871   2.17970   2.47657
 Alpha virt. eigenvalues --    3.15242   3.19964   3.28096   3.43018   3.52203
 Alpha virt. eigenvalues --    3.56163   3.63301   3.65633   3.70830   3.96828
 Alpha virt. eigenvalues --    3.99342   4.25108   4.48444   4.66116   4.71745
 Alpha virt. eigenvalues --    4.84019   4.85268   4.97040   5.08218   5.12069
 Alpha virt. eigenvalues --    5.25920   5.58666   5.93433   6.08388   6.11682
 Alpha virt. eigenvalues --    6.15288   6.26251   6.27908   6.29809   6.30227
 Alpha virt. eigenvalues --    6.35458   6.43445   6.52263   6.73857   6.87021
 Alpha virt. eigenvalues --    6.98781   7.17290   7.49471   8.79829  11.26014
  Beta  occ. eigenvalues --  -19.24965 -19.19190  -1.18160  -0.83118  -0.55461
  Beta  occ. eigenvalues --   -0.47269  -0.42415  -0.28204
  Beta virt. eigenvalues --   -0.12162   0.00998   0.12659   0.34795   0.48467
  Beta virt. eigenvalues --    0.50802   0.53413   0.56762   0.62857   0.65500
  Beta virt. eigenvalues --    0.69084   0.76172   0.90470   1.09618   1.27489
  Beta virt. eigenvalues --    1.30499   1.43697   1.48005   1.54174   1.77800
  Beta virt. eigenvalues --    1.86622   1.94444   2.11799   2.16225   2.19343
  Beta virt. eigenvalues --    2.47941   3.15941   3.20209   3.30543   3.43599
  Beta virt. eigenvalues --    3.56113   3.57266   3.63485   3.70436   3.71218
  Beta virt. eigenvalues --    3.97375   4.01173   4.25726   4.49401   4.69401
  Beta virt. eigenvalues --    4.73647   4.86399   4.87757   4.99613   5.13438
  Beta virt. eigenvalues --    5.16179   5.28623   5.61202   5.94730   6.13366
  Beta virt. eigenvalues --    6.17657   6.20860   6.30306   6.30889   6.31820
  Beta virt. eigenvalues --    6.34918   6.37096   6.45114   6.54855   6.75316
  Beta virt. eigenvalues --    6.88022   7.02432   7.17930   7.51121   8.82167
  Beta virt. eigenvalues --   11.27665
          Condensed to atoms (all electrons):
               1          2          3
     1  O    8.100168   0.097476  -0.037431
     2  O    0.097476   7.665314   0.317101
     3  H   -0.037431   0.317101   0.480226
          Atomic-Atomic Spin Densities.
               1          2          3
     1  O    0.871899  -0.132513  -0.001112
     2  O   -0.132513   0.397851   0.004055
     3  H   -0.001112   0.004055  -0.010611
 Mulliken charges and spin densities:
               1          2
     1  O   -0.160213   0.738275
     2  O   -0.079891   0.269393
     3  H    0.240104  -0.007668
 Sum of Mulliken charges =  -0.00000   1.00000
 Mulliken charges and spin densities with hydrogens summed into heavy atoms:
               1          2
     1  O   -0.160213   0.738275
     2  O    0.160213   0.261725
 APT charges:
               1
     1  O   -0.151929
     2  O   -0.290445
     3  H    0.442374
 Sum of APT charges =  -0.00000
 APT charges with hydrogens summed into heavy atoms:
               1
     1  O   -0.151929
     2  O    0.151929
 Electronic spatial extent (au):  <R**2>=             54.0315
 Charge=             -0.0000 electrons
 Dipole moment (field-independent basis, Debye):
    X=             -1.7222    Y=             -1.4137    Z=              0.0000  Tot=              2.2281
 Quadrupole moment (field-independent basis, Debye-Ang):
   XX=             -9.7601   YY=            -10.9197   ZZ=            -10.8539
   XY=              1.5929   XZ=             -0.0000   YZ=             -0.0000
 Traceless Quadrupole moment (field-independent basis, Debye-Ang):
   XX=              0.7511   YY=             -0.4085   ZZ=             -0.3427
   XY=              1.5929   XZ=             -0.0000   YZ=             -0.0000
 Octapole moment (field-independent basis, Debye-Ang**2):
  XXX=             -2.1693  YYY=             -1.5556  ZZZ=             -0.0000  XYY=             -1.6244
  XXY=             -1.9654  XXZ=              0.0000  XZZ=             -0.1667  YZZ=              0.0769
  YYZ=              0.0000  XYZ=              0.0000
 Hexadecapole moment (field-independent basis, Debye-Ang**3):
 XXXX=             -8.9575 YYYY=            -35.7386 ZZZZ=             -7.7343 XXXY=              0.2013
 XXXZ=             -0.0000 YYYX=              0.2600 YYYZ=              0.0000 ZZZX=              0.0000
 ZZZY=              0.0000 XXYY=             -7.3931 XXZZ=             -3.0702 YYZZ=             -7.6214
 XXYZ=             -0.0000 YYXZ=             -0.0000 ZZXY=             -0.3481
 N-N= 3.231765544045D+01 E-N=-4.217080328975D+02  KE= 1.501712445204D+02
 Symmetry A'   KE= 1.427609678739D+02
 Symmetry A"   KE= 7.410276646472D+00
 Symmetry A'   SP= 2.577001559977D-15
 Symmetry A"   SP= 1.000000000000D+00
  Exact polarizability:       0.000       0.000       0.000       0.000       0.000       0.000
 Approx polarizability:      11.070       2.016      24.285      -0.000       0.000       7.602
                          Isotropic Fermi Contact Couplings
        Atom                 a.u.       MegaHertz       Gauss      10(-4) cm-1
     1  O(17)              0.04171     -25.28635      -9.02280      -8.43462
     2  O(17)              0.03050     -18.48877      -6.59725      -6.16719
     3  H(1)              -0.00579     -25.89584      -9.24028      -8.63792
 --------------------------------------------------------
       Center         ----  Spin Dipole Couplings  ----
                      3XX-RR        3YY-RR        3ZZ-RR
 --------------------------------------------------------
     1   Atom       -1.631164     -1.645856      3.277019
     2   Atom       -0.729467     -0.773379      1.502846
     3   Atom        0.047149     -0.022792     -0.024357
 --------------------------------------------------------
                        XY            XZ            YZ
 --------------------------------------------------------
     1   Atom       -0.006320     -0.000000     -0.000000
     2   Atom        0.026805      0.000000      0.000000
     3   Atom        0.038504     -0.000000     -0.000000
 --------------------------------------------------------


 ---------------------------------------------------------------------------------
              Anisotropic Spin Dipole Couplings in Principal Axis System
 ---------------------------------------------------------------------------------

       Atom             a.u.   MegaHertz   Gauss  10(-4) cm-1        Axes

              Baa    -1.6482   119.263    42.556    39.782  0.3478  0.9376 -0.0000
     1 O(17)  Bbb    -1.6288   117.860    42.055    39.314  0.9376 -0.3478 -0.0000
              Bcc     3.2770  -237.123   -84.611   -79.096  0.0000  0.0000  1.0000
 
              Baa    -0.7861    56.880    20.296    18.973 -0.4280  0.9038 -0.0000
     2 O(17)  Bbb    -0.7168    51.865    18.507    17.300  0.9038  0.4280  0.0000
              Bcc     1.5028  -108.745   -38.803   -36.273  0.0000  0.0000  1.0000
 
              Baa    -0.0398   -21.255    -7.584    -7.090 -0.4048  0.9144 -0.0000
     3 H(1)   Bbb    -0.0244   -12.996    -4.637    -4.335  0.0000  0.0000  1.0000
              Bcc     0.0642    34.250    12.221    11.425  0.9144  0.4048 -0.0000
 

 ---------------------------------------------------------------------------------

 No NMR shielding tensors so no spin-rotation constants.
 Leave Link  601 at Wed Feb 23 16:42:17 2022, MaxMem= 17179869184 cpu:               4.8 elap:               0.3
 (Enter /home/saurabh/gaussian/g16/l701.exe)
 ... and contract with generalized density number  0.
 Compute integral second derivatives.
 Leave Link  701 at Wed Feb 23 16:42:17 2022, MaxMem= 17179869184 cpu:               4.4 elap:               0.2
 (Enter /home/saurabh/gaussian/g16/l702.exe)
 L702 exits ... SP integral derivatives will be done elsewhere.
 Leave Link  702 at Wed Feb 23 16:42:17 2022, MaxMem= 17179869184 cpu:               0.4 elap:               0.0
 (Enter /home/saurabh/gaussian/g16/l703.exe)
 Integral derivatives from FoFJK, PRISM(SPDF).
 Compute integral second derivatives, UseDBF=F ICtDFT=           0.
 Calling FoFJK, ICntrl=    100127 FMM=F ISym2X=1 I1Cent= 0 IOpClX= 1 NMat=1 NMatS=1 NMatT=0.
 FoFJK:  IHMeth= 1 ICntrl=  100127 DoSepK=F KAlg= 0 I1Cent=           0 FoldK=F
 IRaf=         0 NMat=       1 IRICut=       1 DoRegI=T DoRafI=F ISym2E= 1 IDoP0=0 IntGTp=1.
 FoFCou: FMM=F IPFlag=           0 FMFlag=      100000 FMFlg1=         800
         NFxFlg=           0 DoJE=F BraDBF=F KetDBF=F FulRan=T
         wScrn=  0.000000 ICntrl=    100127 IOpCl=  1 I1Cent=           0 NGrid=           0
         NMat0=    1 NMatS0=      1 NMatT0=    0 NMatD0=    1 NMtDS0=    0 NMtDT0=    0
 Petite list used in FoFCou.
 Leave Link  703 at Wed Feb 23 16:42:19 2022, MaxMem= 17179869184 cpu:              30.0 elap:               1.4
 (Enter /home/saurabh/gaussian/g16/l716.exe)
 Dipole        =-6.77570060D-01-5.56179911D-01 7.23308848D-33
 Polarizability= 0.00000000D+00 0.00000000D+00 0.00000000D+00
                 0.00000000D+00 0.00000000D+00 0.00000000D+00
 ***** Axes restored to original set *****
 -------------------------------------------------------------------
 Center     Atomic                   Forces (Hartrees/Bohr)
 Number     Number              X              Y              Z
 -------------------------------------------------------------------
      1        8          -0.011541923    0.002617027   -0.000000000
      2        8           0.016725642    0.008728798    0.000000000
      3        1          -0.005183720   -0.011345825   -0.000000000
 -------------------------------------------------------------------
 Cartesian Forces:  Max     0.016725642 RMS     0.008508835
 Force constants in Cartesian coordinates: 
                1             2             3             4             5 
      1  0.434494D+00
      2 -0.133853D+00  0.761196D-01
      3  0.000000D+00  0.000000D+00 -0.445884D-02
      4 -0.370873D+00  0.148024D+00  0.000000D+00  0.503229D+00
      5  0.111455D+00 -0.106076D+00  0.000000D+00  0.362978D-01  0.430115D+00
      6  0.000000D+00  0.000000D+00  0.329432D-02  0.000000D+00  0.000000D+00
      7 -0.636201D-01 -0.141712D-01  0.000000D+00 -0.132356D+00 -0.147753D+00
      8  0.223973D-01  0.299559D-01  0.000000D+00 -0.184322D+00 -0.324039D+00
      9  0.000000D+00  0.000000D+00  0.116452D-02  0.000000D+00  0.000000D+00
                6             7             8             9 
      6  0.474049D-02
      7  0.000000D+00  0.195976D+00
      8  0.000000D+00  0.161924D+00  0.294083D+00
      9 -0.803481D-02  0.000000D+00  0.000000D+00  0.687029D-02
 FormGI is forming the generalized inverse of G from B-inverse, IUseBI=4.
 Force constants in internal coordinates: 
                1             2             3 
      1  0.475969D+00
      2  0.252882D-01  0.414116D+00
      3  0.886726D-01 -0.140090D-01  0.243196D+00
 Leave Link  716 at Wed Feb 23 16:42:19 2022, MaxMem= 17179869184 cpu:               0.5 elap:               0.0
 (Enter /home/saurabh/gaussian/g16/l103.exe)

 GradGradGradGradGradGradGradGradGradGradGradGradGradGradGradGradGradGrad
 Berny optimization.
 Red2BG is reusing G-inverse.
 Internal  Forces:  Max     0.012152664 RMS     0.010181287
 Search for a local minimum.
 Step number   1 out of a maximum of  100
 All quantities printed in internal units (Hartrees-Bohrs-Radians)
 RMS Force = .10181D-01 SwitMx=.10000D-02 MixMth= 1
 Mixed Optimization -- RFO/linear search
 Second derivative matrix not updated -- analytic derivatives used.
 The second derivative matrix:
                          R1        R2        A1
           R1           0.47597
           R2           0.02529   0.41412
           A1           0.08867  -0.01401   0.24320
 ITU=  0
     Eigenvalues ---    0.21101   0.41235   0.50992
 RFO step:  Lambda=-7.06867222D-04 EMin= 2.11005185D-01
 Linear search not attempted -- first point.
 Iteration  1 RMS(Cart)=  0.01658054 RMS(Int)=  0.00006998
 Iteration  2 RMS(Cart)=  0.00004963 RMS(Int)=  0.00000000
 Iteration  3 RMS(Cart)=  0.00000000 RMS(Int)=  0.00000000
 ITry= 1 IFail=0 DXMaxC= 1.58D-02 DCOld= 1.00D+10 DXMaxT= 3.00D-01 DXLimC= 3.00D+00 Rises=F
 ClnCor:  largest displacement from symmetrization is 4.93D-32 for atom     1.
 Variable       Old X    -DE/DX   Delta X   Delta X   Delta X     New X
                                 (Linear)    (Quad)   (Total)
    R1        2.48689   0.01164   0.00000   0.02397   0.02397   2.51086
    R2        1.87130  -0.01215   0.00000  -0.03038  -0.03038   1.84092
    A1        1.82403   0.00526   0.00000   0.01112   0.01112   1.83515
         Item               Value     Threshold  Converged?
 Maximum Force            0.012153     0.000450     NO 
 RMS     Force            0.010181     0.000300     NO 
 Maximum Displacement     0.015806     0.001800     NO 
 RMS     Displacement     0.016587     0.001200     NO 
 Predicted change in Energy=-3.540076D-04
 Lowest energy point so far.  Saving SCF results.
 GradGradGradGradGradGradGradGradGradGradGradGradGradGradGradGradGradGrad

 Leave Link  103 at Wed Feb 23 16:42:19 2022, MaxMem= 17179869184 cpu:               0.5 elap:               0.1
 (Enter /home/saurabh/gaussian/g16/l202.exe)
                          Input orientation:                          
 ---------------------------------------------------------------------
 Center     Atomic      Atomic             Coordinates (Angstroms)
 Number     Number       Type             X           Y           Z
 ---------------------------------------------------------------------
      1          8           0       -5.041008    4.174286   -0.000000
      2          8           0       -3.813756    3.665095    0.000000
      3          1           0       -3.218287    4.436089    0.000000
 ---------------------------------------------------------------------
                    Distance matrix (angstroms):
                    1          2          3
     1  O    0.000000
     2  O    1.328692   0.000000
     3  H    1.841427   0.974174   0.000000
 Stoichiometry    HO2(2)
 Framework group  CS[SG(HO2)]
 Deg. of freedom     3
 Full point group                 CS      NOp   2
 RotChk:  IX=0 Diff= 1.34D-02
 Largest Abelian subgroup         CS      NOp   2
 Largest concise Abelian subgroup C1      NOp   1
                         Standard orientation:                         
 ---------------------------------------------------------------------
 Center     Atomic      Atomic             Coordinates (Angstroms)
 Number     Number       Type             X           Y           Z
 ---------------------------------------------------------------------
      1          8           0        0.055314    0.718398   -0.000000
      2          8           0        0.055314   -0.610294    0.000000
      3          1           0       -0.885018   -0.864835    0.000000
 ---------------------------------------------------------------------
 Rotational constants (GHZ):         621.2503028          33.7047358          31.9702516
 Leave Link  202 at Wed Feb 23 16:42:19 2022, MaxMem= 17179869184 cpu:               0.2 elap:               0.0
 (Enter /home/saurabh/gaussian/g16/l301.exe)
 Standard basis: CC-pVTZ+d (5D, 7F)
 Ernie: Thresh=  0.10000D-02 Tol=  0.10000D-05 Strict=F.
 Ernie:  6 primitive shells out of 60 were deleted.
 There are    59 symmetry adapted cartesian basis functions of A'  symmetry.
 There are    26 symmetry adapted cartesian basis functions of A"  symmetry.
 There are    50 symmetry adapted basis functions of A'  symmetry.
 There are    24 symmetry adapted basis functions of A"  symmetry.
    74 basis functions,   121 primitive gaussians,    85 cartesian basis functions
     9 alpha electrons        8 beta electrons
       nuclear repulsion energy        32.1338676878 Hartrees.
 IExCor=  402 DFT=T Ex+Corr=B3LYP ExCW=0 ScaHFX=  0.200000
 ScaDFX=  0.800000  0.720000  1.000000  0.810000 ScalE2=  1.000000  1.000000
 IRadAn=      5 IRanWt=     -1 IRanGd=            0 ICorTp=0 IEmpDi=  4
 NAtoms=    3 NActive=    3 NUniq=    3 SFac= 1.00D+00 NAtFMM=   60 NAOKFM=F Big=F
 Integral buffers will be    131072 words long.
 Raffenetti 2 integral format.
 Two-electron integral symmetry is turned on.
 Leave Link  301 at Wed Feb 23 16:42:19 2022, MaxMem= 17179869184 cpu:               1.1 elap:               0.1
 (Enter /home/saurabh/gaussian/g16/l302.exe)
 NPDir=0 NMtPBC=     1 NCelOv=     1 NCel=       1 NClECP=     1 NCelD=      1
         NCelK=      1 NCelE2=     1 NClLst=     1 CellRange=     0.0.
 One-electron integrals computed using PRISM.
 One-electron integral symmetry used in STVInt
 NBasis=    74 RedAO= T EigKep=  3.11D-03  NBF=    50    24
 NBsUse=    74 1.00D-06 EigRej= -1.00D+00 NBFU=    50    24
 Precomputing XC quadrature grid using
 IXCGrd= 4 IRadAn=           5 IRanWt=          -1 IRanGd=           0 AccXCQ= 0.00D+00.
 Generated NRdTot=       0 NPtTot=           0 NUsed=           0 NTot=          32
 NSgBfM=    85    85    85    85    85 MxSgAt=     3 MxSgA2=     3.
 Leave Link  302 at Wed Feb 23 16:42:19 2022, MaxMem= 17179869184 cpu:               3.0 elap:               0.2
 (Enter /home/saurabh/gaussian/g16/l303.exe)
 DipDrv:  MaxL=1.
 Leave Link  303 at Wed Feb 23 16:42:19 2022, MaxMem= 17179869184 cpu:               0.4 elap:               0.0
 (Enter /home/saurabh/gaussian/g16/l401.exe)
 Initial guess from the checkpoint file:  "OOH_w1u.chk"
 B after Tr=     0.000000   -0.000000   -0.000000
         Rot=    0.999999    0.000000   -0.000000   -0.001575 Ang=  -0.18 deg.
 Guess basis will be translated and rotated to current coordinates.
 JPrj=2 DoOrth=T DoCkMO=T.
 Initial guess orbital symmetries:
 Alpha Orbitals:
       Occupied  (A') (A') (A') (A') (A') (A") (A') (A") (A')
       Virtual   (A') (A') (A') (A') (A') (A") (A') (A") (A') (A")
                 (A') (A') (A') (A") (A') (A") (A') (A') (A") (A')
                 (A') (A") (A') (A') (A') (A") (A') (A") (A') (A")
                 (A') (A') (A") (A') (A') (A") (A') (A') (A") (A')
                 (A") (A') (A') (A") (A') (A') (A") (A') (A") (A")
                 (A') (A") (A') (A') (A") (A') (A') (A") (A') (A')
                 (A") (A') (A') (A') (A')
 Beta  Orbitals:
       Occupied  (A') (A') (A') (A') (A') (A') (A") (A')
       Virtual   (A") (A') (A') (A') (A') (A') (A") (A') (A') (A")
                 (A") (A') (A') (A') (A") (A') (A") (A') (A') (A")
                 (A') (A') (A") (A') (A') (A') (A") (A') (A") (A')
                 (A") (A') (A') (A") (A') (A') (A") (A') (A') (A")
                 (A') (A") (A') (A') (A") (A') (A') (A") (A') (A")
                 (A") (A') (A") (A') (A') (A") (A') (A') (A") (A')
                 (A') (A") (A') (A') (A') (A')
 The electronic state of the initial guess is 2-A".
 Initial guess <Sx>= 0.0000 <Sy>= 0.0000 <Sz>= 0.5000 <S**2>= 0.7535 S= 0.5017
 Leave Link  401 at Wed Feb 23 16:42:19 2022, MaxMem= 17179869184 cpu:               1.7 elap:               0.1
 (Enter /home/saurabh/gaussian/g16/l502.exe)
 Keep R1 and R2 ints in memory in symmetry-blocked form, NReq=23948333.
 FoFCou: FMM=F IPFlag=           0 FMFlag=           0 FMFlg1=           0
         NFxFlg=           0 DoJE=F BraDBF=F KetDBF=F FulRan=T
         wScrn=  0.000000 ICntrl=       600 IOpCl=  0 I1Cent=           0 NGrid=           0
         NMat0=    1 NMatS0=   2775 NMatT0=    0 NMatD0=    1 NMtDS0=    0 NMtDT0=    0
 Petite list used in FoFCou.
 UHF open shell SCF:
 Using DIIS extrapolation, IDIIS=  1040.
 NGot= 17179869184 LenX= 17175921837 LenY= 17175914171
 Requested convergence on RMS density matrix=1.00D-08 within1000 cycles.
 Requested convergence on MAX density matrix=1.00D-06.
 Requested convergence on             energy=1.00D-06.
 No special actions if energy rises.

 Cycle   1  Pass 1  IDiag  1:
 E= -150.968289082440    
 DIIS: error= 1.53D-03 at cycle   1 NSaved=   1.
 NSaved= 1 IEnMin= 1 EnMin= -150.968289082440     IErMin= 1 ErrMin= 1.53D-03
 ErrMax= 1.53D-03  0.00D+00 EMaxC= 1.00D-01 BMatC= 7.36D-04 BMatP= 7.36D-04
 IDIUse=3 WtCom= 9.85D-01 WtEn= 1.53D-02
 Coeff-Com:  0.100D+01
 Coeff-En:   0.100D+01
 Coeff:      0.100D+01
 Gap=     0.329 Goal=   None    Shift=    0.000
 Gap=     0.160 Goal=   None    Shift=    0.000
 GapD=    0.160 DampG=1.000 DampE=1.000 DampFc=1.0000 IDamp=-1.
 RMSDP=1.74D-04 MaxDP=1.87D-03              OVMax= 6.38D-03

 Cycle   2  Pass 1  IDiag  1:
 E= -150.968452185322     Delta-E=       -0.000163102882 Rises=F Damp=F
 DIIS: error= 6.98D-04 at cycle   2 NSaved=   2.
 NSaved= 2 IEnMin= 2 EnMin= -150.968452185322     IErMin= 2 ErrMin= 6.98D-04
 ErrMax= 6.98D-04  0.00D+00 EMaxC= 1.00D-01 BMatC= 1.56D-04 BMatP= 7.36D-04
 IDIUse=3 WtCom= 9.93D-01 WtEn= 6.98D-03
 Coeff-Com:  0.198D+00 0.802D+00
 Coeff-En:   0.000D+00 0.100D+01
 Coeff:      0.197D+00 0.803D+00
 Gap=     0.314 Goal=   None    Shift=    0.000
 Gap=     0.160 Goal=   None    Shift=    0.000
 RMSDP=8.63D-05 MaxDP=1.59D-03 DE=-1.63D-04 OVMax= 6.43D-03

 Cycle   3  Pass 1  IDiag  1:
 E= -150.968408969581     Delta-E=        0.000043215741 Rises=F Damp=F
 DIIS: error= 1.15D-03 at cycle   3 NSaved=   3.
 NSaved= 3 IEnMin= 2 EnMin= -150.968452185322     IErMin= 2 ErrMin= 6.98D-04
 ErrMax= 1.15D-03  0.00D+00 EMaxC= 1.00D-01 BMatC= 4.15D-04 BMatP= 1.56D-04
 IDIUse=3 WtCom= 2.28D-01 WtEn= 7.72D-01
 Coeff-Com: -0.150D-02 0.623D+00 0.378D+00
 Coeff-En:   0.000D+00 0.676D+00 0.324D+00
 Coeff:     -0.341D-03 0.664D+00 0.336D+00
 Gap=     0.313 Goal=   None    Shift=    0.000
 Gap=     0.160 Goal=   None    Shift=    0.000
 RMSDP=4.71D-05 MaxDP=9.43D-04 DE= 4.32D-05 OVMax= 4.10D-03

 Cycle   4  Pass 1  IDiag  1:
 E= -150.968477710761     Delta-E=       -0.000068741180 Rises=F Damp=F
 DIIS: error= 1.95D-04 at cycle   4 NSaved=   4.
 NSaved= 4 IEnMin= 4 EnMin= -150.968477710761     IErMin= 4 ErrMin= 1.95D-04
 ErrMax= 1.95D-04  0.00D+00 EMaxC= 1.00D-01 BMatC= 5.77D-06 BMatP= 1.56D-04
 IDIUse=3 WtCom= 9.98D-01 WtEn= 1.95D-03
 Coeff-Com: -0.983D-02 0.130D+00-0.229D-01 0.903D+00
 Coeff-En:   0.000D+00 0.000D+00 0.000D+00 0.100D+01
 Coeff:     -0.982D-02 0.129D+00-0.229D-01 0.903D+00
 Gap=     0.313 Goal=   None    Shift=    0.000
 Gap=     0.160 Goal=   None    Shift=    0.000
 RMSDP=8.24D-06 MaxDP=1.88D-04 DE=-6.87D-05 OVMax= 8.69D-04

 Cycle   5  Pass 1  IDiag  1:
 E= -150.968478815521     Delta-E=       -0.000001104760 Rises=F Damp=F
 DIIS: error= 2.28D-05 at cycle   5 NSaved=   5.
 NSaved= 5 IEnMin= 5 EnMin= -150.968478815521     IErMin= 5 ErrMin= 2.28D-05
 ErrMax= 2.28D-05  0.00D+00 EMaxC= 1.00D-01 BMatC= 1.36D-07 BMatP= 5.77D-06
 IDIUse=1 WtCom= 1.00D+00 WtEn= 0.00D+00
 Coeff-Com: -0.336D-03-0.127D-01-0.938D-02 0.130D+00 0.892D+00
 Coeff:     -0.336D-03-0.127D-01-0.938D-02 0.130D+00 0.892D+00
 Gap=     0.313 Goal=   None    Shift=    0.000
 Gap=     0.160 Goal=   None    Shift=    0.000
 RMSDP=2.02D-06 MaxDP=3.88D-05 DE=-1.10D-06 OVMax= 9.44D-05

 Cycle   6  Pass 1  IDiag  1:
 E= -150.968478849458     Delta-E=       -0.000000033937 Rises=F Damp=F
 DIIS: error= 1.12D-05 at cycle   6 NSaved=   6.
 NSaved= 6 IEnMin= 6 EnMin= -150.968478849458     IErMin= 6 ErrMin= 1.12D-05
 ErrMax= 1.12D-05  0.00D+00 EMaxC= 1.00D-01 BMatC= 2.78D-08 BMatP= 1.36D-07
 IDIUse=1 WtCom= 1.00D+00 WtEn= 0.00D+00
 Coeff-Com:  0.571D-03-0.204D-01 0.201D-02-0.510D-01 0.307D+00 0.762D+00
 Coeff:      0.571D-03-0.204D-01 0.201D-02-0.510D-01 0.307D+00 0.762D+00
 Gap=     0.313 Goal=   None    Shift=    0.000
 Gap=     0.160 Goal=   None    Shift=    0.000
 RMSDP=8.28D-07 MaxDP=2.08D-05 DE=-3.39D-08 OVMax= 5.99D-05

 Cycle   7  Pass 1  IDiag  1:
 E= -150.968478856737     Delta-E=       -0.000000007279 Rises=F Damp=F
 DIIS: error= 4.25D-06 at cycle   7 NSaved=   7.
 NSaved= 7 IEnMin= 7 EnMin= -150.968478856737     IErMin= 7 ErrMin= 4.25D-06
 ErrMax= 4.25D-06  0.00D+00 EMaxC= 1.00D-01 BMatC= 4.62D-09 BMatP= 2.78D-08
 IDIUse=1 WtCom= 1.00D+00 WtEn= 0.00D+00
 Coeff-Com:  0.413D-03-0.251D-02 0.557D-02-0.579D-01-0.187D+00 0.213D+00
 Coeff-Com:  0.103D+01
 Coeff:      0.413D-03-0.251D-02 0.557D-02-0.579D-01-0.187D+00 0.213D+00
 Coeff:      0.103D+01
 Gap=     0.313 Goal=   None    Shift=    0.000
 Gap=     0.160 Goal=   None    Shift=    0.000
 RMSDP=5.83D-07 MaxDP=1.11D-05 DE=-7.28D-09 OVMax= 4.32D-05

 Cycle   8  Pass 1  IDiag  1:
 E= -150.968478858531     Delta-E=       -0.000000001794 Rises=F Damp=F
 DIIS: error= 4.69D-07 at cycle   8 NSaved=   8.
 NSaved= 8 IEnMin= 8 EnMin= -150.968478858531     IErMin= 8 ErrMin= 4.69D-07
 ErrMax= 4.69D-07  0.00D+00 EMaxC= 1.00D-01 BMatC= 8.40D-11 BMatP= 4.62D-09
 IDIUse=1 WtCom= 1.00D+00 WtEn= 0.00D+00
 Coeff-Com: -0.621D-05 0.143D-02 0.274D-03 0.623D-04-0.451D-01-0.141D-01
 Coeff-Com:  0.115D+00 0.942D+00
 Coeff:     -0.621D-05 0.143D-02 0.274D-03 0.623D-04-0.451D-01-0.141D-01
 Coeff:      0.115D+00 0.942D+00
 Gap=     0.313 Goal=   None    Shift=    0.000
 Gap=     0.160 Goal=   None    Shift=    0.000
 RMSDP=8.05D-08 MaxDP=1.25D-06 DE=-1.79D-09 OVMax= 4.27D-06

 Cycle   9  Pass 1  IDiag  1:
 E= -150.968478858566     Delta-E=       -0.000000000035 Rises=F Damp=F
 DIIS: error= 1.76D-07 at cycle   9 NSaved=   9.
 NSaved= 9 IEnMin= 9 EnMin= -150.968478858566     IErMin= 9 ErrMin= 1.76D-07
 ErrMax= 1.76D-07  0.00D+00 EMaxC= 1.00D-01 BMatC= 6.35D-12 BMatP= 8.40D-11
 IDIUse=1 WtCom= 1.00D+00 WtEn= 0.00D+00
 Coeff-Com: -0.284D-04 0.741D-04-0.470D-03 0.408D-02 0.131D-01-0.821D-02
 Coeff-Com: -0.752D-01-0.105D+00 0.117D+01
 Coeff:     -0.284D-04 0.741D-04-0.470D-03 0.408D-02 0.131D-01-0.821D-02
 Coeff:     -0.752D-01-0.105D+00 0.117D+01
 Gap=     0.313 Goal=   None    Shift=    0.000
 Gap=     0.160 Goal=   None    Shift=    0.000
 RMSDP=2.66D-08 MaxDP=4.77D-07 DE=-3.48D-11 OVMax= 1.11D-06

 Cycle  10  Pass 1  IDiag  1:
 E= -150.968478858569     Delta-E=       -0.000000000004 Rises=F Damp=F
 DIIS: error= 6.38D-08 at cycle  10 NSaved=  10.
 NSaved=10 IEnMin=10 EnMin= -150.968478858569     IErMin=10 ErrMin= 6.38D-08
 ErrMax= 6.38D-08  0.00D+00 EMaxC= 1.00D-01 BMatC= 4.78D-13 BMatP= 6.35D-12
 IDIUse=1 WtCom= 1.00D+00 WtEn= 0.00D+00
 Coeff-Com:  0.540D-05-0.938D-04 0.516D-04-0.713D-03 0.132D-02 0.740D-03
 Coeff-Com:  0.532D-02-0.302D-01-0.240D+00 0.126D+01
 Coeff:      0.540D-05-0.938D-04 0.516D-04-0.713D-03 0.132D-02 0.740D-03
 Coeff:      0.532D-02-0.302D-01-0.240D+00 0.126D+01
 Gap=     0.313 Goal=   None    Shift=    0.000
 Gap=     0.160 Goal=   None    Shift=    0.000
 RMSDP=8.55D-09 MaxDP=1.61D-07 DE=-3.64D-12 OVMax= 4.61D-07

 SCF Done:  E(UB3LYP) =  -150.968478859     A.U. after   10 cycles
            NFock= 10  Conv=0.85D-08     -V/T= 2.0053
 <Sx>= 0.0000 <Sy>= 0.0000 <Sz>= 0.5000 <S**2>= 0.7535 S= 0.5017
 <L.S>=  0.00000000000    
 KE= 1.501693248070D+02 PE=-4.213390910156D+02 EE= 8.806741966215D+01
 Annihilation of the first spin contaminant:
 S**2 before annihilation     0.7535,   after     0.7500
 Leave Link  502 at Wed Feb 23 16:42:20 2022, MaxMem= 17179869184 cpu:              12.2 elap:               0.6
 (Enter /home/saurabh/gaussian/g16/l701.exe)
 ... and contract with generalized density number  0.
 Compute integral first derivatives.
 Leave Link  701 at Wed Feb 23 16:42:20 2022, MaxMem= 17179869184 cpu:               3.2 elap:               0.2
 (Enter /home/saurabh/gaussian/g16/l702.exe)
 L702 exits ... SP integral derivatives will be done elsewhere.
 Leave Link  702 at Wed Feb 23 16:42:20 2022, MaxMem= 17179869184 cpu:               0.4 elap:               0.0
 (Enter /home/saurabh/gaussian/g16/l703.exe)
 Integral derivatives from FoFJK, PRISM(SPDF).
 Compute integral first derivatives, UseDBF=F ICtDFT=           0.
 Calling FoFJK, ICntrl=      2127 FMM=F ISym2X=1 I1Cent= 0 IOpClX= 1 NMat=1 NMatS=1 NMatT=0.
 FoFJK:  IHMeth= 1 ICntrl=    2127 DoSepK=F KAlg= 0 I1Cent=           0 FoldK=F
 IRaf=         0 NMat=       1 IRICut=       1 DoRegI=T DoRafI=F ISym2E= 1 IDoP0=0 IntGTp=1.
 FoFCou: FMM=F IPFlag=           0 FMFlag=      100000 FMFlg1=         800
         NFxFlg=           0 DoJE=F BraDBF=F KetDBF=F FulRan=T
         wScrn=  0.000000 ICntrl=      2127 IOpCl=  1 I1Cent=           0 NGrid=           0
         NMat0=    1 NMatS0=      1 NMatT0=    0 NMatD0=    1 NMtDS0=    0 NMtDT0=    0
 Petite list used in FoFCou.
 Leave Link  703 at Wed Feb 23 16:42:21 2022, MaxMem= 17179869184 cpu:              10.1 elap:               0.5
 (Enter /home/saurabh/gaussian/g16/l716.exe)
 Dipole        =-6.72919789D-01-5.53531012D-01 2.62920459D-33
 ***** Axes restored to original set *****
 -------------------------------------------------------------------
 Center     Atomic                   Forces (Hartrees/Bohr)
 Number     Number              X              Y              Z
 -------------------------------------------------------------------
      1        8          -0.000388195    0.000095338   -0.000000000
      2        8          -0.000188304   -0.000706382    0.000000000
      3        1           0.000576499    0.000611044    0.000000000
 -------------------------------------------------------------------
 Cartesian Forces:  Max     0.000706382 RMS     0.000394397
 Leave Link  716 at Wed Feb 23 16:42:21 2022, MaxMem= 17179869184 cpu:               0.4 elap:               0.0
 (Enter /home/saurabh/gaussian/g16/l103.exe)

 GradGradGradGradGradGradGradGradGradGradGradGradGradGradGradGradGradGrad
 Berny optimization.
 Using GEDIIS/GDIIS optimizer.
 FormGI is forming the generalized inverse of G from B-inverse, IUseBI=4.
 Internal  Forces:  Max     0.000835980 RMS     0.000541044
 Search for a local minimum.
 Step number   2 out of a maximum of  100
 All quantities printed in internal units (Hartrees-Bohrs-Radians)
 RMS Force = .54104D-03 SwitMx=.10000D-02 MixMth= 2
 Mixed Optimization -- En-DIIS/RFO-DIIS
 Update second derivatives using D2CorX and points    1    2
 DE= -3.49D-04 DEPred=-3.54D-04 R= 9.86D-01
 TightC=F SS=  1.41D+00  RLast= 4.03D-02 DXNew= 5.0454D-01 1.2080D-01
 Trust test= 9.86D-01 RLast= 4.03D-02 DXMaxT set to 3.00D-01
 The second derivative matrix:
                          R1        R2        A1
           R1           0.45989
           R2           0.02254   0.43954
           A1           0.08182  -0.01573   0.24028
 ITU=  1  0
 Use linear search instead of GDIIS.
     Eigenvalues ---    0.21102   0.43637   0.49231
 RFO step:  Lambda=-1.64111762D-06 EMin= 2.11023072D-01
 Quartic linear search produced a step of -0.01932.
 Iteration  1 RMS(Cart)=  0.00114477 RMS(Int)=  0.00000032
 Iteration  2 RMS(Cart)=  0.00000033 RMS(Int)=  0.00000000
 ITry= 1 IFail=0 DXMaxC= 1.46D-03 DCOld= 1.00D+10 DXMaxT= 3.00D-01 DXLimC= 3.00D+00 Rises=F
 ClnCor:  largest displacement from symmetrization is 1.48D-31 for atom     1.
 Variable       Old X    -DE/DX   Delta X   Delta X   Delta X     New X
                                 (Linear)    (Quad)   (Total)
    R1        2.51086   0.00040  -0.00046   0.00115   0.00068   2.51155
    R2        1.84092   0.00084   0.00059   0.00129   0.00187   1.84280
    A1        1.83515   0.00015  -0.00021   0.00075   0.00053   1.83569
         Item               Value     Threshold  Converged?
 Maximum Force            0.000836     0.000450     NO 
 RMS     Force            0.000541     0.000300     NO 
 Maximum Displacement     0.001464     0.001800     YES
 RMS     Displacement     0.001145     0.001200     YES
 Predicted change in Energy=-9.615785D-07
 Lowest energy point so far.  Saving SCF results.
 GradGradGradGradGradGradGradGradGradGradGradGradGradGradGradGradGradGrad

 Leave Link  103 at Wed Feb 23 16:42:21 2022, MaxMem= 17179869184 cpu:               0.2 elap:               0.0
 (Enter /home/saurabh/gaussian/g16/l202.exe)
                          Input orientation:                          
 ---------------------------------------------------------------------
 Center     Atomic      Atomic             Coordinates (Angstroms)
 Number     Number       Type             X           Y           Z
 ---------------------------------------------------------------------
      1          8           0       -5.041572    4.174179   -0.000000
      2          8           0       -3.813965    3.664902    0.000000
      3          1           0       -3.217512    4.436389    0.000000
 ---------------------------------------------------------------------
                    Distance matrix (angstroms):
                    1          2          3
     1  O    0.000000
     2  O    1.329053   0.000000
     3  H    1.842810   0.975165   0.000000
 Stoichiometry    HO2(2)
 Framework group  CS[SG(HO2)]
 Deg. of freedom     3
 Full point group                 CS      NOp   2
 RotChk:  IX=0 Diff= 6.06D-05
 Largest Abelian subgroup         CS      NOp   2
 Largest concise Abelian subgroup C1      NOp   1
                         Standard orientation:                         
 ---------------------------------------------------------------------
 Center     Atomic      Atomic             Coordinates (Angstroms)
 Number     Number       Type             X           Y           Z
 ---------------------------------------------------------------------
      1          8           0        0.055362    0.718634    0.000000
      2          8           0        0.055362   -0.610419    0.000000
      3          1           0       -0.885791   -0.865721    0.000000
 ---------------------------------------------------------------------
 Rotational constants (GHZ):         620.2240621          33.6833347          31.9482771
 Leave Link  202 at Wed Feb 23 16:42:21 2022, MaxMem= 17179869184 cpu:               0.2 elap:               0.0
 (Enter /home/saurabh/gaussian/g16/l301.exe)
 Standard basis: CC-pVTZ+d (5D, 7F)
 Ernie: Thresh=  0.10000D-02 Tol=  0.10000D-05 Strict=F.
 Ernie:  6 primitive shells out of 60 were deleted.
 There are    59 symmetry adapted cartesian basis functions of A'  symmetry.
 There are    26 symmetry adapted cartesian basis functions of A"  symmetry.
 There are    50 symmetry adapted basis functions of A'  symmetry.
 There are    24 symmetry adapted basis functions of A"  symmetry.
    74 basis functions,   121 primitive gaussians,    85 cartesian basis functions
     9 alpha electrons        8 beta electrons
       nuclear repulsion energy        32.1208009540 Hartrees.
 IExCor=  402 DFT=T Ex+Corr=B3LYP ExCW=0 ScaHFX=  0.200000
 ScaDFX=  0.800000  0.720000  1.000000  0.810000 ScalE2=  1.000000  1.000000
 IRadAn=      5 IRanWt=     -1 IRanGd=            0 ICorTp=0 IEmpDi=  4
 NAtoms=    3 NActive=    3 NUniq=    3 SFac= 1.00D+00 NAtFMM=   60 NAOKFM=F Big=F
 Integral buffers will be    131072 words long.
 Raffenetti 2 integral format.
 Two-electron integral symmetry is turned on.
 Leave Link  301 at Wed Feb 23 16:42:21 2022, MaxMem= 17179869184 cpu:               1.2 elap:               0.1
 (Enter /home/saurabh/gaussian/g16/l302.exe)
 NPDir=0 NMtPBC=     1 NCelOv=     1 NCel=       1 NClECP=     1 NCelD=      1
         NCelK=      1 NCelE2=     1 NClLst=     1 CellRange=     0.0.
 One-electron integrals computed using PRISM.
 One-electron integral symmetry used in STVInt
 NBasis=    74 RedAO= T EigKep=  3.12D-03  NBF=    50    24
 NBsUse=    74 1.00D-06 EigRej= -1.00D+00 NBFU=    50    24
 Precomputing XC quadrature grid using
 IXCGrd= 4 IRadAn=           5 IRanWt=          -1 IRanGd=           0 AccXCQ= 0.00D+00.
 Generated NRdTot=       0 NPtTot=           0 NUsed=           0 NTot=          32
 NSgBfM=    85    85    85    85    85 MxSgAt=     3 MxSgA2=     3.
 Leave Link  302 at Wed Feb 23 16:42:21 2022, MaxMem= 17179869184 cpu:               2.9 elap:               0.2
 (Enter /home/saurabh/gaussian/g16/l303.exe)
 DipDrv:  MaxL=1.
 Leave Link  303 at Wed Feb 23 16:42:21 2022, MaxMem= 17179869184 cpu:               0.4 elap:               0.0
 (Enter /home/saurabh/gaussian/g16/l401.exe)
 Initial guess from the checkpoint file:  "OOH_w1u.chk"
 B after Tr=     0.000000    0.000000   -0.000000
         Rot=    1.000000   -0.000000   -0.000000   -0.000007 Ang=  -0.00 deg.
 Guess basis will be translated and rotated to current coordinates.
 JPrj=2 DoOrth=T DoCkMO=T.
 Initial guess orbital symmetries:
 Alpha Orbitals:
       Occupied  (A') (A') (A') (A') (A') (A") (A') (A") (A')
       Virtual   (A') (A') (A') (A') (A') (A") (A') (A") (A') (A")
                 (A') (A') (A') (A") (A') (A") (A') (A') (A") (A')
                 (A') (A") (A') (A') (A') (A") (A') (A") (A') (A")
                 (A') (A') (A") (A') (A') (A") (A') (A') (A") (A')
                 (A') (A") (A') (A") (A') (A') (A") (A') (A") (A")
                 (A') (A") (A') (A") (A') (A') (A') (A") (A') (A')
                 (A") (A') (A') (A') (A')
 Beta  Orbitals:
       Occupied  (A') (A') (A') (A') (A') (A') (A") (A')
       Virtual   (A") (A') (A') (A') (A') (A') (A") (A') (A') (A")
                 (A") (A') (A') (A') (A") (A') (A") (A') (A') (A")
                 (A') (A') (A") (A') (A') (A') (A") (A') (A") (A')
                 (A") (A') (A') (A") (A') (A') (A") (A') (A') (A")
                 (A') (A') (A") (A') (A") (A') (A') (A") (A') (A")
                 (A") (A') (A") (A') (A') (A") (A') (A') (A") (A')
                 (A') (A") (A') (A') (A') (A')
 The electronic state of the initial guess is 2-A".
 Initial guess <Sx>= 0.0000 <Sy>= 0.0000 <Sz>= 0.5000 <S**2>= 0.7535 S= 0.5017
 Leave Link  401 at Wed Feb 23 16:42:21 2022, MaxMem= 17179869184 cpu:               1.6 elap:               0.1
 (Enter /home/saurabh/gaussian/g16/l502.exe)
 Keep R1 and R2 ints in memory in symmetry-blocked form, NReq=23948333.
 FoFCou: FMM=F IPFlag=           0 FMFlag=           0 FMFlg1=           0
         NFxFlg=           0 DoJE=F BraDBF=F KetDBF=F FulRan=T
         wScrn=  0.000000 ICntrl=       600 IOpCl=  0 I1Cent=           0 NGrid=           0
         NMat0=    1 NMatS0=   2775 NMatT0=    0 NMatD0=    1 NMtDS0=    0 NMtDT0=    0
 Petite list used in FoFCou.
 UHF open shell SCF:
 Using DIIS extrapolation, IDIIS=  1040.
 NGot= 17179869184 LenX= 17175921837 LenY= 17175914171
 Requested convergence on RMS density matrix=1.00D-08 within1000 cycles.
 Requested convergence on MAX density matrix=1.00D-06.
 Requested convergence on             energy=1.00D-06.
 No special actions if energy rises.

 Cycle   1  Pass 1  IDiag  1:
 E= -150.968479418691    
 DIIS: error= 9.20D-05 at cycle   1 NSaved=   1.
 NSaved= 1 IEnMin= 1 EnMin= -150.968479418691     IErMin= 1 ErrMin= 9.20D-05
 ErrMax= 9.20D-05  0.00D+00 EMaxC= 1.00D-01 BMatC= 1.75D-06 BMatP= 1.75D-06
 IDIUse=1 WtCom= 1.00D+00 WtEn= 0.00D+00
 Coeff-Com:  0.100D+01
 Coeff:      0.100D+01
 Gap=     0.313 Goal=   None    Shift=    0.000
 Gap=     0.160 Goal=   None    Shift=    0.000
 RMSDP=7.86D-06 MaxDP=9.41D-05              OVMax= 2.79D-04

 Cycle   2  Pass 1  IDiag  1:
 E= -150.968479709931     Delta-E=       -0.000000291241 Rises=F Damp=F
 DIIS: error= 3.47D-05 at cycle   2 NSaved=   2.
 NSaved= 2 IEnMin= 2 EnMin= -150.968479709931     IErMin= 2 ErrMin= 3.47D-05
 ErrMax= 3.47D-05  0.00D+00 EMaxC= 1.00D-01 BMatC= 4.05D-07 BMatP= 1.75D-06
 IDIUse=1 WtCom= 1.00D+00 WtEn= 0.00D+00
 Coeff-Com:  0.243D+00 0.757D+00
 Coeff:      0.243D+00 0.757D+00
 Gap=     0.313 Goal=   None    Shift=    0.000
 Gap=     0.160 Goal=   None    Shift=    0.000
 RMSDP=3.79D-06 MaxDP=8.09D-05 DE=-2.91D-07 OVMax= 3.10D-04

 Cycle   3  Pass 1  IDiag  1:
 E= -150.968479652615     Delta-E=        0.000000057316 Rises=F Damp=F
 DIIS: error= 4.66D-05 at cycle   3 NSaved=   3.
 NSaved= 3 IEnMin= 2 EnMin= -150.968479709931     IErMin= 2 ErrMin= 3.47D-05
 ErrMax= 4.66D-05  0.00D+00 EMaxC= 1.00D-01 BMatC= 7.55D-07 BMatP= 4.05D-07
 IDIUse=1 WtCom= 1.00D+00 WtEn= 0.00D+00
 Coeff-Com:  0.265D-01 0.572D+00 0.402D+00
 Coeff:      0.265D-01 0.572D+00 0.402D+00
 Gap=     0.313 Goal=   None    Shift=    0.000
 Gap=     0.160 Goal=   None    Shift=    0.000
 RMSDP=2.46D-06 MaxDP=4.73D-05 DE= 5.73D-08 OVMax= 1.94D-04

 Cycle   4  Pass 1  IDiag  1:
 E= -150.968479774066     Delta-E=       -0.000000121452 Rises=F Damp=F
 DIIS: error= 7.40D-06 at cycle   4 NSaved=   4.
 NSaved= 4 IEnMin= 4 EnMin= -150.968479774066     IErMin= 4 ErrMin= 7.40D-06
 ErrMax= 7.40D-06  0.00D+00 EMaxC= 1.00D-01 BMatC= 1.54D-08 BMatP= 4.05D-07
 IDIUse=1 WtCom= 1.00D+00 WtEn= 0.00D+00
 Coeff-Com: -0.614D-02 0.208D+00 0.195D+00 0.604D+00
 Coeff:     -0.614D-02 0.208D+00 0.195D+00 0.604D+00
 Gap=     0.313 Goal=   None    Shift=    0.000
 Gap=     0.160 Goal=   None    Shift=    0.000
 RMSDP=4.87D-07 MaxDP=1.14D-05 DE=-1.21D-07 OVMax= 2.65D-05

 Cycle   5  Pass 1  IDiag  1:
 E= -150.968479776546     Delta-E=       -0.000000002479 Rises=F Damp=F
 DIIS: error= 1.58D-06 at cycle   5 NSaved=   5.
 NSaved= 5 IEnMin= 5 EnMin= -150.968479776546     IErMin= 5 ErrMin= 1.58D-06
 ErrMax= 1.58D-06  0.00D+00 EMaxC= 1.00D-01 BMatC= 7.05D-10 BMatP= 1.54D-08
 IDIUse=1 WtCom= 1.00D+00 WtEn= 0.00D+00
 Coeff-Com: -0.417D-02 0.448D-01 0.510D-01 0.248D+00 0.660D+00
 Coeff:     -0.417D-02 0.448D-01 0.510D-01 0.248D+00 0.660D+00
 Gap=     0.313 Goal=   None    Shift=    0.000
 Gap=     0.160 Goal=   None    Shift=    0.000
 RMSDP=1.20D-07 MaxDP=2.32D-06 DE=-2.48D-09 OVMax= 3.99D-06

 Cycle   6  Pass 1  IDiag  1:
 E= -150.968479776677     Delta-E=       -0.000000000131 Rises=F Damp=F
 DIIS: error= 4.02D-07 at cycle   6 NSaved=   6.
 NSaved= 6 IEnMin= 6 EnMin= -150.968479776677     IErMin= 6 ErrMin= 4.02D-07
 ErrMax= 4.02D-07  0.00D+00 EMaxC= 1.00D-01 BMatC= 2.09D-11 BMatP= 7.05D-10
 IDIUse=1 WtCom= 1.00D+00 WtEn= 0.00D+00
 Coeff-Com: -0.139D-03-0.107D-01-0.899D-02-0.780D-02 0.117D+00 0.910D+00
 Coeff:     -0.139D-03-0.107D-01-0.899D-02-0.780D-02 0.117D+00 0.910D+00
 Gap=     0.313 Goal=   None    Shift=    0.000
 Gap=     0.160 Goal=   None    Shift=    0.000
 RMSDP=3.37D-08 MaxDP=5.11D-07 DE=-1.31D-10 OVMax= 2.39D-06

 Cycle   7  Pass 1  IDiag  1:
 E= -150.968479776683     Delta-E=       -0.000000000006 Rises=F Damp=F
 DIIS: error= 1.07D-07 at cycle   7 NSaved=   7.
 NSaved= 7 IEnMin= 7 EnMin= -150.968479776683     IErMin= 7 ErrMin= 1.07D-07
 ErrMax= 1.07D-07  0.00D+00 EMaxC= 1.00D-01 BMatC= 2.92D-12 BMatP= 2.09D-11
 IDIUse=1 WtCom= 1.00D+00 WtEn= 0.00D+00
 Coeff-Com:  0.257D-03-0.192D-02-0.382D-02-0.100D-01-0.415D-01-0.119D-01
 Coeff-Com:  0.107D+01
 Coeff:      0.257D-03-0.192D-02-0.382D-02-0.100D-01-0.415D-01-0.119D-01
 Coeff:      0.107D+01
 Gap=     0.313 Goal=   None    Shift=    0.000
 Gap=     0.160 Goal=   None    Shift=    0.000
 RMSDP=1.16D-08 MaxDP=1.95D-07 DE=-6.42D-12 OVMax= 6.96D-07

 Cycle   8  Pass 1  IDiag  1:
 E= -150.968479776684     Delta-E=       -0.000000000001 Rises=F Damp=F
 DIIS: error= 3.42D-08 at cycle   8 NSaved=   8.
 NSaved= 8 IEnMin= 8 EnMin= -150.968479776684     IErMin= 8 ErrMin= 3.42D-08
 ErrMax= 3.42D-08  0.00D+00 EMaxC= 1.00D-01 BMatC= 2.49D-13 BMatP= 2.92D-12
 IDIUse=1 WtCom= 1.00D+00 WtEn= 0.00D+00
 Coeff-Com: -0.784D-06 0.967D-03 0.546D-03 0.116D-02-0.959D-02-0.661D-01
 Coeff-Com: -0.159D+00 0.123D+01
 Coeff:     -0.784D-06 0.967D-03 0.546D-03 0.116D-02-0.959D-02-0.661D-01
 Coeff:     -0.159D+00 0.123D+01
 Gap=     0.313 Goal=   None    Shift=    0.000
 Gap=     0.160 Goal=   None    Shift=    0.000
 RMSDP=4.45D-09 MaxDP=8.72D-08 DE=-9.09D-13 OVMax= 3.33D-07

 SCF Done:  E(UB3LYP) =  -150.968479777     A.U. after    8 cycles
            NFock=  8  Conv=0.45D-08     -V/T= 2.0053
 <Sx>= 0.0000 <Sy>= 0.0000 <Sz>= 0.5000 <S**2>= 0.7535 S= 0.5017
 <L.S>=  0.00000000000    
 KE= 1.501667324269D+02 PE=-4.213122473691D+02 EE= 8.805623421149D+01
 Annihilation of the first spin contaminant:
 S**2 before annihilation     0.7535,   after     0.7500
 Leave Link  502 at Wed Feb 23 16:42:22 2022, MaxMem= 17179869184 cpu:              10.0 elap:               0.5
 (Enter /home/saurabh/gaussian/g16/l701.exe)
 ... and contract with generalized density number  0.
 Compute integral first derivatives.
 Leave Link  701 at Wed Feb 23 16:42:22 2022, MaxMem= 17179869184 cpu:               3.1 elap:               0.2
 (Enter /home/saurabh/gaussian/g16/l702.exe)
 L702 exits ... SP integral derivatives will be done elsewhere.
 Leave Link  702 at Wed Feb 23 16:42:22 2022, MaxMem= 17179869184 cpu:               0.4 elap:               0.0
 (Enter /home/saurabh/gaussian/g16/l703.exe)
 Integral derivatives from FoFJK, PRISM(SPDF).
 Compute integral first derivatives, UseDBF=F ICtDFT=           0.
 Calling FoFJK, ICntrl=      2127 FMM=F ISym2X=1 I1Cent= 0 IOpClX= 1 NMat=1 NMatS=1 NMatT=0.
 FoFJK:  IHMeth= 1 ICntrl=    2127 DoSepK=F KAlg= 0 I1Cent=           0 FoldK=F
 IRaf=         0 NMat=       1 IRICut=       1 DoRegI=T DoRafI=F ISym2E= 1 IDoP0=0 IntGTp=1.
 FoFCou: FMM=F IPFlag=           0 FMFlag=      100000 FMFlg1=         800
         NFxFlg=           0 DoJE=F BraDBF=F KetDBF=F FulRan=T
         wScrn=  0.000000 ICntrl=      2127 IOpCl=  1 I1Cent=           0 NGrid=           0
         NMat0=    1 NMatS0=      1 NMatT0=    0 NMatD0=    1 NMtDS0=    0 NMtDT0=    0
 Petite list used in FoFCou.
 Leave Link  703 at Wed Feb 23 16:42:22 2022, MaxMem= 17179869184 cpu:              10.8 elap:               0.5
 (Enter /home/saurabh/gaussian/g16/l716.exe)
 Dipole        =-6.73170745D-01-5.53692524D-01-1.21376562D-32
 ***** Axes restored to original set *****
 -------------------------------------------------------------------
 Center     Atomic                   Forces (Hartrees/Bohr)
 Number     Number              X              Y              Z
 -------------------------------------------------------------------
      1        8          -0.000010402    0.000006447   -0.000000000
      2        8           0.000039964    0.000027333    0.000000000
      3        1          -0.000029562   -0.000033780   -0.000000000
 -------------------------------------------------------------------
 Cartesian Forces:  Max     0.000039964 RMS     0.000022383
 Leave Link  716 at Wed Feb 23 16:42:22 2022, MaxMem= 17179869184 cpu:               0.4 elap:               0.0
 (Enter /home/saurabh/gaussian/g16/l103.exe)

 GradGradGradGradGradGradGradGradGradGradGradGradGradGradGradGradGradGrad
 Berny optimization.
 Using GEDIIS/GDIIS optimizer.
 FormGI is forming the generalized inverse of G from B-inverse, IUseBI=4.
 Internal  Forces:  Max     0.000044814 RMS     0.000026953
 Search for a local minimum.
 Step number   3 out of a maximum of  100
 All quantities printed in internal units (Hartrees-Bohrs-Radians)
 RMS Force = .26953D-04 SwitMx=.10000D-02 MixMth= 2
 Mixed Optimization -- En-DIIS/RFO-DIIS
 Swapping is turned off.
 Update second derivatives using D2CorX and points    1    2    3
 DE= -9.18D-07 DEPred=-9.62D-07 R= 9.55D-01
 Trust test= 9.55D-01 RLast= 2.06D-03 DXMaxT set to 3.00D-01
 The second derivative matrix:
                          R1        R2        A1
           R1           0.44920
           R2           0.01821   0.46738
           A1           0.07967  -0.01338   0.24029
 ITU=  0  1  0
     Eigenvalues ---    0.21203   0.45897   0.48588
 En-DIIS/RFO-DIIS/Sim-DIIS IScMMF=       -3 using points:     3    2
 RFO step:  Lambda= 0.00000000D+00.
 NNeg= 0 NGDIIS= 2 SimSw=  2.50D-03 Rises=F DC= -9.18D-07 SmlDif=  1.00D-05
 NRisDI= 0 DoIntr=F SqrtH=F CThrHd= 10.0 CDAdj=  3.0
 RMS Error=  0.6487841255D-04 NUsed= 2 OKEnD=F EnDIS=F
 InvSVX:  RCond= 4.79D-06 Info=           0 Equed=N FErr=  9.27D-16 BErr=  6.09D-18
 DidBck=F Rises=F RFO-DIIS coefs:    0.95788    0.04212
 Iteration  1 RMS(Cart)=  0.00005303 RMS(Int)=  0.00000000
 Iteration  2 RMS(Cart)=  0.00000000 RMS(Int)=  0.00000000
 ITry= 1 IFail=0 DXMaxC= 6.61D-05 DCOld= 1.00D+10 DXMaxT= 3.00D-01 DXLimC= 3.00D+00 Rises=F
 ClnCor:  largest displacement from symmetrization is 9.86D-32 for atom     1.
 Variable       Old X    -DE/DX   Delta X   Delta X   Delta X     New X
                                 (Linear)    (Quad)   (Total)
    R1        2.51155   0.00001  -0.00003   0.00007   0.00004   2.51158
    R2        1.84280  -0.00004  -0.00008  -0.00002  -0.00010   1.84270
    A1        1.83569  -0.00000  -0.00002  -0.00002  -0.00004   1.83565
         Item               Value     Threshold  Converged?
 Maximum Force            0.000045     0.000450     YES
 RMS     Force            0.000027     0.000300     YES
 Maximum Displacement     0.000066     0.001800     YES
 RMS     Displacement     0.000053     0.001200     YES
 Predicted change in Energy=-2.531494D-09
 Optimization completed.
    -- Stationary point found.
                           ----------------------------
                           !   Optimized Parameters   !
                           ! (Angstroms and Degrees)  !
 --------------------------                            --------------------------
 ! Name  Definition              Value          Derivative Info.                !
 --------------------------------------------------------------------------------
 ! R1    R(1,2)                  1.3291         -DE/DX =    0.0                 !
 ! R2    R(2,3)                  0.9752         -DE/DX =    0.0                 !
 ! A1    A(1,2,3)              105.1771         -DE/DX =    0.0                 !
 --------------------------------------------------------------------------------
 Lowest energy point so far.  Saving SCF results.
 Largest change from initial coordinates is atom    3       0.021 Angstoms.
 GradGradGradGradGradGradGradGradGradGradGradGradGradGradGradGradGradGrad

 Leave Link  103 at Wed Feb 23 16:42:22 2022, MaxMem= 17179869184 cpu:               0.1 elap:               0.0
 (Enter /home/saurabh/gaussian/g16/l202.exe)
                          Input orientation:                          
 ---------------------------------------------------------------------
 Center     Atomic      Atomic             Coordinates (Angstroms)
 Number     Number       Type             X           Y           Z
 ---------------------------------------------------------------------
      1          8           0       -5.041572    4.174179   -0.000000
      2          8           0       -3.813965    3.664902    0.000000
      3          1           0       -3.217512    4.436389    0.000000
 ---------------------------------------------------------------------
                    Distance matrix (angstroms):
                    1          2          3
     1  O    0.000000
     2  O    1.329053   0.000000
     3  H    1.842810   0.975165   0.000000
 Stoichiometry    HO2(2)
 Framework group  CS[SG(HO2)]
 Deg. of freedom     3
 Full point group                 CS      NOp   2
[...]
 RLE energy=       -0.5814317724
 DE(Corr)= -0.58065684     E(CORR)=     -150.92145432     Delta=-1.46D-02
 NORM(A)=   0.10585618D+01
 Iteration Nr.   3
 **********************
 DD1Dir will call FoFMem   1 times, MxPair=       208
 NAB=    72 NAA=    36 NBB=    28.
 A-vector RMS=  8.8897365D-04 Max=  2.3210185D-02 conv= 1.00D-05.
 RLE energy=       -0.5835886330
 DE(Corr)= -0.58098840     E(CORR)=     -150.92178587     Delta=-3.32D-04
 NORM(A)=   0.10641076D+01
 Iteration Nr.   4
 **********************
 DD1Dir will call FoFMem   1 times, MxPair=       208
 NAB=    72 NAA=    36 NBB=    28.
 A-vector RMS=  3.4532139D-04 Max=  6.7918644D-03 conv= 1.00D-05.
 RLE energy=       -0.5844514064
 DE(Corr)= -0.58364311     E(CORR)=     -150.92444058     Delta=-2.65D-03
 NORM(A)=   0.10681183D+01
 Iteration Nr.   5
 **********************
 DD1Dir will call FoFMem   1 times, MxPair=       208
 NAB=    72 NAA=    36 NBB=    28.
 A-vector RMS=  2.0355401D-04 Max=  5.2722654D-03 conv= 1.00D-05.
 RLE energy=       -0.5848297478
 DE(Corr)= -0.58449172     E(CORR)=     -150.92528919     Delta=-8.49D-04
 NORM(A)=   0.10703151D+01
 Iteration Nr.   6
 **********************
 DD1Dir will call FoFMem   1 times, MxPair=       208
 NAB=    72 NAA=    36 NBB=    28.
 A-vector RMS=  4.7419180D-05 Max=  4.4919308D-04 conv= 1.00D-05.
 RLE energy=       -0.5847159758
 DE(Corr)= -0.58475835     E(CORR)=     -150.92555583     Delta=-2.67D-04
 NORM(A)=   0.10704674D+01
 Iteration Nr.   7
 **********************
 DD1Dir will call FoFMem   1 times, MxPair=       208
 NAB=    72 NAA=    36 NBB=    28.
 A-vector RMS=  1.6623132D-05 Max=  2.0606082D-04 conv= 1.00D-05.
 RLE energy=       -0.5847732661
 DE(Corr)= -0.58477109     E(CORR)=     -150.92556857     Delta=-1.27D-05
 NORM(A)=   0.10705396D+01
 Iteration Nr.   8
 **********************
 DD1Dir will call FoFMem   1 times, MxPair=       208
 NAB=    72 NAA=    36 NBB=    28.
 A-vector RMS=  7.2177750D-06 Max=  7.4279198D-05 conv= 1.00D-05.
 RLE energy=       -0.5847610755
 DE(Corr)= -0.58476503     E(CORR)=     -150.92556250     Delta= 6.06D-06
 NORM(A)=   0.10705539D+01
 Iteration Nr.   9
 **********************
 DD1Dir will call FoFMem   1 times, MxPair=       208
 NAB=    72 NAA=    36 NBB=    28.
 A-vector RMS=  2.6882413D-06 Max=  3.1484237D-05 conv= 1.00D-05.
 RLE energy=       -0.5847758102
 DE(Corr)= -0.58477451     E(CORR)=     -150.92557199     Delta=-9.48D-06
 NORM(A)=   0.10705524D+01
 Iteration Nr.  10
 **********************
 DD1Dir will call FoFMem   1 times, MxPair=       208
 NAB=    72 NAA=    36 NBB=    28.
 A-vector RMS=  1.8626018D-06 Max=  3.6671274D-05 conv= 1.00D-05.
 RLE energy=       -0.5847727036
 DE(Corr)= -0.58477181     E(CORR)=     -150.92556928     Delta= 2.70D-06
 NORM(A)=   0.10705559D+01
 Iteration Nr.  11
 **********************
 DD1Dir will call FoFMem   1 times, MxPair=       208
 NAB=    72 NAA=    36 NBB=    28.
 A-vector RMS=  6.7213921D-07 Max=  6.6567090D-06 conv= 1.00D-05.
 RLE energy=       -0.5847743374
 DE(Corr)= -0.58477413     E(CORR)=     -150.92557160     Delta=-2.32D-06
 NORM(A)=   0.10705578D+01
 Iteration Nr.  12
 **********************
 DD1Dir will call FoFMem   1 times, MxPair=       208
 NAB=    72 NAA=    36 NBB=    28.
 A-vector RMS=  6.1253755D-07 Max=  1.4236943D-05 conv= 1.00D-05.
 RLE energy=       -0.5847748915
 DE(Corr)= -0.58477417     E(CORR)=     -150.92557165     Delta=-4.44D-08
 NORM(A)=   0.10705613D+01
 Iteration Nr.  13
 **********************
 DD1Dir will call FoFMem   1 times, MxPair=       208
 NAB=    72 NAA=    36 NBB=    28.
 A-vector RMS=  2.9319555D-07 Max=  5.7310740D-06 conv= 1.00D-05.
 RLE energy=       -0.5847750297
 DE(Corr)= -0.58477482     E(CORR)=     -150.92557229     Delta=-6.45D-07
 NORM(A)=   0.10705634D+01
 Iteration Nr.  14
 **********************
 DD1Dir will call FoFMem   1 times, MxPair=       208
 NAB=    72 NAA=    36 NBB=    28.
 A-vector RMS=  1.4392480D-07 Max=  3.6403784D-06 conv= 1.00D-05.
 RLE energy=       -0.5847755695
 DE(Corr)= -0.58477526     E(CORR)=     -150.92557274     Delta=-4.46D-07
 NORM(A)=   0.10705649D+01
 Iteration Nr.  15
 **********************
 DD1Dir will call FoFMem   1 times, MxPair=       208
 NAB=    72 NAA=    36 NBB=    28.
 A-vector RMS=  8.3260554D-08 Max=  1.6318400D-06 conv= 1.00D-05.
 RLE energy=       -0.5847755459
 DE(Corr)= -0.58477546     E(CORR)=     -150.92557293     Delta=-1.93D-07
 NORM(A)=   0.10705657D+01
 Iteration Nr.  16
 **********************
 DD1Dir will call FoFMem   1 times, MxPair=       208
 NAB=    72 NAA=    36 NBB=    28.
 A-vector RMS=  2.3396804D-08 Max=  2.0734902D-07 conv= 1.00D-05.
 RLE energy=       -0.5847756646
 DE(Corr)= -0.58477565     E(CORR)=     -150.92557312     Delta=-1.93D-07
 NORM(A)=   0.10705657D+01
 Iteration Nr.  17
 **********************
 DD1Dir will call FoFMem   1 times, MxPair=       208
 NAB=    72 NAA=    36 NBB=    28.
 A-vector RMS=  1.5876778D-08 Max=  3.1881960D-07 conv= 1.00D-05.
 RLE energy=       -0.5847756437
 DE(Corr)= -0.58477563     E(CORR)=     -150.92557310     Delta= 2.40D-08
 NORM(A)=   0.10705658D+01
 CI/CC converged in   17 iterations to DelEn= 2.40D-08 Conv= 1.00D-07 ErrA1= 1.59D-08 Conv= 1.00D-05
 Wavefunction amplitudes converged. E(Corr)=     -150.92557310    
 Dominant configurations:
 ***********************
 Spin Case        I    J    A    B          Value
    BB            7         9            0.151749D+00
 Largest amplitude= 1.52D-01
 Time for triples=      614.93 seconds.
 T4(CCSD)= -0.21289876D-01
 T5(CCSD)=  0.20463624D-02
 CCSD(T)= -0.15094481661D+03

 S**2, projected HF & approx projected MPn energies after annihilation of
 unwanted spin states (see manual for definitions):

 spins       (S**2,0) (S**2,1)    PUHF        PMP2        PMP3        PMP4
 annihilated
 s+1         0.74994  0.75004 -150.345560 -150.912936 -150.918555
 s+1,s+2     0.75000  0.75000 -150.345541 -150.912918 -150.918540
 s+1 to s+3  0.75000  0.75000 -150.345541 -150.912918 -150.918540
 s+1 to s+4  0.75000  0.75000 -150.345541 -150.912918 -150.918540
 s+1 to s+5  0.75000  0.75000 -150.345541
 s+1 to s+6  0.75000  0.75000 -150.345541

 Discarding MO integrals.
 Leave Link  913 at Wed Feb 23 16:46:06 2022, MaxMem= 17179869184 cpu:            1314.9 elap:              59.8
 (Enter /home/saurabh/gaussian/g16/l601.exe)
 Copying SCF densities to generalized density rwf, IOpCl= 1 IROHF=0.

 **********************************************************************

            Population analysis using the SCF Density.

 **********************************************************************

 Orbital symmetries:
 Alpha Orbitals:
       Occupied  (A') (A') (A') (A') (A') (A") (A') (A") (A')
       Virtual   (A') (A') (A') (A') (A") (A') (A') (A") (A') (A")
                 (A') (A') (A') (A') (A") (A") (A') (A') (A') (A")
                 (A') (A") (A') (A') (A') (A") (A') (A") (A') (A')
                 (A") (A') (A") (A') (A') (A") (A') (A') (A') (A')
                 (A") (A") (A') (A') (A') (A") (A') (A') (A") (A')
                 (A") (A") (A') (A') (A") (A') (A") (A") (A') (A')
                 (A") (A') (A') (A') (A') (A') (A") (A') (A") (A')
                 (A') (A') (A") (A') (A") (A') (A") (A') (A") (A')
                 (A') (A") (A') (A") (A') (A') (A') (A') (A") (A')
                 (A") (A") (A') (A") (A') (A') (A') (A') (A') (A")
                 (A') (A") (A') (A") (A') (A") (A") (A') (A") (A')
                 (A') (A') (A') (A') (A') (A') (A') (A') (A') (A')
                 (A') (A') (A') (A') (A')
 Beta  Orbitals:
       Occupied  (A') (A') (A') (A') (A') (A') (A") (A')
       Virtual   (A") (A') (A') (A') (A') (A') (A") (A') (A') (A")
                 (A") (A') (A') (A') (A') (A") (A") (A') (A') (A')
                 (A") (A') (A') (A") (A') (A') (A") (A') (A") (A')
                 (A') (A") (A') (A") (A') (A') (A") (A') (A') (A')
                 (A') (A") (A") (A') (A') (A') (A") (A') (A') (A")
                 (A') (A") (A") (A') (A') (A") (A') (A") (A") (A')
                 (A') (A") (A') (A') (A') (A') (A') (A") (A') (A")
                 (A') (A') (A') (A") (A') (A") (A') (A") (A') (A")
                 (A') (A') (A") (A') (A") (A') (A') (A') (A') (A")
                 (A') (A") (A") (A') (A") (A') (A') (A') (A') (A')
                 (A") (A') (A") (A') (A") (A') (A") (A') (A") (A")
                 (A') (A') (A') (A') (A') (A') (A') (A') (A') (A')
                 (A') (A') (A') (A') (A') (A')
 The electronic state is 2-A".
 Alpha  occ. eigenvalues --  -20.69847 -20.68235  -1.57340  -1.20634  -0.76801
 Alpha  occ. eigenvalues --   -0.75293  -0.67026  -0.52302  -0.51953
 Alpha virt. eigenvalues --    0.13598   0.31739   0.54378   0.65257   0.69842
 Alpha virt. eigenvalues --    0.71827   0.73765   0.79638   0.80296   0.87394
 Alpha virt. eigenvalues --    0.91007   1.00239   1.18496   1.42469   1.49066
 Alpha virt. eigenvalues --    1.63630   1.70640   1.72160   2.03151   2.03929
 Alpha virt. eigenvalues --    2.18126   2.36310   2.36995   2.46289   2.56662
 Alpha virt. eigenvalues --    3.44232   3.49901   3.55617   3.71345   3.74691
 Alpha virt. eigenvalues --    3.75166   3.90060   3.91504   3.99566   4.21956
 Alpha virt. eigenvalues --    4.28894   4.43743   4.54252   4.79772   4.99263
 Alpha virt. eigenvalues --    4.99751   5.17998   5.21616   5.26931   5.31882
 Alpha virt. eigenvalues --    5.39938   5.45781   5.61343   5.96049   6.42796
 Alpha virt. eigenvalues --    6.48906   6.53631   6.58262   6.68947   6.71939
 Alpha virt. eigenvalues --    6.74949   6.76865   6.93240   6.99474   7.12506
 Alpha virt. eigenvalues --    7.38037   7.43306   7.76183   7.96029   8.71658
 Alpha virt. eigenvalues --   11.33653  15.23398  15.35848  15.42947  15.59869
 Alpha virt. eigenvalues --   15.93458  16.51225  18.24479  18.30380  18.30976
 Alpha virt. eigenvalues --   18.36988  18.38488  18.43744  18.69387  18.81430
 Alpha virt. eigenvalues --   18.91351  18.92604  19.05703  19.27586  19.45117
 Alpha virt. eigenvalues --   19.59497  21.76562  22.28362  22.39762  22.42931
 Alpha virt. eigenvalues --   22.48304  22.57516  22.59384  22.60075  22.69023
 Alpha virt. eigenvalues --   22.98771  23.33167  23.43067  62.21319  74.85568
 Alpha virt. eigenvalues --   74.92450  74.98473  74.99573  75.06505  75.08356
 Alpha virt. eigenvalues --   75.10936  75.17685  75.17699  75.19630  75.23213
 Alpha virt. eigenvalues --   75.26132  75.34306  75.46150  75.69172  75.89760
 Alpha virt. eigenvalues --   86.02318  86.68171 309.14132 309.689891123.07743
 Alpha virt. eigenvalues -- 1123.546674392.535074392.88603********************
  Beta  occ. eigenvalues --  -20.67499 -20.65825  -1.51125  -1.10331  -0.74880
  Beta  occ. eigenvalues --   -0.64671  -0.56808  -0.48385
  Beta virt. eigenvalues --    0.12851   0.13769   0.34892   0.54468   0.65458
  Beta virt. eigenvalues --    0.72729   0.75071   0.75093   0.81131   0.87358
  Beta virt. eigenvalues --    0.89794   0.91454   1.00771   1.19683   1.43480
  Beta virt. eigenvalues --    1.54078   1.69347   1.71289   1.77537   2.03415
  Beta virt. eigenvalues --    2.06049   2.19901   2.38494   2.40682   2.47819
  Beta virt. eigenvalues --    2.56848   3.46355   3.50067   3.59435   3.72334
  Beta virt. eigenvalues --    3.76462   3.82752   3.90251   3.94875   3.99884
  Beta virt. eigenvalues --    4.22806   4.29781   4.44180   4.57526   4.80769
  Beta virt. eigenvalues --    5.00598   5.02518   5.20332   5.24009   5.27931
  Beta virt. eigenvalues --    5.34654   5.45078   5.49121   5.64009   5.98103
  Beta virt. eigenvalues --    6.43840   6.54270   6.61882   6.67746   6.70946
  Beta virt. eigenvalues --    6.75583   6.76336   6.80077   6.95138   7.00064
  Beta virt. eigenvalues --    7.13681   7.40897   7.44101   7.77396   7.96593
  Beta virt. eigenvalues --    8.72879  11.33707  15.29663  15.37577  15.46956
  Beta virt. eigenvalues --   15.60888  15.94283  16.52222  18.27145  18.33385
  Beta virt. eigenvalues --   18.34211  18.41765  18.43531  18.45730  18.71403
  Beta virt. eigenvalues --   18.82663  18.92667  18.93863  19.07403  19.29895
  Beta virt. eigenvalues --   19.45827  19.59916  21.78828  22.28984  22.44615
  Beta virt. eigenvalues --   22.48245  22.52081  22.59009  22.60669  22.62415
  Beta virt. eigenvalues --   22.69411  23.00133  23.33828  23.45012  62.21281
  Beta virt. eigenvalues --   74.87506  74.93068  74.99688  75.00086  75.08323
  Beta virt. eigenvalues --   75.10291  75.12376  75.18190  75.18255  75.20513
  Beta virt. eigenvalues --   75.23447  75.26673  75.34546  75.46670  75.69412
  Beta virt. eigenvalues --   75.90070  86.03177  86.68703 309.14405 309.69155
  Beta virt. eigenvalues -- 1123.078261123.547214392.535314392.88619**********
  Beta virt. eigenvalues -- **********
          Condensed to atoms (all electrons):
               1          2          3
     1  O    8.017140   0.085497  -0.037781
     2  O    0.085497   7.772213   0.324870
     3  H   -0.037781   0.324870   0.465476
          Atomic-Atomic Spin Densities.
               1          2          3
     1  O    1.050933  -0.109915  -0.002199
     2  O   -0.109915   0.176014   0.003503
     3  H   -0.002199   0.003503  -0.009725
 Mulliken charges and spin densities:
               1          2
     1  O   -0.064855   0.938819
     2  O   -0.182579   0.069602
     3  H    0.247435  -0.008421
 Sum of Mulliken charges =  -0.00000   1.00000
 Mulliken charges and spin densities with hydrogens summed into heavy atoms:
               1          2
     1  O   -0.064855   0.938819
     2  O    0.064855   0.061181
 Electronic spatial extent (au):  <R**2>=             54.2217
 Charge=             -0.0000 electrons
 Dipole moment (field-independent basis, Debye):
    X=             -1.7713    Y=             -0.9131    Z=             -0.0000  Tot=              1.9928
 Quadrupole moment (field-independent basis, Debye-Ang):
   XX=             -9.6168   YY=            -10.7991   ZZ=            -10.7478
   XY=              1.7400   XZ=              0.0000   YZ=              0.0000
 Traceless Quadrupole moment (field-independent basis, Debye-Ang):
   XX=              0.7711   YY=             -0.4112   ZZ=             -0.3599
   XY=              1.7400   XZ=              0.0000   YZ=              0.0000
 Octapole moment (field-independent basis, Debye-Ang**2):
  XXX=             -2.2689  YYY=             -1.3385  ZZZ=              0.0000  XYY=             -1.7804
  XXY=             -1.8980  XXZ=             -0.0000  XZZ=             -0.1792  YZZ=              0.5081
  YYZ=             -0.0000  XYZ=             -0.0000
 Hexadecapole moment (field-independent basis, Debye-Ang**3):
 XXXX=             -8.3106 YYYY=            -35.7316 ZZZZ=             -7.4579 XXXY=              0.4510
 XXXZ=              0.0000 YYYX=              0.5589 YYYZ=             -0.0000 ZZZX=             -0.0000
 ZZZY=             -0.0000 XXYY=             -7.1979 XXZZ=             -2.9259 YYZZ=             -7.5699
 XXYZ=              0.0000 YYXZ=              0.0000 ZZXY=             -0.2870
 N-N= 3.212080095402D+01 E-N=-4.220735947700D+02  KE= 1.509399417623D+02
 Symmetry A'   KE= 1.435938873451D+02
 Symmetry A"   KE= 7.346054417233D+00
 Symmetry A'   SP= 7.965567780884D-15
 Symmetry A"   SP= 1.000000000000D+00
 Leave Link  601 at Wed Feb 23 16:46:06 2022, MaxMem= 17179869184 cpu:               0.8 elap:               0.1
 (Enter /home/saurabh/gaussian/g16/l9999.exe)
 Unable to Open any file for archive entry.
 1\1\GINC-MEDIAWIKI\SP\UCCSD(T)-Full\MTSmall\H1O2(2)\SAURABH\23-Feb-202
 2\0\\#P Geom=AllCheck Guess=TCheck SCRF=Check CCSD(T,Full)/MTSmall int
 =dkh\\OOH_w1u\\0,2\O,0,-5.0415724928,4.1741789059,0.\O,0,-3.8139652272
 ,3.6649023482,0.\H,0,-3.21751228,4.4363887459,0.\\Version=ES64L-G16Rev
 C.01\State=2-A"\HF=-150.3407975\MP2=-150.910075\MP3=-150.9169634\MP4D=
 -150.9264339\MP4DQ=-150.9164263\PUHF=-150.34556\PMP2-0=-150.9129356\PM
 P3-0=-150.9185549\MP4SDQ=-150.924013\CCSD=-150.9255731\CCSD(T)=-150.94
 48166\S2=0.761719\S2-1=0.75231\S2A=0.750102\RMSD=9.225e-09\PG=CS [SG(H
 1O2)]\\@
 The archive entry for this job was punched.


 THE SCIENTIFIC THEORIST IS NOT TO BE ENVIED. FOR NATURE, OR MORE
 PRECISELY EXPERIMENT, IS AN INEXORABLE AND NOT VERY FRIENDLY JUDGE OF HIS
 WORK.  IT NEVER SAYS "YES" TO A THEORY. IN THE MOST FAVORABLE CASES
 IT SAYS "MAYBE", AND IN THE GREAT MAJORITY OF CASES SIMPLY "NO"...
 PROBABLY EVERY THEORY WILL SOME DAY EXPERIENCE ITS "NO" - MOST
 THEORIES, SOON AFTER CONCEPTION.  -- A.EINSTEIN, NOV 11, 1922.
 Diagonal vibrational polarizability:
        0.0000000       0.0000000       0.0000000

 W1 and W2 theory:
 J.M.L. Martin and G. de Oliveira, JCP 111, 1843 (1999)
 S. Parthiban and J.M.L. Martin, JCP 114, 6014 (2001)

 W1U   Energy Components

                         SCF                 CCSD               CCSD(T)
 AVDZ+2d            -150.202115         -150.587678         -150.599540
 AVTZ+2df           -150.239434         -150.707508         -150.726073
 AVQZ+2df           -150.249498         -150.745033

                        NR/FC              DKH/Full
 MTsmall            -150.730532         -150.944817

 Extrapolated Energy Components

                         SCF                 CCSD               CCSD(T)
                    -150.252629           -0.513540           -0.021057

 Core + Scalar Relativistic Component
                      -0.214285

 W1U   Electronic Energy          -151.001509

 Temperature=                298.150000 Pressure=                        1.000000
 E(ZPE)=                       0.013900 E(Thermal)=                      0.016761
 W1U  (0 K)=                -150.987609 W1U   Energy=                 -150.984749
 W1U   Enthalpy=            -150.983805 W1U   Free Energy=            -151.009789

 W1U spin correction:
 G.P.F. Wood, L. Radom, G.A. Petersson, E.C. Barnes, M.J. Frisch
 and J.A. Montgomery, Jr., JCP 125, 94106 (2006).

 DE(Spin)=                         -0.000085

 W1Usc Electronic Energy          -151.001594

 Temperature=                298.150000 Pressure=                        1.000000
 E(ZPE)=                       0.013900 E(Thermal)=                      0.016761
 W1Usc(0 K)=                -150.987694 W1Usc Energy=                 -150.984833
 W1Usc Enthalpy=            -150.983889 W1Usc Free Energy=            -151.009873
 Unable to Open any file for archive entry.
 1\1\GINC-MEDIAWIKI\Mixed\W1Usc\W1Usc\H1O2(2)\SAURABH\23-Feb-2022\0\\#p
  w1u scf(verytight, maxcycles=1000) opt(calcfc, maxcyc=1000) int(grid=
 ultrafine)\\OOH_w1u\\0,2\O,0,-5.0415724928,4.1741789059,0.\O,0,-3.8139
 652272,3.6649023482,0.\H,0,-3.21751228,4.4363887459,0.\\Version=ES64L-
 G16RevC.01\State=2-A"\HF/AVTZ+2d1f=-150.2394341\HF/AVQZ+2d1f=-150.2494
 976\HFExt=-150.2526288\CCSD/AVTZ+2d1f=-150.7075083\CCSD/AVQZ+2d1f=-150
 .7450328\CCSDExt=-0.5135395\CCSD(T)/AVDZ+2d=-150.5995395\CCSD(T)/AVTZ+
 2d1f=0.\TExt=-0.0210566\CCSD(T)/MTsmall=-150.7305321\DK-CCSD(T,FU)/MTs
 mall=-150.9448166\Core+Rel=-0.2142845\W1=-150.9876094\W1sc=-150.987693
 9\FreqCoord=-9.5271912485,7.8880549271,0.,-7.207349728,6.9256617114,0.
 ,-6.0802170117,8.3835597118,0.\PG=CS [SG(H1O2)]\NImag=0\\0.40436781,-0
 .11981823,0.07362254,0.,0.,-0.00000043,-0.34619726,0.13592751,0.,0.498
 59614,0.09640149,-0.10200310,0.,0.07699858,0.45394329,0.,0.,0.00000563
 ,0.,0.,-0.00000709,-0.05817056,-0.01610929,0.,-0.15239889,-0.17340007,
 0.,0.21056945,0.02341673,0.02838056,0.,-0.21292609,-0.35194019,0.,0.18
 950936,0.32355963,0.,0.,-0.00000520,0.,0.,0.00000147,0.,0.,0.00000373\
 \0.00001041,-0.00000645,0.,-0.00003997,-0.00002733,0.,0.00002957,0.000
 03379,0.\\\@
 The archive entry for this job was punched.
 Job cpu time:       0 days  0 hours 24 minutes 28.0 seconds.
 Elapsed time:       0 days  0 hours  1 minutes  7.7 seconds.
 File lengths (MBytes):  RWF=   2352 Int=      0 D2E=      0 Chk=      4 Scr=      1
 Normal termination of Gaussian 16 at Wed Feb 23 16:46:07 2022.
