 Entering Gaussian System, Link 0=g16
 Input=Mol_01.com
 Output=Mol_01.log
 Initial command:
 /home/saurabh/gaussian/g16/l1.exe "/home/saurabh/gaussian/gauss_scr/Gau-20822.inp" -scrdir="/home/saurabh/gaussian/gauss_scr/"
 Entering Link 1 = /home/saurabh/gaussian/g16/l1.exe PID=     20823.
  
 Copyright (c) 1988-2019, Gaussian, Inc.  All Rights Reserved.
  
 This is part of the Gaussian(R) 16 program.  It is based on
 the Gaussian(R) 09 system (copyright 2009, Gaussian, Inc.),
 the Gaussian(R) 03 system (copyright 2003, Gaussian, Inc.),
 the Gaussian(R) 98 system (copyright 1998, Gaussian, Inc.),
 the Gaussian(R) 94 system (copyright 1995, Gaussian, Inc.),
 the Gaussian 92(TM) system (copyright 1992, Gaussian, Inc.),
 the Gaussian 90(TM) system (copyright 1990, Gaussian, Inc.),
 the Gaussian 88(TM) system (copyright 1988, Gaussian, Inc.),
 the Gaussian 86(TM) system (copyright 1986, Carnegie Mellon
 University), and the Gaussian 82(TM) system (copyright 1983,
 Carnegie Mellon University). Gaussian is a federally registered
 trademark of Gaussian, Inc.
  
 This software contains proprietary and confidential information,
 including trade secrets, belonging to Gaussian, Inc.
  
 This software is provided under written license and may be
 used, copied, transmitted, or stored only in accord with that
 written license.
  
 The following legend is applicable only to US Government
 contracts under FAR:
  
                    RESTRICTED RIGHTS LEGEND
  
 Use, reproduction and disclosure by the US Government is
 subject to restrictions as set forth in subparagraphs (a)
 and (c) of the Commercial Computer Software - Restricted
 Rights clause in FAR 52.227-19.
  
 Gaussian, Inc.
 340 Quinnipiac St., Bldg. 40, Wallingford CT 06492
  
  
 ---------------------------------------------------------------
 Warning -- This program may not be used in any manner that
 competes with the business of Gaussian, Inc. or will provide
 assistance to any competitor of Gaussian, Inc.  The licensee
 of this program is prohibited from giving any competitor of
 Gaussian, Inc. access to this program.  By using this program,
 the user acknowledges that Gaussian, Inc. is engaged in the
 business of creating and licensing software in the field of
 computational chemistry and represents and warrants to the
 licensee that it is not a competitor of Gaussian, Inc. and that
 it will not use this program in any manner prohibited above.
 ---------------------------------------------------------------
  

 Cite this work as:
 Gaussian 16, Revision C.01,
 M. J. Frisch, G. W. Trucks, H. B. Schlegel, G. E. Scuseria, 
 M. A. Robb, J. R. Cheeseman, G. Scalmani, V. Barone, 
 G. A. Petersson, H. Nakatsuji, X. Li, M. Caricato, A. V. Marenich, 
 J. Bloino, B. G. Janesko, R. Gomperts, B. Mennucci, H. P. Hratchian, 
 J. V. Ortiz, A. F. Izmaylov, J. L. Sonnenberg, D. Williams-Young, 
 F. Ding, F. Lipparini, F. Egidi, J. Goings, B. Peng, A. Petrone, 
 T. Henderson, D. Ranasinghe, V. G. Zakrzewski, J. Gao, N. Rega, 
 G. Zheng, W. Liang, M. Hada, M. Ehara, K. Toyota, R. Fukuda, 
 J. Hasegawa, M. Ishida, T. Nakajima, Y. Honda, O. Kitao, H. Nakai, 
 T. Vreven, K. Throssell, J. A. Montgomery, Jr., J. E. Peralta, 
 F. Ogliaro, M. J. Bearpark, J. J. Heyd, E. N. Brothers, K. N. Kudin, 
 V. N. Staroverov, T. A. Keith, R. Kobayashi, J. Normand, 
 K. Raghavachari, A. P. Rendell, J. C. Burant, S. S. Iyengar, 
 J. Tomasi, M. Cossi, J. M. Millam, M. Klene, C. Adamo, R. Cammi, 
 J. W. Ochterski, R. L. Martin, K. Morokuma, O. Farkas, 
 J. B. Foresman, and D. J. Fox, Gaussian, Inc., Wallingford CT, 2019.
 
 ******************************************
 Gaussian 16:  ES64L-G16RevC.01  3-Jul-2019
                12-Apr-2022 
 ******************************************
 %mem=8gb
 %nproc=8
 Will use up to    8 processors via shared memory.
 %chk=Mol_01.chk
 ----------------------------------------------------------------------
 #p B3LYP/cc-PVTZ scf(verytight, maxcycles=1000) opt(calcfc, maxcyc=100
 0) freq(hpmodes) int(grid=ultrafine)
 ----------------------------------------------------------------------
 1/6=1000,10=4,18=20,19=15,26=4,38=1/1,3;
 2/9=110,12=2,17=6,18=5,40=1/2;
 3/5=16,6=1,11=2,25=1,30=1,71=2,74=-5,75=-5,140=1/1,2,3;
 4//1;
 5/5=2,7=1000,17=3,38=5/2;
 8/6=4,10=90,11=11/1;
 11/6=1,8=1,9=11,15=111,16=1/1,2,10;
 10/6=1,13=1/2;
 6/7=2,8=2,9=2,10=2,28=1/1;
 7/10=1,25=1/1,2,3,16;
 1/6=1000,10=4,18=20,19=15,26=4/3(2);
 2/9=110/2;
 99//99;
 2/9=110/2;
 3/5=16,6=1,11=2,25=1,30=1,71=1,74=-5,75=-5/1,2,3;
 4/5=5,16=3,69=1/1;
 5/5=2,7=1000,17=3,38=5/2;
 7//1,2,3,16;
 1/6=1000,18=20,19=15,26=4/3(-5);
 2/9=110/2;
 6/7=2,8=2,9=2,10=2,19=2,28=1/1;
 99/9=1/99;
 Leave Link    1 at Tue Apr 12 15:15:35 2022, MaxMem=  1073741824 cpu:               0.5 elap:               0.1
 (Enter /home/saurabh/gaussian/g16/l101.exe)
 ------
 Mol_01
 ------
 Symbolic Z-matrix:
 Charge =  0 Multiplicity = 2
 C                    -1.33427   0.64584   0.01463 
 C                    -0.00003   0.00002  -0.14949 
 C                     1.22646   0.83256   0.01463 
 C                     0.10782  -1.4784    0.01463 
 H                    -2.13176   0.04872  -0.43312 
 H                    -1.36053   1.64198  -0.4326 
 H                    -1.60092   0.77455   1.07693 
 H                     2.10218   0.35731  -0.43288 
 H                     1.47152   0.99886   1.07691 
 H                     1.10806   1.82188  -0.43286 
 H                    -0.74137  -1.99927  -0.43325 
 H                     0.1289   -1.77376   1.07692 
 H                     1.02403  -1.87038  -0.43248 
 
 ITRead=  0  0  0  0  0  0  0  0  0  0  0  0  0
 MicOpt= -1 -1 -1 -1 -1 -1 -1 -1 -1 -1 -1 -1 -1
 NAtoms=     13 NQM=       13 NQMF=       0 NMMI=      0 NMMIF=      0
                NMic=       0 NMicF=      0.
                    Isotopes and Nuclear Properties:
 (Nuclear quadrupole moments (NQMom) in fm**2, nuclear magnetic moments (NMagM)
  in nuclear magnetons)

  Atom         1           2           3           4           5           6           7           8           9          10
 IAtWgt=          12          12          12          12           1           1           1           1           1           1
 AtmWgt=  12.0000000  12.0000000  12.0000000  12.0000000   1.0078250   1.0078250   1.0078250   1.0078250   1.0078250   1.0078250
 NucSpn=           0           0           0           0           1           1           1           1           1           1
 AtZEff=  -0.0000000  -0.0000000  -0.0000000  -0.0000000  -0.0000000  -0.0000000  -0.0000000  -0.0000000  -0.0000000  -0.0000000
 NQMom=    0.0000000   0.0000000   0.0000000   0.0000000   0.0000000   0.0000000   0.0000000   0.0000000   0.0000000   0.0000000
 NMagM=    0.0000000   0.0000000   0.0000000   0.0000000   2.7928460   2.7928460   2.7928460   2.7928460   2.7928460   2.7928460
 AtZNuc=   6.0000000   6.0000000   6.0000000   6.0000000   1.0000000   1.0000000   1.0000000   1.0000000   1.0000000   1.0000000

  Atom        11          12          13
 IAtWgt=           1           1           1
 AtmWgt=   1.0078250   1.0078250   1.0078250
 NucSpn=           1           1           1
 AtZEff=  -0.0000000  -0.0000000  -0.0000000
 NQMom=    0.0000000   0.0000000   0.0000000
 NMagM=    2.7928460   2.7928460   2.7928460
 AtZNuc=   1.0000000   1.0000000   1.0000000
 Leave Link  101 at Tue Apr 12 15:15:36 2022, MaxMem=  1073741824 cpu:               1.8 elap:               0.3
 (Enter /home/saurabh/gaussian/g16/l103.exe)

 GradGradGradGradGradGradGradGradGradGradGradGradGradGradGradGradGradGrad
 Berny optimization.
 Initialization pass.
                           ----------------------------
                           !    Initial Parameters    !
                           ! (Angstroms and Degrees)  !
 --------------------------                            --------------------------
 ! Name  Definition              Value          Derivative Info.                !
 --------------------------------------------------------------------------------
 ! R1    R(1,2)                  1.4914         calculate D2E/DX2 analytically  !
 ! R2    R(1,5)                  1.0923         calculate D2E/DX2 analytically  !
 ! R3    R(1,6)                  1.0922         calculate D2E/DX2 analytically  !
 ! R4    R(1,7)                  1.1028         calculate D2E/DX2 analytically  !
 ! R5    R(2,3)                  1.4914         calculate D2E/DX2 analytically  !
 ! R6    R(2,4)                  1.4914         calculate D2E/DX2 analytically  !
 ! R7    R(3,8)                  1.0923         calculate D2E/DX2 analytically  !
 ! R8    R(3,9)                  1.1028         calculate D2E/DX2 analytically  !
 ! R9    R(3,10)                 1.0923         calculate D2E/DX2 analytically  !
 ! R10   R(4,11)                 1.0923         calculate D2E/DX2 analytically  !
 ! R11   R(4,12)                 1.1028         calculate D2E/DX2 analytically  !
 ! R12   R(4,13)                 1.0923         calculate D2E/DX2 analytically  !
 ! A1    A(2,1,5)              111.7996         calculate D2E/DX2 analytically  !
 ! A2    A(2,1,6)              111.8005         calculate D2E/DX2 analytically  !
 ! A3    A(2,1,7)              111.8931         calculate D2E/DX2 analytically  !
 ! A4    A(5,1,6)              108.2505         calculate D2E/DX2 analytically  !
 ! A5    A(5,1,7)              106.3881         calculate D2E/DX2 analytically  !
 ! A6    A(6,1,7)              106.3893         calculate D2E/DX2 analytically  !
 ! A7    A(1,2,3)              118.8082         calculate D2E/DX2 analytically  !
 ! A8    A(1,2,4)              118.8057         calculate D2E/DX2 analytically  !
 ! A9    A(3,2,4)              118.8019         calculate D2E/DX2 analytically  !
 ! A10   A(2,3,8)              111.7999         calculate D2E/DX2 analytically  !
 ! A11   A(2,3,9)              111.8963         calculate D2E/DX2 analytically  !
 ! A12   A(2,3,10)             111.8011         calculate D2E/DX2 analytically  !
 ! A13   A(8,3,9)              106.3863         calculate D2E/DX2 analytically  !
 ! A14   A(8,3,10)             108.2492         calculate D2E/DX2 analytically  !
 ! A15   A(9,3,10)             106.3881         calculate D2E/DX2 analytically  !
 ! A16   A(2,4,11)             111.8008         calculate D2E/DX2 analytically  !
 ! A17   A(2,4,12)             111.894          calculate D2E/DX2 analytically  !
 ! A18   A(2,4,13)             111.7998         calculate D2E/DX2 analytically  !
 ! A19   A(11,4,12)            106.3877         calculate D2E/DX2 analytically  !
 ! A20   A(11,4,13)            108.2497         calculate D2E/DX2 analytically  !
 ! A21   A(12,4,13)            106.3891         calculate D2E/DX2 analytically  !
 ! D1    D(5,1,2,3)            161.5506         calculate D2E/DX2 analytically  !
 ! D2    D(5,1,2,4)            -40.0332         calculate D2E/DX2 analytically  !
 ! D3    D(6,1,2,3)             40.0            calculate D2E/DX2 analytically  !
 ! D4    D(6,1,2,4)           -161.5838         calculate D2E/DX2 analytically  !
 ! D5    D(7,1,2,3)            -79.2257         calculate D2E/DX2 analytically  !
 ! D6    D(7,1,2,4)             79.1904         calculate D2E/DX2 analytically  !
 ! D7    D(1,2,3,8)           -161.5665         calculate D2E/DX2 analytically  !
 ! D8    D(1,2,3,9)             79.2098         calculate D2E/DX2 analytically  !
 ! D9    D(1,2,3,10)           -40.0171         calculate D2E/DX2 analytically  !
 ! D10   D(4,2,3,8)             40.0165         calculate D2E/DX2 analytically  !
 ! D11   D(4,2,3,9)            -79.2072         calculate D2E/DX2 analytically  !
 ! D12   D(4,2,3,10)           161.566          calculate D2E/DX2 analytically  !
 ! D13   D(1,2,4,11)            40.0421         calculate D2E/DX2 analytically  !
 ! D14   D(1,2,4,12)           -79.1824         calculate D2E/DX2 analytically  !
 ! D15   D(1,2,4,13)           161.592          calculate D2E/DX2 analytically  !
 ! D16   D(3,2,4,11)          -161.5404         calculate D2E/DX2 analytically  !
 ! D17   D(3,2,4,12)            79.2351         calculate D2E/DX2 analytically  !
 ! D18   D(3,2,4,13)           -39.9905         calculate D2E/DX2 analytically  !
 --------------------------------------------------------------------------------
 Trust Radius=3.00D-01 FncErr=1.00D-07 GrdErr=1.00D-06 EigMax=2.50D+02 EigMin=1.00D-04
 Number of steps in this run=    100 maximum allowed number of steps=    100.
 GradGradGradGradGradGradGradGradGradGradGradGradGradGradGradGradGradGrad

 Leave Link  103 at Tue Apr 12 15:15:36 2022, MaxMem=  1073741824 cpu:               0.1 elap:               0.0
 (Enter /home/saurabh/gaussian/g16/l202.exe)
                          Input orientation:                          
 ---------------------------------------------------------------------
 Center     Atomic      Atomic             Coordinates (Angstroms)
 Number     Number       Type             X           Y           Z
 ---------------------------------------------------------------------
      1          6           0       -1.334267    0.645835    0.014634
      2          6           0       -0.000026    0.000022   -0.149492
      3          6           0        1.226456    0.832556    0.014632
      4          6           0        0.107818   -1.478395    0.014631
      5          1           0       -2.131760    0.048722   -0.433122
      6          1           0       -1.360525    1.641979   -0.432596
      7          1           0       -1.600924    0.774549    1.076930
      8          1           0        2.102179    0.357313   -0.432880
      9          1           0        1.471517    0.998858    1.076913
     10          1           0        1.108059    1.821877   -0.432859
     11          1           0       -0.741366   -1.999265   -0.433254
     12          1           0        0.128901   -1.773762    1.076922
     13          1           0        1.024031   -1.870383   -0.432482
 ---------------------------------------------------------------------
                    Distance matrix (angstroms):
                    1          2          3          4          5
     1  C    0.000000
     2  C    1.491379   0.000000
     3  C    2.567522   1.491411   0.000000
     4  C    2.567482   1.491403   2.567459   0.000000
     5  H    1.092257   2.151071   3.477426   2.747413   0.000000
     6  H    1.092249   2.151076   2.747299   3.477467   1.770105
     7  H    1.102790   2.160296   3.020914   3.020602   1.757518
     8  H    3.477452   2.151100   1.092252   2.747283   4.245170
     9  H    3.020842   2.160366   1.102793   3.020745   4.020767
    10  H    2.747414   2.151117   1.092256   3.477431   3.693306
    11  H    2.747488   2.151105   3.477375   1.092255   2.475368
    12  H    3.020557   2.160329   3.020924   1.102791   3.272960
    13  H    3.477475   2.151091   2.747138   1.092250   3.693505
                    6          7          8          9         10
     6  H    0.000000
     7  H    1.757525   0.000000
     8  H    3.693330   4.020769   0.000000
     9  H    3.273024   3.080618   1.757495   0.000000
    10  H    2.475130   3.273369   1.770091   1.757519   0.000000
    11  H    3.693510   3.273154   3.693130   4.020721   4.245174
    12  H    4.020488   3.079965   3.273348   3.080591   4.020797
    13  H    4.245326   4.020495   2.474880   3.272776   3.693216
                   11         12         13
    11  H    0.000000
    12  H    1.757512   0.000000
    13  H    1.770095   1.757525   0.000000
 Stoichiometry    C4H9(2)
 Framework group  C1[X(C4H9)]
 Deg. of freedom    33
 Full point group                 C1      NOp   1
 Largest Abelian subgroup         C1      NOp   1
 Largest concise Abelian subgroup C1      NOp   1
                         Standard orientation:                         
 ---------------------------------------------------------------------
 Center     Atomic      Atomic             Coordinates (Angstroms)
 Number     Number       Type             X           Y           Z
 ---------------------------------------------------------------------
      1          6           0        1.333644   -0.647120    0.014634
      2          6           0        0.000026   -0.000022   -0.149492
      3          6           0       -1.227257   -0.831375    0.014632
      4          6           0       -0.106394    1.478498    0.014631
      5          1           0        2.131712   -0.050775   -0.433122
      6          1           0        1.358943   -1.643289   -0.432596
      7          1           0        1.600177   -0.776091    1.076930
      8          1           0       -2.102522   -0.355288   -0.432880
      9          1           0       -1.472478   -0.997440    1.076913
     10          1           0       -1.109813   -1.820809   -0.432859
     11          1           0        0.743291    1.998550   -0.433254
     12          1           0       -0.127193    1.773885    1.076922
     13          1           0       -1.022229    1.871368   -0.432482
 ---------------------------------------------------------------------
 Rotational constants (GHZ):           8.0234367           8.0230354           4.3506453
 Leave Link  202 at Tue Apr 12 15:15:36 2022, MaxMem=  1073741824 cpu:               0.1 elap:               0.0
 (Enter /home/saurabh/gaussian/g16/l301.exe)
 Standard basis: CC-pVTZ (5D, 7F)
 Ernie: Thresh=  0.10000D-02 Tol=  0.10000D-05 Strict=F.
 Ernie:  12 primitive shells out of 176 were deleted.
 There are   275 symmetry adapted cartesian basis functions of A   symmetry.
 There are   246 symmetry adapted basis functions of A   symmetry.
   246 basis functions,   361 primitive gaussians,   275 cartesian basis functions
    17 alpha electrons       16 beta electrons
       nuclear repulsion energy       125.4964883276 Hartrees.
 IExCor=  402 DFT=T Ex+Corr=B3LYP ExCW=0 ScaHFX=  0.200000
 ScaDFX=  0.800000  0.720000  1.000000  0.810000 ScalE2=  1.000000  1.000000
 IRadAn=      5 IRanWt=     -1 IRanGd=            0 ICorTp=0 IEmpDi=  4
 NAtoms=   13 NActive=   13 NUniq=   13 SFac= 1.00D+00 NAtFMM=   60 NAOKFM=F Big=F
 Integral buffers will be    131072 words long.
 Raffenetti 2 integral format.
 Two-electron integral symmetry is turned on.
 Leave Link  301 at Tue Apr 12 15:15:36 2022, MaxMem=  1073741824 cpu:               0.5 elap:               0.1
 (Enter /home/saurabh/gaussian/g16/l302.exe)
 NPDir=0 NMtPBC=     1 NCelOv=     1 NCel=       1 NClECP=     1 NCelD=      1
         NCelK=      1 NCelE2=     1 NClLst=     1 CellRange=     0.0.
 One-electron integrals computed using PRISM.
 One-electron integral symmetry used in STVInt
 NBasis=   246 RedAO= T EigKep=  7.04D-04  NBF=   246
 NBsUse=   246 1.00D-06 EigRej= -1.00D+00 NBFU=   246
 Precomputing XC quadrature grid using
 IXCGrd= 4 IRadAn=           5 IRanWt=          -1 IRanGd=           0 AccXCQ= 0.00D+00.
 Generated NRdTot=       0 NPtTot=           0 NUsed=           0 NTot=          32
 NSgBfM=   275   275   275   275   275 MxSgAt=    13 MxSgA2=    13.
 Leave Link  302 at Tue Apr 12 15:15:36 2022, MaxMem=  1073741824 cpu:               1.7 elap:               0.2
 (Enter /home/saurabh/gaussian/g16/l303.exe)
 DipDrv:  MaxL=1.
 Leave Link  303 at Tue Apr 12 15:15:36 2022, MaxMem=  1073741824 cpu:               0.3 elap:               0.1
 (Enter /home/saurabh/gaussian/g16/l401.exe)
 ExpMin= 1.03D-01 ExpMax= 8.24D+03 ExpMxC= 2.81D+02 IAcc=3 IRadAn=         5 AccDes= 0.00D+00
 Harris functional with IExCor=  402 and IRadAn=       5 diagonalized for initial guess.
 HarFok:  IExCor=  402 AccDes= 0.00D+00 IRadAn=         5 IDoV= 1 UseB2=F ITyADJ=14
 ICtDFT=  3500011 ScaDFX=  1.000000  1.000000  1.000000  1.000000
 FoFCou: FMM=F IPFlag=           0 FMFlag=      100000 FMFlg1=           0
         NFxFlg=           0 DoJE=T BraDBF=F KetDBF=T FulRan=T
         wScrn=  0.000000 ICntrl=       500 IOpCl=  0 I1Cent=   200000004 NGrid=           0
         NMat0=    1 NMatS0=      1 NMatT0=    0 NMatD0=    1 NMtDS0=    0 NMtDT0=    0
 Petite list used in FoFCou.
 Harris En= -157.916870731738    
 JPrj=0 DoOrth=F DoCkMO=F.
 Initial guess <Sx>= 0.0000 <Sy>= 0.0000 <Sz>= 0.5000 <S**2>= 0.7500 S= 0.5000
 Leave Link  401 at Tue Apr 12 15:15:37 2022, MaxMem=  1073741824 cpu:               6.6 elap:               0.9
 (Enter /home/saurabh/gaussian/g16/l502.exe)
 Integral symmetry usage will be decided dynamically.
 UHF open shell SCF:
 Using DIIS extrapolation, IDIIS=  1040.
 NGot=  1073741824 LenX=  1073585516 LenY=  1073509450
 Requested convergence on RMS density matrix=1.00D-08 within1000 cycles.
 Requested convergence on MAX density matrix=1.00D-06.
 Requested convergence on             energy=1.00D-06.
 No special actions if energy rises.
 Fock matrices will be formed incrementally for  20 cycles.
 Integral accuracy reduced to 1.0D-05 until final iterations.

 Cycle   1  Pass 0  IDiag  1:
 FoFJK:  IHMeth= 1 ICntrl=       0 DoSepK=F KAlg= 0 I1Cent=           0 FoldK=F
 IRaf= 990000000 NMat=       1 IRICut=       1 DoRegI=T DoRafI=F ISym2E= 0 IDoP0=0 IntGTp=1.
 FoFCou: FMM=F IPFlag=           0 FMFlag=      100000 FMFlg1=           0
         NFxFlg=           0 DoJE=F BraDBF=F KetDBF=F FulRan=T
         wScrn=  0.000000 ICntrl=         0 IOpCl=  1 I1Cent=           0 NGrid=           0
         NMat0=    1 NMatS0=      1 NMatT0=    0 NMatD0=    1 NMtDS0=    0 NMtDT0=    0
 Symmetry not used in FoFCou.
 E= -157.642447530603    
 DIIS: error= 4.09D-02 at cycle   1 NSaved=   1.
 NSaved= 1 IEnMin= 1 EnMin= -157.642447530603     IErMin= 1 ErrMin= 4.09D-02
 ErrMax= 4.09D-02  0.00D+00 EMaxC= 1.00D-01 BMatC= 8.65D-01 BMatP= 8.65D-01
 IDIUse=3 WtCom= 5.91D-01 WtEn= 4.09D-01
 Coeff-Com:  0.100D+01
 Coeff-En:   0.100D+01
 Coeff:      0.100D+01
 Gap=     0.132 Goal=   None    Shift=    0.000
 Gap=     0.279 Goal=   None    Shift=    0.000
 GapD=    0.132 DampG=1.000 DampE=0.500 DampFc=0.5000 IDamp=-1.
 Damping current iteration by 5.00D-01
 RMSDP=3.35D-03 MaxDP=1.45D-01              OVMax= 1.99D-01

 Cycle   2  Pass 0  IDiag  1:
 RMSU=  1.67D-03    CP:  9.87D-01
 E= -157.735261270989     Delta-E=       -0.092813740386 Rises=F Damp=T
 DIIS: error= 8.45D-03 at cycle   2 NSaved=   2.
 NSaved= 2 IEnMin= 2 EnMin= -157.735261270989     IErMin= 2 ErrMin= 8.45D-03
 ErrMax= 8.45D-03  0.00D+00 EMaxC= 1.00D-01 BMatC= 3.53D-02 BMatP= 8.65D-01
 IDIUse=3 WtCom= 9.16D-01 WtEn= 8.45D-02
 Coeff-Com:  0.708D-01 0.929D+00
 Coeff-En:   0.161D+00 0.839D+00
 Coeff:      0.784D-01 0.922D+00
 Gap=     0.211 Goal=   None    Shift=    0.000
 Gap=     0.320 Goal=   None    Shift=    0.000
 RMSDP=7.89D-04 MaxDP=3.78D-02 DE=-9.28D-02 OVMax= 1.37D-01

 Cycle   3  Pass 0  IDiag  1:
 RMSU=  5.35D-04    CP:  9.91D-01  6.54D-01
 E= -157.857724887917     Delta-E=       -0.122463616928 Rises=F Damp=F
 DIIS: error= 5.59D-03 at cycle   3 NSaved=   3.
 NSaved= 3 IEnMin= 3 EnMin= -157.857724887917     IErMin= 3 ErrMin= 5.59D-03
 ErrMax= 5.59D-03  0.00D+00 EMaxC= 1.00D-01 BMatC= 7.91D-03 BMatP= 3.53D-02
 IDIUse=3 WtCom= 9.44D-01 WtEn= 5.59D-02
 Coeff-Com: -0.895D-02 0.257D+00 0.752D+00
 Coeff-En:   0.000D+00 0.000D+00 0.100D+01
 Coeff:     -0.845D-02 0.243D+00 0.765D+00
 Gap=     0.195 Goal=   None    Shift=    0.000
 Gap=     0.308 Goal=   None    Shift=    0.000
 RMSDP=2.22D-04 MaxDP=1.29D-02 DE=-1.22D-01 OVMax= 2.75D-02

 Cycle   4  Pass 0  IDiag  1:
 RMSU=  1.43D-04    CP:  9.90D-01  7.40D-01  8.33D-01
 E= -157.859082780140     Delta-E=       -0.001357892224 Rises=F Damp=F
 DIIS: error= 3.10D-03 at cycle   4 NSaved=   4.
 NSaved= 4 IEnMin= 4 EnMin= -157.859082780140     IErMin= 4 ErrMin= 3.10D-03
 ErrMax= 3.10D-03  0.00D+00 EMaxC= 1.00D-01 BMatC= 3.54D-03 BMatP= 7.91D-03
 IDIUse=3 WtCom= 9.69D-01 WtEn= 3.10D-02
 Coeff-Com: -0.131D-01 0.310D-01 0.418D+00 0.564D+00
 Coeff-En:   0.000D+00 0.000D+00 0.271D+00 0.729D+00
 Coeff:     -0.127D-01 0.301D-01 0.413D+00 0.569D+00
 Gap=     0.204 Goal=   None    Shift=    0.000
 Gap=     0.304 Goal=   None    Shift=    0.000
 RMSDP=1.03D-04 MaxDP=6.77D-03 DE=-1.36D-03 OVMax= 1.14D-02

 Cycle   5  Pass 0  IDiag  1:
 RMSU=  3.64D-05    CP:  9.90D-01  7.06D-01  9.23D-01  5.82D-01
 E= -157.859930742669     Delta-E=       -0.000847962529 Rises=F Damp=F
 DIIS: error= 3.16D-04 at cycle   5 NSaved=   5.
 NSaved= 5 IEnMin= 5 EnMin= -157.859930742669     IErMin= 5 ErrMin= 3.16D-04
 ErrMax= 3.16D-04  0.00D+00 EMaxC= 1.00D-01 BMatC= 3.43D-05 BMatP= 3.54D-03
 IDIUse=3 WtCom= 9.97D-01 WtEn= 3.16D-03
 Coeff-Com: -0.162D-02-0.680D-02 0.612D-01 0.127D+00 0.821D+00
 Coeff-En:   0.000D+00 0.000D+00 0.000D+00 0.000D+00 0.100D+01
 Coeff:     -0.161D-02-0.678D-02 0.610D-01 0.126D+00 0.821D+00
 Gap=     0.204 Goal=   None    Shift=    0.000
 Gap=     0.305 Goal=   None    Shift=    0.000
 RMSDP=1.02D-05 MaxDP=7.05D-04 DE=-8.48D-04 OVMax= 1.35D-03

 Cycle   6  Pass 0  IDiag  1:
 RMSU=  9.38D-06    CP:  9.90D-01  7.05D-01  9.29D-01  5.95D-01  1.00D+00
 E= -157.859940671671     Delta-E=       -0.000009929002 Rises=F Damp=F
 DIIS: error= 7.30D-05 at cycle   6 NSaved=   6.
 NSaved= 6 IEnMin= 6 EnMin= -157.859940671671     IErMin= 6 ErrMin= 7.30D-05
 ErrMax= 7.30D-05  0.00D+00 EMaxC= 1.00D-01 BMatC= 2.55D-06 BMatP= 3.43D-05
 IDIUse=1 WtCom= 1.00D+00 WtEn= 0.00D+00
 Coeff-Com:  0.102D-02-0.315D-02-0.280D-01-0.361D-01 0.540D-01 0.101D+01
 Coeff:      0.102D-02-0.315D-02-0.280D-01-0.361D-01 0.540D-01 0.101D+01
 Gap=     0.204 Goal=   None    Shift=    0.000
 Gap=     0.305 Goal=   None    Shift=    0.000
 RMSDP=6.99D-06 MaxDP=3.30D-04 DE=-9.93D-06 OVMax= 6.34D-04

 Initial convergence to 1.0D-05 achieved.  Increase integral accuracy.
 Cycle   7  Pass 1  IDiag  1:
 E= -157.859938483335     Delta-E=        0.000002188336 Rises=F Damp=F
 DIIS: error= 4.71D-05 at cycle   1 NSaved=   1.
 NSaved= 1 IEnMin= 1 EnMin= -157.859938483335     IErMin= 1 ErrMin= 4.71D-05
 ErrMax= 4.71D-05  0.00D+00 EMaxC= 1.00D-01 BMatC= 7.62D-07 BMatP= 7.62D-07
 IDIUse=1 WtCom= 1.00D+00 WtEn= 0.00D+00
 Coeff-Com:  0.100D+01
 Coeff:      0.100D+01
 Gap=     0.204 Goal=   None    Shift=    0.000
 Gap=     0.305 Goal=   None    Shift=    0.000
 RMSDP=6.99D-06 MaxDP=3.30D-04 DE= 2.19D-06 OVMax= 2.54D-04

 Cycle   8  Pass 1  IDiag  1:
 RMSU=  4.61D-06    CP:  1.00D+00
 E= -157.859938604225     Delta-E=       -0.000000120890 Rises=F Damp=F
 DIIS: error= 4.55D-05 at cycle   2 NSaved=   2.
 NSaved= 2 IEnMin= 2 EnMin= -157.859938604225     IErMin= 2 ErrMin= 4.55D-05
 ErrMax= 4.55D-05  0.00D+00 EMaxC= 1.00D-01 BMatC= 3.64D-07 BMatP= 7.62D-07
 IDIUse=1 WtCom= 1.00D+00 WtEn= 0.00D+00
 Coeff-Com:  0.390D+00 0.610D+00
 Coeff:      0.390D+00 0.610D+00
 Gap=     0.204 Goal=   None    Shift=    0.000
 Gap=     0.305 Goal=   None    Shift=    0.000
 RMSDP=1.51D-06 MaxDP=1.00D-04 DE=-1.21D-07 OVMax= 1.32D-04

 Cycle   9  Pass 1  IDiag  1:
 RMSU=  1.20D-06    CP:  1.00D+00  8.02D-01
 E= -157.859938706685     Delta-E=       -0.000000102460 Rises=F Damp=F
 DIIS: error= 1.00D-05 at cycle   3 NSaved=   3.
 NSaved= 3 IEnMin= 3 EnMin= -157.859938706685     IErMin= 3 ErrMin= 1.00D-05
 ErrMax= 1.00D-05  0.00D+00 EMaxC= 1.00D-01 BMatC= 2.31D-08 BMatP= 3.64D-07
 IDIUse=1 WtCom= 1.00D+00 WtEn= 0.00D+00
 Coeff-Com: -0.226D-01 0.129D+00 0.894D+00
 Coeff:     -0.226D-01 0.129D+00 0.894D+00
 Gap=     0.204 Goal=   None    Shift=    0.000
 Gap=     0.305 Goal=   None    Shift=    0.000
 RMSDP=4.37D-07 MaxDP=2.23D-05 DE=-1.02D-07 OVMax= 3.40D-05

 Cycle  10  Pass 1  IDiag  1:
 RMSU=  3.49D-07    CP:  1.00D+00  8.56D-01  9.30D-01
 E= -157.859938714256     Delta-E=       -0.000000007570 Rises=F Damp=F
 DIIS: error= 5.26D-06 at cycle   4 NSaved=   4.
 NSaved= 4 IEnMin= 4 EnMin= -157.859938714256     IErMin= 4 ErrMin= 5.26D-06
 ErrMax= 5.26D-06  0.00D+00 EMaxC= 1.00D-01 BMatC= 8.84D-09 BMatP= 2.31D-08
 IDIUse=1 WtCom= 1.00D+00 WtEn= 0.00D+00
 Coeff-Com: -0.638D-01-0.177D-01 0.437D+00 0.645D+00
 Coeff:     -0.638D-01-0.177D-01 0.437D+00 0.645D+00
 Gap=     0.204 Goal=   None    Shift=    0.000
 Gap=     0.305 Goal=   None    Shift=    0.000
 RMSDP=2.22D-07 MaxDP=1.69D-05 DE=-7.57D-09 OVMax= 2.11D-05

 Cycle  11  Pass 1  IDiag  1:
 RMSU=  1.88D-07    CP:  1.00D+00  8.63D-01  1.01D+00  8.10D-01
 E= -157.859938717015     Delta-E=       -0.000000002759 Rises=F Damp=F
 DIIS: error= 1.42D-06 at cycle   5 NSaved=   5.
 NSaved= 5 IEnMin= 5 EnMin= -157.859938717015     IErMin= 5 ErrMin= 1.42D-06
 ErrMax= 1.42D-06  0.00D+00 EMaxC= 1.00D-01 BMatC= 6.36D-10 BMatP= 8.84D-09
 IDIUse=1 WtCom= 1.00D+00 WtEn= 0.00D+00
 Coeff-Com: -0.255D-02-0.342D-01-0.164D+00 0.101D+00 0.110D+01
 Coeff:     -0.255D-02-0.342D-01-0.164D+00 0.101D+00 0.110D+01
 Gap=     0.204 Goal=   None    Shift=    0.000
 Gap=     0.305 Goal=   None    Shift=    0.000
 RMSDP=8.27D-08 MaxDP=3.77D-06 DE=-2.76D-09 OVMax= 6.63D-06

 Cycle  12  Pass 1  IDiag  1:
 RMSU=  2.09D-08    CP:  1.00D+00  8.67D-01  1.03D+00  1.01D+00  1.13D+00
 E= -157.859938717339     Delta-E=       -0.000000000324 Rises=F Damp=F
 DIIS: error= 2.28D-07 at cycle   6 NSaved=   6.
 NSaved= 6 IEnMin= 6 EnMin= -157.859938717339     IErMin= 6 ErrMin= 2.28D-07
 ErrMax= 2.28D-07  0.00D+00 EMaxC= 1.00D-01 BMatC= 1.02D-11 BMatP= 6.36D-10
 IDIUse=1 WtCom= 1.00D+00 WtEn= 0.00D+00
 Coeff-Com:  0.793D-03-0.743D-02-0.458D-01 0.503D-02 0.252D+00 0.796D+00
 Coeff:      0.793D-03-0.743D-02-0.458D-01 0.503D-02 0.252D+00 0.796D+00
 Gap=     0.204 Goal=   None    Shift=    0.000
 Gap=     0.305 Goal=   None    Shift=    0.000
 RMSDP=6.70D-09 MaxDP=2.03D-07 DE=-3.24D-10 OVMax= 6.51D-07

 SCF Done:  E(UB3LYP) =  -157.859938717     A.U. after   12 cycles
            NFock= 12  Conv=0.67D-08     -V/T= 2.0075
 <Sx>= 0.0000 <Sy>= 0.0000 <Sz>= 0.5000 <S**2>= 0.7542 S= 0.5021
 <L.S>=  0.00000000000    
 KE= 1.566823777810D+02 PE=-6.155965795642D+02 EE= 1.755577747382D+02
 Annihilation of the first spin contaminant:
 S**2 before annihilation     0.7542,   after     0.7500
 Leave Link  502 at Tue Apr 12 15:16:00 2022, MaxMem=  1073741824 cpu:             184.1 elap:              23.0
 (Enter /home/saurabh/gaussian/g16/l801.exe)
 DoSCS=F DFT=T ScalE2(SS,OS)=  1.000000  1.000000
 Range of M.O.s used for correlation:     1   246
 NBasis=   246 NAE=    17 NBE=    16 NFC=     0 NFV=     0
 NROrb=    246 NOA=    17 NOB=    16 NVA=   229 NVB=   230

 **** Warning!!: The largest alpha MO coefficient is  0.12267795D+02


 **** Warning!!: The largest beta MO coefficient is  0.12491412D+02

 Leave Link  801 at Tue Apr 12 15:16:00 2022, MaxMem=  1073741824 cpu:               0.2 elap:               0.0
 (Enter /home/saurabh/gaussian/g16/l1101.exe)
 Using compressed storage, NAtomX=    13.
 Will process     14 centers per pass.
 Leave Link 1101 at Tue Apr 12 15:16:00 2022, MaxMem=  1073741824 cpu:               1.8 elap:               0.3
 (Enter /home/saurabh/gaussian/g16/l1102.exe)
 Symmetrizing basis deriv contribution to polar:
 IMax=3 JMax=2 DiffMx= 0.00D+00
 Leave Link 1102 at Tue Apr 12 15:16:00 2022, MaxMem=  1073741824 cpu:               0.2 elap:               0.1
 (Enter /home/saurabh/gaussian/g16/l1110.exe)
 Forming Gx(P) for the SCF density, NAtomX=    13.
 Integral derivatives from FoFJK, PRISM(SPDF).
 Do as many integral derivatives as possible in FoFJK.
 G2DrvN: MDV=    1073740349.
 G2DrvN: will do    14 centers at a time, making    1 passes.
 Calling FoFCou, ICntrl=  3107 FMM=F I1Cent=   0 AccDes= 0.00D+00.
 FoFJK:  IHMeth= 1 ICntrl=    3107 DoSepK=F KAlg= 0 I1Cent=           0 FoldK=F
 IRaf=         0 NMat=       1 IRICut=       1 DoRegI=T DoRafI=F ISym2E= 0 IDoP0=0 IntGTp=1.
 FoFCou: FMM=F IPFlag=           0 FMFlag=      100000 FMFlg1=           0
         NFxFlg=           0 DoJE=F BraDBF=F KetDBF=F FulRan=T
         wScrn=  0.000000 ICntrl=      3107 IOpCl=  1 I1Cent=           0 NGrid=           0
         NMat0=    1 NMatS0=      1 NMatT0=    0 NMatD0=    1 NMtDS0=    0 NMtDT0=    0
 Symmetry not used in FoFCou.
 End of G2Drv F.D. properties file   721 does not exist.
 End of G2Drv F.D. properties file   722 does not exist.
 End of G2Drv F.D. properties file   788 does not exist.
 Leave Link 1110 at Tue Apr 12 15:16:47 2022, MaxMem=  1073741824 cpu:             371.2 elap:              46.4
 (Enter /home/saurabh/gaussian/g16/l1002.exe)
 Minotr:  UHF open shell wavefunction.
          IDoAtm=1111111111111
          Direct CPHF calculation.
          Differentiating once with respect to nuclear coordinates.
          Requested convergence is 1.0D-08 RMS, and 1.0D-07 maximum.
          Secondary convergence is 1.0D-12 RMS, and 1.0D-12 maximum.
          NewPWx=T KeepS1=F KeepF1=F KeepIn=T MapXYZ=F SortEE=F KeepMc=T.
         3847 words used for storage of precomputed grid.
 Keep R1 and R2 ints in memory in canonical form, NReq=933555493.
 FoFCou: FMM=F IPFlag=           0 FMFlag=           0 FMFlg1=           0
         NFxFlg=           0 DoJE=F BraDBF=F KetDBF=F FulRan=T
         wScrn=  0.000000 ICntrl=       600 IOpCl=  0 I1Cent=           0 NGrid=           0
         NMat0=    1 NMatS0=  30381 NMatT0=    0 NMatD0=    1 NMtDS0=    0 NMtDT0=    0
 Symmetry not used in FoFCou.
 Two-electron integral symmetry not used.
          MDV=    1073741824 using IRadAn=       1.
          Solving linear equations simultaneously, MaxMat=       0.
          There are    42 degrees of freedom in the 1st order CPHF.  IDoFFX=6 NUNeed=     0.
     36 vectors produced by pass  0 Test12= 1.80D-14 2.38D-09 XBig12= 1.59D-01 1.72D-01.
 AX will form    36 AO Fock derivatives at one time.
     36 vectors produced by pass  1 Test12= 1.80D-14 2.38D-09 XBig12= 1.47D-02 4.00D-02.
     36 vectors produced by pass  2 Test12= 1.80D-14 2.38D-09 XBig12= 3.21D-04 5.25D-03.
     36 vectors produced by pass  3 Test12= 1.80D-14 2.38D-09 XBig12= 4.96D-06 4.20D-04.
     36 vectors produced by pass  4 Test12= 1.80D-14 2.38D-09 XBig12= 6.32D-08 6.17D-05.
     36 vectors produced by pass  5 Test12= 1.80D-14 2.38D-09 XBig12= 2.84D-10 2.52D-06.
     14 vectors produced by pass  6 Test12= 1.80D-14 2.38D-09 XBig12= 1.35D-12 2.00D-07.
      7 vectors produced by pass  7 Test12= 1.80D-14 2.38D-09 XBig12= 1.07D-14 1.46D-08.
 InvSVY:  IOpt=1 It=  1 EMax= 1.11D-15
 Solved reduced A of dimension   237 with    36 vectors.
 End of Minotr F.D. properties file   721 does not exist.
 End of Minotr F.D. properties file   722 does not exist.
 End of Minotr F.D. properties file   788 does not exist.
 Leave Link 1002 at Tue Apr 12 15:17:42 2022, MaxMem=  1073741824 cpu:             439.1 elap:              54.9
 (Enter /home/saurabh/gaussian/g16/l601.exe)
 Copying SCF densities to generalized density rwf, IOpCl= 1 IROHF=0.

 **********************************************************************

            Population analysis using the SCF Density.

 **********************************************************************

 Orbital symmetries:
 Alpha Orbitals:
       Occupied  (A) (A) (A) (A) (A) (A) (A) (A) (A) (A) (A) (A)
                 (A) (A) (A) (A) (A)
       Virtual   (A) (A) (A) (A) (A) (A) (A) (A) (A) (A) (A) (A)
                 (A) (A) (A) (A) (A) (A) (A) (A) (A) (A) (A) (A)
                 (A) (A) (A) (A) (A) (A) (A) (A) (A) (A) (A) (A)
                 (A) (A) (A) (A) (A) (A) (A) (A) (A) (A) (A) (A)
                 (A) (A) (A) (A) (A) (A) (A) (A) (A) (A) (A) (A)
                 (A) (A) (A) (A) (A) (A) (A) (A) (A) (A) (A) (A)
                 (A) (A) (A) (A) (A) (A) (A) (A) (A) (A) (A) (A)
                 (A) (A) (A) (A) (A) (A) (A) (A) (A) (A) (A) (A)
                 (A) (A) (A) (A) (A) (A) (A) (A) (A) (A) (A) (A)
                 (A) (A) (A) (A) (A) (A) (A) (A) (A) (A) (A) (A)
                 (A) (A) (A) (A) (A) (A) (A) (A) (A) (A) (A) (A)
                 (A) (A) (A) (A) (A) (A) (A) (A) (A) (A) (A) (A)
                 (A) (A) (A) (A) (A) (A) (A) (A) (A) (A) (A) (A)
                 (A) (A) (A) (A) (A) (A) (A) (A) (A) (A) (A) (A)
                 (A) (A) (A) (A) (A) (A) (A) (A) (A) (A) (A) (A)
                 (A) (A) (A) (A) (A) (A) (A) (A) (A) (A) (A) (A)
                 (A) (A) (A) (A) (A) (A) (A) (A) (A) (A) (A) (A)
                 (A) (A) (A) (A) (A) (A) (A) (A) (A) (A) (A) (A)
                 (A) (A) (A) (A) (A) (A) (A) (A) (A) (A) (A) (A)
                 (A)
 Beta  Orbitals:
       Occupied  (A) (A) (A) (A) (A) (A) (A) (A) (A) (A) (A) (A)
                 (A) (A) (A) (A)
       Virtual   (A) (A) (A) (A) (A) (A) (A) (A) (A) (A) (A) (A)
                 (A) (A) (A) (A) (A) (A) (A) (A) (A) (A) (A) (A)
                 (A) (A) (A) (A) (A) (A) (A) (A) (A) (A) (A) (A)
                 (A) (A) (A) (A) (A) (A) (A) (A) (A) (A) (A) (A)
                 (A) (A) (A) (A) (A) (A) (A) (A) (A) (A) (A) (A)
                 (A) (A) (A) (A) (A) (A) (A) (A) (A) (A) (A) (A)
                 (A) (A) (A) (A) (A) (A) (A) (A) (A) (A) (A) (A)
                 (A) (A) (A) (A) (A) (A) (A) (A) (A) (A) (A) (A)
                 (A) (A) (A) (A) (A) (A) (A) (A) (A) (A) (A) (A)
                 (A) (A) (A) (A) (A) (A) (A) (A) (A) (A) (A) (A)
                 (A) (A) (A) (A) (A) (A) (A) (A) (A) (A) (A) (A)
                 (A) (A) (A) (A) (A) (A) (A) (A) (A) (A) (A) (A)
                 (A) (A) (A) (A) (A) (A) (A) (A) (A) (A) (A) (A)
                 (A) (A) (A) (A) (A) (A) (A) (A) (A) (A) (A) (A)
                 (A) (A) (A) (A) (A) (A) (A) (A) (A) (A) (A) (A)
                 (A) (A) (A) (A) (A) (A) (A) (A) (A) (A) (A) (A)
                 (A) (A) (A) (A) (A) (A) (A) (A) (A) (A) (A) (A)
                 (A) (A) (A) (A) (A) (A) (A) (A) (A) (A) (A) (A)
                 (A) (A) (A) (A) (A) (A) (A) (A) (A) (A) (A) (A)
                 (A) (A)
 The electronic state is 2-A.
 Alpha  occ. eigenvalues --  -10.17907 -10.16264 -10.16264 -10.16263  -0.80448
 Alpha  occ. eigenvalues --   -0.69240  -0.69239  -0.53782  -0.44664  -0.44205
 Alpha  occ. eigenvalues --   -0.44205  -0.38788  -0.38787  -0.36898  -0.34670
 Alpha  occ. eigenvalues --   -0.34669  -0.17375
 Alpha virt. eigenvalues --    0.03031   0.07866   0.07866   0.09791   0.09791
 Alpha virt. eigenvalues --    0.10175   0.13608   0.13609   0.14614   0.16773
 Alpha virt. eigenvalues --    0.20239   0.20241   0.24816   0.25268   0.25268
 Alpha virt. eigenvalues --    0.32741   0.32743   0.35804   0.35935   0.35936
 Alpha virt. eigenvalues --    0.36707   0.38224   0.45264   0.45264   0.46059
 Alpha virt. eigenvalues --    0.46280   0.46281   0.46308   0.47518   0.49276
 Alpha virt. eigenvalues --    0.49277   0.51625   0.53176   0.53177   0.61378
 Alpha virt. eigenvalues --    0.61386   0.65337   0.75490   0.75498   0.77738
 Alpha virt. eigenvalues --    0.77752   0.77817   0.82282   0.87221   0.87223
 Alpha virt. eigenvalues --    0.92530   0.92532   0.94819   0.97327   0.98219
 Alpha virt. eigenvalues --    0.98221   1.03112   1.03116   1.03687   1.07681
 Alpha virt. eigenvalues --    1.15682   1.15728   1.15730   1.16700   1.16701
 Alpha virt. eigenvalues --    1.20561   1.20562   1.20976   1.25084   1.25091
 Alpha virt. eigenvalues --    1.25579   1.26261   1.31007   1.31009   1.33163
 Alpha virt. eigenvalues --    1.33935   1.33937   1.38443   1.38446   1.44757
 Alpha virt. eigenvalues --    1.47533   1.49597   1.49824   1.49824   1.54783
 Alpha virt. eigenvalues --    1.57363   1.57367   1.70602   1.70608   2.10982
 Alpha virt. eigenvalues --    2.17743   2.17746   2.23408   2.25274   2.25280
 Alpha virt. eigenvalues --    2.31592   2.31598   2.34648   2.36461   2.49828
 Alpha virt. eigenvalues --    2.52151   2.52153   2.58301   2.60156   2.60941
 Alpha virt. eigenvalues --    2.60942   2.64461   2.64462   2.75551   2.75552
 Alpha virt. eigenvalues --    2.80776   2.80972   2.81486   2.81489   2.86862
 Alpha virt. eigenvalues --    2.86864   2.88286   2.89443   2.89445   2.93909
 Alpha virt. eigenvalues --    2.93910   2.94945   2.96198   3.00223   3.00224
 Alpha virt. eigenvalues --    3.04302   3.04305   3.04554   3.08153   3.08418
 Alpha virt. eigenvalues --    3.09048   3.09051   3.13082   3.20047   3.20063
 Alpha virt. eigenvalues --    3.27567   3.31114   3.31121   3.33720   3.33721
 Alpha virt. eigenvalues --    3.34671   3.40349   3.40355   3.41221   3.42354
 Alpha virt. eigenvalues --    3.42356   3.46931   3.46932   3.48635   3.49068
 Alpha virt. eigenvalues --    3.50484   3.50488   3.59536   3.59537   3.60310
 Alpha virt. eigenvalues --    3.67030   3.72217   3.72220   3.72952   3.75656
 Alpha virt. eigenvalues --    3.75661   3.80715   3.80717   3.81095   3.86087
 Alpha virt. eigenvalues --    3.86091   3.91680   3.91934   3.92693   3.92700
 Alpha virt. eigenvalues --    3.95902   3.95907   4.01689   4.08621   4.12053
 Alpha virt. eigenvalues --    4.12056   4.14109   4.14113   4.17043   4.19424
 Alpha virt. eigenvalues --    4.20130   4.20137   4.23821   4.23822   4.26403
 Alpha virt. eigenvalues --    4.32423   4.37352   4.37358   4.38084   4.42696
 Alpha virt. eigenvalues --    4.42697   4.43195   4.45729   4.45740   4.69972
 Alpha virt. eigenvalues --    4.78585   4.79532   4.79532   4.81989   4.81995
 Alpha virt. eigenvalues --    4.96449   4.96450   4.98851   5.01156   5.01158
 Alpha virt. eigenvalues --    5.05091   5.13034   5.13038   5.14732   5.17314
 Alpha virt. eigenvalues --    5.17320   5.20907   5.22699   5.26130   5.28302
 Alpha virt. eigenvalues --    5.28306   5.30161   5.36340   5.36345   5.42372
 Alpha virt. eigenvalues --    5.42376   5.45161   5.57773   5.57784   5.86162
 Alpha virt. eigenvalues --    5.86164   5.88124   5.88449   5.88449   5.95665
 Alpha virt. eigenvalues --    9.08562  13.26696  13.70700  13.70713
  Beta  occ. eigenvalues --  -10.16523 -10.16344 -10.16344 -10.16340  -0.78778
  Beta  occ. eigenvalues --   -0.69014  -0.69013  -0.51924  -0.43831  -0.43831
  Beta  occ. eigenvalues --   -0.42712  -0.38175  -0.38175  -0.36788  -0.34196
  Beta  occ. eigenvalues --   -0.34195
  Beta virt. eigenvalues --   -0.03679   0.03151   0.07952   0.07952   0.09878
  Beta virt. eigenvalues --    0.09878   0.10752   0.13874   0.13875   0.15391
  Beta virt. eigenvalues --    0.16784   0.20511   0.20513   0.25439   0.25440
  Beta virt. eigenvalues --    0.25464   0.33080   0.33081   0.36136   0.36137
  Beta virt. eigenvalues --    0.36876   0.38498   0.41336   0.45492   0.45492
  Beta virt. eigenvalues --    0.46371   0.46581   0.46582   0.47531   0.47571
  Beta virt. eigenvalues --    0.49439   0.49440   0.52864   0.53855   0.53856
  Beta virt. eigenvalues --    0.61958   0.61965   0.66039   0.75817   0.75826
  Beta virt. eigenvalues --    0.78080   0.78220   0.78233   0.82263   0.87825
  Beta virt. eigenvalues --    0.87826   0.92889   0.92891   0.95067   0.97777
  Beta virt. eigenvalues --    0.98446   0.98448   1.03262   1.03266   1.03767
  Beta virt. eigenvalues --    1.08174   1.16239   1.16241   1.17126   1.17126
  Beta virt. eigenvalues --    1.17278   1.21143   1.21144   1.22004   1.25303
  Beta virt. eigenvalues --    1.25311   1.26376   1.26913   1.31574   1.31576
  Beta virt. eigenvalues --    1.33738   1.34431   1.34433   1.38654   1.38656
  Beta virt. eigenvalues --    1.44925   1.48487   1.49640   1.50065   1.50065
  Beta virt. eigenvalues --    1.56154   1.58372   1.58375   1.71281   1.71288
  Beta virt. eigenvalues --    2.14749   2.18224   2.18228   2.23505   2.26299
  Beta virt. eigenvalues --    2.26306   2.32193   2.32198   2.36086   2.38605
  Beta virt. eigenvalues --    2.50541   2.52880   2.52882   2.58393   2.61543
  Beta virt. eigenvalues --    2.61544   2.62498   2.64755   2.64756   2.76088
  Beta virt. eigenvalues --    2.76089   2.80864   2.81674   2.81678   2.82393
  Beta virt. eigenvalues --    2.87090   2.87092   2.89920   2.89923   2.90281
  Beta virt. eigenvalues --    2.95125   2.95128   2.96136   2.96280   3.00353
  Beta virt. eigenvalues --    3.00354   3.05179   3.05722   3.05726   3.08166
  Beta virt. eigenvalues --    3.08392   3.09483   3.09486   3.13547   3.20774
  Beta virt. eigenvalues --    3.20791   3.29150   3.32879   3.32885   3.34213
  Beta virt. eigenvalues --    3.34214   3.35006   3.40760   3.40766   3.41925
  Beta virt. eigenvalues --    3.42716   3.42716   3.47341   3.47342   3.49175
  Beta virt. eigenvalues --    3.50238   3.52318   3.52321   3.60310   3.60311
  Beta virt. eigenvalues --    3.60490   3.67869   3.72808   3.72810   3.73788
  Beta virt. eigenvalues --    3.76120   3.76125   3.81245   3.81247   3.81944
  Beta virt. eigenvalues --    3.87231   3.87235   3.92332   3.92954   3.93064
  Beta virt. eigenvalues --    3.93072   3.96685   3.96690   4.02131   4.09188
  Beta virt. eigenvalues --    4.12561   4.12564   4.14578   4.14582   4.17409
  Beta virt. eigenvalues --    4.20125   4.20962   4.20970   4.24330   4.24331
  Beta virt. eigenvalues --    4.26726   4.32984   4.37684   4.37689   4.39046
  Beta virt. eigenvalues --    4.43294   4.43296   4.44461   4.47075   4.47086
  Beta virt. eigenvalues --    4.70243   4.79234   4.79869   4.79869   4.82771
  Beta virt. eigenvalues --    4.82777   4.96844   4.96845   4.99084   5.01424
  Beta virt. eigenvalues --    5.01426   5.05687   5.13511   5.13516   5.14863
  Beta virt. eigenvalues --    5.17697   5.17704   5.21158   5.23144   5.26663
  Beta virt. eigenvalues --    5.28800   5.28804   5.30453   5.36672   5.36676
  Beta virt. eigenvalues --    5.42730   5.42734   5.45518   5.58225   5.58236
  Beta virt. eigenvalues --    5.86477   5.86479   5.88515   5.88722   5.88723
  Beta virt. eigenvalues --    5.95773   9.10444  13.27070  13.70754  13.70766
          Condensed to atoms (all electrons):
               1          2          3          4          5          6
     1  C    4.834897   0.375714  -0.058111  -0.058111   0.405574   0.405579
     2  C    0.375714   5.261145   0.375720   0.375713  -0.043623  -0.043609
     3  C   -0.058111   0.375720   4.834911  -0.058118   0.006668  -0.005031
     4  C   -0.058111   0.375713  -0.058118   4.834916  -0.005024   0.006669
     5  H    0.405574  -0.043623   0.006668  -0.005024   0.607341  -0.024559
     6  H    0.405579  -0.043609  -0.005031   0.006669  -0.024559   0.607312
     7  H    0.375140  -0.056431  -0.000765  -0.000774  -0.042453  -0.042440
     8  H    0.006668  -0.043610   0.405576  -0.005033  -0.000324   0.000390
     9  H   -0.000767  -0.056433   0.375145  -0.000767  -0.000904  -0.002012
    10  H   -0.005029  -0.043610   0.405570   0.006669   0.000390   0.005673
    11  H   -0.005023  -0.043620   0.006668   0.405571   0.005674   0.000390
    12  H   -0.000773  -0.056430  -0.000765   0.375140  -0.002015  -0.000903
    13  H    0.006669  -0.043610  -0.005032   0.405578   0.000390  -0.000324
               7          8          9         10         11         12
     1  C    0.375140   0.006668  -0.000767  -0.005029  -0.005023  -0.000773
     2  C   -0.056431  -0.043610  -0.056433  -0.043610  -0.043620  -0.056430
     3  C   -0.000765   0.405576   0.375145   0.405570   0.006668  -0.000765
     4  C   -0.000774  -0.005033  -0.000767   0.006669   0.405571   0.375140
     5  H   -0.042453  -0.000324  -0.000904   0.000390   0.005674  -0.002015
     6  H   -0.042440   0.000390  -0.002012   0.005673   0.000390  -0.000903
     7  H    0.674720  -0.000904   0.008175  -0.002012  -0.002014   0.008183
     8  H   -0.000904   0.607330  -0.042450  -0.024561   0.000391  -0.002012
     9  H    0.008175  -0.042450   0.674725  -0.042447  -0.000904   0.008175
    10  H   -0.002012  -0.024561  -0.042447   0.607333  -0.000324  -0.000904
    11  H   -0.002014   0.000391  -0.000904  -0.000324   0.607342  -0.042454
    12  H    0.008183  -0.002012   0.008175  -0.000904  -0.042454   0.674720
    13  H   -0.000903   0.005674  -0.002013   0.000390  -0.024561  -0.042440
              13
     1  C    0.006669
     2  C   -0.043610
     3  C   -0.005032
     4  C    0.405578
     5  H    0.000390
     6  H   -0.000324
     7  H   -0.000903
     8  H    0.005674
     9  H   -0.002013
    10  H    0.000390
    11  H   -0.024561
    12  H   -0.042440
    13  H    0.607326
          Atomic-Atomic Spin Densities.
               1          2          3          4          5          6
     1  C   -0.057842  -0.006450   0.003996   0.003998   0.007078   0.007067
     2  C   -0.006450   1.088047  -0.006449  -0.006449  -0.011019  -0.011000
     3  C    0.003996  -0.006449  -0.057849   0.003996   0.000253   0.001629
     4  C    0.003998  -0.006449   0.003996  -0.057842   0.001632   0.000253
     5  H    0.007078  -0.011019   0.000253   0.001632   0.023401   0.006420
     6  H    0.007067  -0.011000   0.001629   0.000253   0.006420   0.023356
     7  H   -0.004848  -0.040880  -0.001930  -0.001934  -0.018112  -0.018094
     8  H    0.000253  -0.011007   0.007072   0.001630   0.000214   0.000548
     9  H   -0.001931  -0.040881  -0.004845  -0.001931  -0.000898  -0.002847
    10  H    0.001630  -0.011006   0.007071   0.000253   0.000548   0.002983
    11  H    0.001632  -0.011022   0.000253   0.007080   0.002988   0.000548
    12  H   -0.001933  -0.040878  -0.001930  -0.004850  -0.002850  -0.000897
    13  H    0.000253  -0.010996   0.001630   0.007064   0.000548   0.000213
               7          8          9         10         11         12
     1  C   -0.004848   0.000253  -0.001931   0.001630   0.001632  -0.001933
     2  C   -0.040880  -0.011007  -0.040881  -0.011006  -0.011022  -0.040878
     3  C   -0.001930   0.007072  -0.004845   0.007071   0.000253  -0.001930
     4  C   -0.001934   0.001630  -0.001931   0.000253   0.007080  -0.004850
     5  H   -0.018112   0.000214  -0.000898   0.000548   0.002988  -0.002850
     6  H   -0.018094   0.000548  -0.002847   0.002983   0.000548  -0.000897
     7  H    0.140039  -0.000897   0.009980  -0.002847  -0.002850   0.009989
     8  H   -0.000897   0.023377  -0.018102   0.006419   0.000548  -0.002847
     9  H    0.009980  -0.018102   0.140038  -0.018101  -0.000898   0.009980
    10  H   -0.002847   0.006419  -0.018101   0.023375   0.000214  -0.000897
    11  H   -0.002850   0.000548  -0.000898   0.000214   0.023407  -0.018113
    12  H    0.009989  -0.002847   0.009980  -0.000897  -0.018113   0.140031
    13  H   -0.000897   0.002984  -0.002848   0.000548   0.006420  -0.018090
              13
     1  C    0.000253
     2  C   -0.010996
     3  C    0.001630
     4  C    0.007064
     5  H    0.000548
     6  H    0.000213
     7  H   -0.000897
     8  H    0.002984
     9  H   -0.002848
    10  H    0.000548
    11  H    0.006420
    12  H   -0.018090
    13  H    0.023346
 Mulliken charges and spin densities:
               1          2
     1  C   -0.282427  -0.047098
     2  C    0.042682   0.880009
     3  C   -0.282436  -0.047103
     4  C   -0.282429  -0.047099
     5  H    0.092864   0.010202
     6  H    0.092866   0.010179
     7  H    0.082478   0.066719
     8  H    0.092864   0.010191
     9  H    0.082476   0.066717
    10  H    0.092861   0.010189
    11  H    0.092865   0.010206
    12  H    0.082477   0.066714
    13  H    0.092858   0.010174
 Sum of Mulliken charges =  -0.00000   1.00000
 Mulliken charges and spin densities with hydrogens summed into heavy atoms:
               1          2
     1  C   -0.014219   0.040002
     2  C    0.042682   0.880009
     3  C   -0.014234   0.039994
     4  C   -0.014230   0.039994
 APT charges:
               1
     1  C   -0.999031
     2  C    0.130607
     3  C   -0.999068
     4  C   -0.999032
     5  H    0.338099
     6  H    0.338104
     7  H    0.279293
     8  H    0.338103
     9  H    0.279322
    10  H    0.338108
    11  H    0.338107
    12  H    0.279302
    13  H    0.338086
 Sum of APT charges =  -0.00000
 APT charges with hydrogens summed into heavy atoms:
               1
     1  C   -0.043535
     2  C    0.130607
     3  C   -0.043535
     4  C   -0.043537
 Electronic spatial extent (au):  <R**2>=            351.9807
 Charge=             -0.0000 electrons
 Dipole moment (field-independent basis, Debye):
    X=              0.0000    Y=             -0.0000    Z=              0.1753  Tot=              0.1753
 Quadrupole moment (field-independent basis, Debye-Ang):
   XX=            -27.7936   YY=            -27.7937   ZZ=            -28.4736
   XY=             -0.0001   XZ=             -0.0001   YZ=             -0.0000
 Traceless Quadrupole moment (field-independent basis, Debye-Ang):
   XX=              0.2267   YY=              0.2266   ZZ=             -0.4533
   XY=             -0.0001   XZ=             -0.0001   YZ=             -0.0000
 Octapole moment (field-independent basis, Debye-Ang**2):
  XXX=             -0.3291  YYY=             -1.4994  ZZZ=              1.5841  XYY=              0.3279
  XXY=              1.4985  XXZ=             -1.3036  XZZ=              0.0007  YZZ=              0.0004
  YYZ=             -1.3036  XYZ=             -0.0002
 Hexadecapole moment (field-independent basis, Debye-Ang**3):
 XXXX=           -225.5859 YYYY=           -225.5741 ZZZZ=            -54.9059 XXXY=             -0.0019
 XXXZ=              0.3228 YYYX=             -0.0007 YYYZ=              1.4780 ZZZX=             -0.0001
 ZZZY=             -0.0000 XXYY=            -75.1938 XXZZ=            -46.3830 YYZZ=            -46.3823
 XXYZ=             -1.4785 YYXZ=             -0.3239 ZZXY=              0.0016
 N-N= 1.254964883276D+02 E-N=-6.155965920895D+02  KE= 1.566823777810D+02
  Exact polarizability:       0.000       0.000       0.000       0.000       0.000       0.000
 Approx polarizability:      69.689       0.002      69.688       0.000       0.000      63.059
                          Isotropic Fermi Contact Couplings
        Atom                 a.u.       MegaHertz       Gauss      10(-4) cm-1
     1  C(13)             -0.02253     -25.33286      -9.03939      -8.45013
     2  C(13)              0.07232      81.30236      29.01070      27.11955
     3  C(13)             -0.02254     -25.33424      -9.03989      -8.45059
     4  C(13)             -0.02253     -25.33311      -9.03948      -8.45022
     5  H(1)               0.00629      28.12890      10.03709       9.38279
     6  H(1)               0.00628      28.07368      10.01739       9.36437
     7  H(1)               0.02773     123.93914      44.22457      41.34165
     8  H(1)               0.00629      28.10318      10.02791       9.37421
     9  H(1)               0.02773     123.94370      44.22620      41.34317
    10  H(1)               0.00629      28.09996      10.02676       9.37314
    11  H(1)               0.00630      28.14031      10.04116       9.38660
    12  H(1)               0.02773     123.92894      44.22093      41.33824
    13  H(1)               0.00628      28.05787      10.01174       9.35910
 --------------------------------------------------------
       Center         ----  Spin Dipole Couplings  ----
                      3XX-RR        3YY-RR        3ZZ-RR
 --------------------------------------------------------
     1   Atom        0.014005     -0.006536     -0.007469
     2   Atom       -0.562284     -0.562282      1.124566
     3   Atom        0.009888     -0.002422     -0.007467
     4   Atom       -0.012689      0.020157     -0.007469
     5   Atom        0.016945     -0.008930     -0.008014
     6   Atom        0.002149      0.005864     -0.008012
     7   Atom        0.005769     -0.004937     -0.000832
     8   Atom        0.016073     -0.008059     -0.008013
     9   Atom        0.003624     -0.002792     -0.000832
    10   Atom       -0.001417      0.009430     -0.008013
    11   Atom       -0.006204      0.014218     -0.008015
    12   Atom       -0.008143      0.008975     -0.000832
    13   Atom       -0.003505      0.011517     -0.008012
 --------------------------------------------------------
                        XY            XZ            YZ
 --------------------------------------------------------
     1   Atom       -0.013036      0.007363     -0.003576
     2   Atom        0.000000      0.000014      0.000006
     3   Atom        0.015410     -0.006777     -0.004591
     4   Atom       -0.002377     -0.000592      0.008163
     5   Atom       -0.001207     -0.001071      0.000858
     6   Atom       -0.012860     -0.001332      0.000306
     7   Atom       -0.006792      0.007794     -0.003779
     8   Atom        0.004822      0.000934      0.001001
     9   Atom        0.008031     -0.007171     -0.004857
    10   Atom        0.011807      0.001276      0.000496
    11   Atom        0.008035      0.000399     -0.001314
    12   Atom       -0.001236     -0.000618      0.008640
    13   Atom       -0.010603     -0.000210     -0.001350
 --------------------------------------------------------


 ---------------------------------------------------------------------------------
              Anisotropic Spin Dipole Couplings in Principal Axis System
 ---------------------------------------------------------------------------------

       Atom             a.u.   MegaHertz   Gauss  10(-4) cm-1        Axes

              Baa    -0.0129    -1.726    -0.616    -0.576  0.4364  0.8998  0.0008
     1 C(13)  Bbb    -0.0097    -1.302    -0.464    -0.434 -0.2369  0.1141  0.9648
              Bcc     0.0226     3.027     1.080     1.010  0.8680 -0.4212  0.2630
 
              Baa    -0.5623   -75.453   -26.924   -25.168  0.9964 -0.0847 -0.0000
     2 C(13)  Bbb    -0.5623   -75.453   -26.923   -25.168  0.0847  0.9964 -0.0000
              Bcc     1.1246   150.906    53.847    50.337  0.0000  0.0000  1.0000
 
              Baa    -0.0129    -1.726    -0.616    -0.576 -0.5608  0.8279 -0.0000
     3 C(13)  Bbb    -0.0097    -1.301    -0.464    -0.434  0.2178  0.1475  0.9648
              Bcc     0.0226     3.027     1.080     1.010  0.7988  0.5411 -0.2630
 
              Baa    -0.0129    -1.726    -0.616    -0.576  0.9974  0.0715  0.0014
     4 C(13)  Bbb    -0.0097    -1.302    -0.464    -0.434  0.0174 -0.2624  0.9648
              Bcc     0.0226     3.027     1.080     1.010 -0.0693  0.9623  0.2630
 
              Baa    -0.0095    -5.044    -1.800    -1.683  0.0192  0.8652 -0.5011
     5 H(1)   Bbb    -0.0076    -4.053    -1.446    -1.352  0.0623  0.4992  0.8642
              Bcc     0.0171     9.097     3.246     3.034  0.9979 -0.0478 -0.0443
 
              Baa    -0.0095    -5.044    -1.800    -1.683  0.6680  0.5508  0.5003
     6 H(1)   Bbb    -0.0076    -4.052    -1.446    -1.352 -0.3532 -0.3572  0.8647
              Bcc     0.0170     9.096     3.246     3.034 -0.6550  0.7543  0.0440
 
              Baa    -0.0082    -4.392    -1.567    -1.465  0.4368  0.8996 -0.0007
     7 H(1)   Bbb    -0.0059    -3.126    -1.116    -1.043 -0.4513  0.2198  0.8649
              Bcc     0.0141     7.519     2.683     2.508  0.7782 -0.3774  0.5020
 
              Baa    -0.0095    -5.044    -1.800    -1.683 -0.1429  0.8537 -0.5008
     8 H(1)   Bbb    -0.0076    -4.052    -1.446    -1.352 -0.1329  0.4848  0.8645
              Bcc     0.0170     9.097     3.246     3.034  0.9808  0.1901  0.0442
 
              Baa    -0.0082    -4.392    -1.567    -1.465 -0.5609  0.8279 -0.0001
     9 H(1)   Bbb    -0.0059    -3.126    -1.115    -1.043  0.4156  0.2816  0.8649
              Bcc     0.0141     7.518     2.683     2.508  0.7161  0.4850 -0.5020
 
              Baa    -0.0095    -5.044    -1.800    -1.683  0.7398 -0.4494 -0.5007
    10 H(1)   Bbb    -0.0076    -4.052    -1.446    -1.352  0.4009 -0.3032  0.8645
              Bcc     0.0170     9.096     3.246     3.034  0.5403  0.8403  0.0441
 
              Baa    -0.0095    -5.044    -1.800    -1.683  0.8105 -0.3029 -0.5013
    11 H(1)   Bbb    -0.0076    -4.053    -1.446    -1.352  0.4869 -0.1273  0.8641
              Bcc     0.0170     9.097     3.246     3.034  0.3256  0.9445 -0.0443
 
              Baa    -0.0082    -4.392    -1.567    -1.465  0.9974  0.0722 -0.0010
    12 H(1)   Bbb    -0.0059    -3.126    -1.116    -1.043  0.0371 -0.5006  0.8649
              Bcc     0.0141     7.518     2.683     2.508 -0.0619  0.8627  0.5020
 
              Baa    -0.0095    -5.044    -1.800    -1.683  0.7594  0.4161  0.5002
    13 H(1)   Bbb    -0.0076    -4.052    -1.446    -1.352 -0.4625 -0.1955  0.8648
              Bcc     0.0170     9.096     3.246     3.034 -0.4577  0.8880 -0.0440
 

 ---------------------------------------------------------------------------------

 No NMR shielding tensors so no spin-rotation constants.
 Leave Link  601 at Tue Apr 12 15:17:42 2022, MaxMem=  1073741824 cpu:               2.1 elap:               0.3
 (Enter /home/saurabh/gaussian/g16/l701.exe)
 ... and contract with generalized density number  0.
 Compute integral second derivatives.
 Leave Link  701 at Tue Apr 12 15:17:42 2022, MaxMem=  1073741824 cpu:               1.5 elap:               0.2
 (Enter /home/saurabh/gaussian/g16/l702.exe)
 L702 exits ... SP integral derivatives will be done elsewhere.
 Leave Link  702 at Tue Apr 12 15:17:42 2022, MaxMem=  1073741824 cpu:               0.1 elap:               0.0
 (Enter /home/saurabh/gaussian/g16/l703.exe)
 Integral derivatives from FoFJK, PRISM(SPDF).
 Compute integral second derivatives, UseDBF=F ICtDFT=           0.
 Calling FoFJK, ICntrl=    100127 FMM=F ISym2X=0 I1Cent= 0 IOpClX= 1 NMat=1 NMatS=1 NMatT=0.
 FoFJK:  IHMeth= 1 ICntrl=  100127 DoSepK=F KAlg= 0 I1Cent=           0 FoldK=F
 IRaf=         0 NMat=       1 IRICut=       1 DoRegI=T DoRafI=F ISym2E= 0 IDoP0=0 IntGTp=1.
 FoFCou: FMM=F IPFlag=           0 FMFlag=      100000 FMFlg1=         800
         NFxFlg=           0 DoJE=F BraDBF=F KetDBF=F FulRan=T
         wScrn=  0.000000 ICntrl=    100127 IOpCl=  1 I1Cent=           0 NGrid=           0
         NMat0=    1 NMatS0=      1 NMatT0=    0 NMatD0=    1 NMtDS0=    0 NMtDT0=    0
 Symmetry not used in FoFCou.
 Leave Link  703 at Tue Apr 12 15:19:11 2022, MaxMem=  1073741824 cpu:             712.5 elap:              89.1
 (Enter /home/saurabh/gaussian/g16/l716.exe)
 Dipole        = 2.72977467D-06-4.37645496D-06 6.89741532D-02
 Polarizability= 0.00000000D+00 0.00000000D+00 0.00000000D+00
                 0.00000000D+00 0.00000000D+00 0.00000000D+00
 ***** Axes restored to original set *****
 -------------------------------------------------------------------
 Center     Atomic                   Forces (Hartrees/Bohr)
 Number     Number              X              Y              Z
 -------------------------------------------------------------------
      1        6          -0.000046456    0.000016324   -0.000038864
      2        6           0.000023443    0.000000696    0.000113604
      3        6           0.000034119    0.000031150   -0.000042302
      4        6           0.000002067   -0.000049068   -0.000043119
      5        1           0.000002350    0.000004952    0.000006521
      6        1          -0.000006758   -0.000003547    0.000005166
      7        1           0.000002121    0.000000298   -0.000006059
      8        1          -0.000002919    0.000002756    0.000002768
      9        1          -0.000007719   -0.000002722   -0.000005780
     10        1           0.000004523   -0.000005448    0.000005800
     11        1           0.000003484   -0.000001222    0.000005597
     12        1          -0.000001797    0.000006856   -0.000006583
     13        1          -0.000006457   -0.000001026    0.000003253
 -------------------------------------------------------------------
 Cartesian Forces:  Max     0.000113604 RMS     0.000025911
 Force constants in Cartesian coordinates: 
                1             2             3             4             5 
      1  0.490099D+00
      2  0.378779D-01  0.550020D+00
      3  0.267384D-01 -0.129351D-01  0.473802D+00
      4 -0.186049D+00  0.485311D-01  0.118781D-01  0.515235D+00
      5  0.485155D-01 -0.109290D+00 -0.574950D-02 -0.361792D-04  0.515169D+00
      6  0.844087D-02 -0.409021D-02 -0.544058D-01 -0.505569D-05 -0.129731D-04
      7 -0.271397D-01 -0.151349D-01 -0.726799D-02 -0.170479D+00 -0.574689D-01
      8  0.976314D-02  0.951152D-02  0.300809D-02 -0.574778D-01 -0.124826D+00
      9  0.675228D-02  0.402738D-02  0.582747D-02 -0.109214D-01 -0.740621D-02
     10 -0.197959D-02  0.296629D-01 -0.686555D-02 -0.864890D-01  0.898153D-02
     11  0.476739D-02 -0.156533D-01  0.383408D-02  0.896662D-02 -0.208863D+00
     12  0.102810D-02 -0.778945D-02  0.581324D-02 -0.950479D-03  0.131575D-01
     13 -0.176816D+00 -0.101348D+00 -0.784870D-01 -0.241166D-01 -0.169664D-01
     14 -0.101245D+00 -0.128250D+00 -0.574721D-01  0.907852D-02  0.857910D-02
     15 -0.792788D-01 -0.575620D-01 -0.875906D-01  0.508560D-02  0.280477D-02
     16 -0.483412D-01  0.303845D-03 -0.359116D-02 -0.179008D-03  0.280345D-01
     17  0.215355D-03 -0.256794D+00  0.971228D-01  0.197774D-02 -0.153779D-01
     18 -0.402177D-02  0.978030D-01 -0.874863D-01  0.947639D-03 -0.572959D-02
     19 -0.522873D-01  0.452502D-02  0.539026D-01 -0.139180D-01  0.680529D-02
     20  0.452511D-02 -0.450801D-01 -0.260165D-01  0.681993D-02 -0.313945D-02
     21  0.416932D-01 -0.201073D-01 -0.256550D+00  0.990383D-02 -0.479228D-02
     22 -0.259445D-02 -0.432150D-02 -0.163007D-03 -0.245608D-01  0.121083D-01
     23 -0.224081D-02 -0.188821D-02 -0.726568D-03 -0.139376D-01  0.902040D-02
     24 -0.133670D-02 -0.124581D-03  0.275026D-03 -0.543814D-02  0.204100D-02
     25  0.158703D-02 -0.269142D-03  0.116219D-02 -0.117245D-01 -0.806995D-02
     26  0.883184D-03 -0.218531D-03  0.478361D-04 -0.806774D-02 -0.531111D-02
     27  0.280827D-03 -0.511355D-03  0.238725D-03 -0.909520D-02 -0.617518D-02
     28  0.154292D-02 -0.106578D-02  0.707120D-03  0.380669D-02 -0.252123D-01
     29  0.145675D-02  0.591055D-03 -0.501498D-03  0.833243D-03 -0.193574D-01
     30 -0.845267D-04  0.310156D-05 -0.221109D-03 -0.107411D-03 -0.580377D-02
     31  0.765796D-03  0.850433D-03  0.831810D-03  0.142440D-02 -0.106487D-02
     32 -0.168074D-02  0.136731D-02 -0.245644D-03 -0.271052D-01 -0.169586D-01
     33 -0.555415D-04  0.651356D-04 -0.221913D-03  0.448109D-02  0.369285D-02
     34  0.178492D-03 -0.239237D-03  0.686285D-03  0.587985D-04  0.127158D-02
     35 -0.138560D-02  0.120129D-02 -0.945333D-03  0.125559D-02 -0.171210D-01
     36  0.574705D-03  0.957712D-04  0.242094D-03 -0.806341D-03  0.109706D-01
     37  0.103382D-02  0.627746D-03  0.468174D-03 -0.300956D-02  0.310187D-02
     38 -0.145218D-02 -0.551698D-02  0.579370D-03  0.291618D-01 -0.125240D-01
     39 -0.731000D-03  0.112555D-02  0.276894D-03 -0.497215D-02  0.300278D-02
                6             7             8             9            10 
      6  0.152733D+00
      7 -0.775506D-02  0.502227D+00
      8 -0.525885D-02 -0.448899D-01  0.537901D+00
      9 -0.544165D-01 -0.245653D-01 -0.166829D-01  0.473795D+00
     10 -0.675307D-03  0.267420D-02 -0.269659D-01  0.623145D-02  0.567894D+00
     11  0.935722D-02 -0.208103D-02 -0.203041D-01  0.478550D-02  0.700171D-02
     12 -0.544143D-01  0.114291D-03 -0.786144D-02  0.582788D-02 -0.215746D-02
     13 -0.860122D-02 -0.352113D-02  0.408229D-02  0.266044D-03  0.100154D-02
     14  0.664860D-02  0.200060D-02 -0.961135D-03 -0.694993D-03  0.755969D-03
     15  0.190452D-02  0.134138D-02  0.703193D-04  0.273666D-03  0.402033D-04
     16 -0.105493D-01  0.158112D-02  0.120743D-02 -0.630028D-03 -0.490764D-02
     17  0.262696D-02 -0.131420D-02  0.556380D-03 -0.596602D-03  0.298751D-02
     18  0.190059D-02  0.860298D-04  0.140930D-04 -0.222811D-03  0.776795D-03
     19  0.291407D-01  0.163727D-02  0.540539D-03 -0.115312D-02  0.500939D-03
     20 -0.141009D-01 -0.610796D-03 -0.269048D-03 -0.120020D-03 -0.362008D-03
     21 -0.308338D-03 -0.203357D-03 -0.546869D-03  0.236680D-03  0.301143D-03
     22  0.754698D-02 -0.204884D+00  0.901450D-01  0.859512D-01  0.857038D-03
     23  0.782589D-02  0.900441D-01 -0.100216D+00 -0.454696D-01 -0.798082D-03
     24  0.190549D-02  0.867488D-01 -0.454434D-01 -0.875339D-01 -0.288301D-04
     25 -0.267847D-01 -0.508241D-01 -0.538344D-02 -0.495335D-01  0.238135D-03
     26 -0.181820D-01 -0.538568D-02 -0.465511D-01 -0.336176D-01  0.267598D-03
     27 -0.303226D-03 -0.383133D-01 -0.259977D-01 -0.256541D+00 -0.370951D-03
     28  0.100552D-01 -0.526736D-01  0.295896D-01 -0.105271D-01 -0.423555D-02
     29  0.412182D-02  0.296849D-01 -0.252455D+00  0.966608D-01 -0.366923D-02
     30  0.190473D-02 -0.102065D-01  0.973926D-01 -0.875352D-01 -0.608917D-03
     31  0.300557D-02  0.776154D-03  0.293672D-03 -0.547473D-03 -0.204324D+00
     32 -0.104519D-01  0.237490D-02 -0.525936D-02  0.503645D-03 -0.904102D-01
     33  0.190405D-02  0.560339D-03  0.122067D-02  0.273146D-03 -0.827738D-01
     34 -0.236180D-02 -0.327706D-04  0.522832D-04 -0.537411D-03 -0.429529D-01
     35  0.322819D-01  0.120500D-02  0.139965D-02 -0.102714D-02  0.812868D-03
     36 -0.305862D-03 -0.583415D-03  0.112332D-04  0.237418D-03 -0.326939D-02
     37 -0.145685D-02  0.659318D-03 -0.956985D-03 -0.785583D-03 -0.228277D+00
     38 -0.107655D-01  0.157599D-02  0.147376D-02 -0.362326D-03  0.717353D-01
     39  0.190155D-02  0.440015D-04  0.741270D-04 -0.221483D-03  0.894006D-01
               11            12            13            14            15 
     11  0.472327D+00
     12  0.296135D-01  0.473823D+00
     13 -0.177165D-02  0.783365D-04  0.197571D+00
     14  0.113238D-02  0.862296D-03  0.111244D+00  0.135249D+00
     15 -0.747205D-04 -0.221603D-03  0.837161D-01  0.662286D-01  0.941354D-01
     16  0.906973D-03  0.710109D-03  0.614679D-03 -0.197234D-01  0.112544D-01
     17  0.424473D-03  0.221967D-03  0.530197D-03 -0.145577D-01  0.705971D-02
     18 -0.109454D-02  0.276350D-03  0.144046D-02 -0.132201D-01  0.604150D-02
     19 -0.151346D-02 -0.621149D-03  0.520373D-02 -0.234475D-02 -0.225623D-01
     20  0.874038D-03  0.978278D-03  0.359850D-02 -0.228937D-02 -0.186640D-01
     21  0.498945D-03  0.241180D-03  0.187278D-02 -0.157890D-02 -0.149444D-01
     22  0.173469D-02 -0.202732D-03 -0.122611D-02  0.439825D-03  0.309982D-03
     23  0.127572D-02  0.842836D-03 -0.702459D-03  0.563999D-03 -0.852599D-04
     24 -0.819957D-04 -0.223595D-03 -0.294104D-03 -0.129532D-03  0.244011D-03
     25  0.141817D-02  0.474235D-03 -0.181197D-03 -0.952172D-04  0.355431D-03
     26  0.112839D-02  0.106261D-02 -0.161502D-03 -0.281316D-04  0.563796D-04
     27  0.449183D-03  0.239416D-03 -0.404710D-03 -0.998559D-04  0.651306D-04
     28 -0.158983D-02 -0.735882D-03  0.341894D-03  0.733260D-04 -0.857857D-04
     29 -0.248196D-03  0.116357D-03  0.184076D-03  0.390571D-03 -0.293936D-03
     30 -0.119663D-02  0.275622D-03  0.698210D-04 -0.230198D-03  0.414801D-04
     31 -0.903054D-01 -0.824001D-01  0.496584D-03 -0.207830D-03 -0.143119D-03
     32 -0.100719D+00 -0.517541D-01  0.125602D-02  0.801744D-04  0.224406D-03
     33 -0.524554D-01 -0.876100D-01  0.156215D-03 -0.216127D-03  0.207381D-03
     34  0.821484D-03 -0.426309D-02  0.141904D-03  0.123668D-04 -0.197283D-03
     35 -0.544334D-01  0.597218D-01  0.154319D-03 -0.152194D-03  0.601915D-04
     36  0.461821D-01 -0.256554D+00 -0.110702D-03 -0.170354D-03 -0.197968D-03
     37  0.716444D-01  0.889258D-01  0.489944D-03  0.116109D-04  0.164283D-03
     38 -0.769403D-01 -0.391721D-01 -0.990655D-04  0.242688D-03  0.175545D-03
     39 -0.398172D-01 -0.874725D-01  0.297980D-03  0.726761D-04  0.415542D-04
               16            17            18            19            20 
     16  0.509737D-01
     17 -0.466213D-02  0.281953D+00
     18 -0.174634D-04 -0.106661D+00  0.940164D-01
     19 -0.154114D-04 -0.528698D-03  0.646161D-03  0.605157D-01
     20 -0.648169D-02  0.291628D-02  0.292811D-01 -0.847031D-02  0.470675D-01
     21  0.240099D-02 -0.480951D-03 -0.149241D-01 -0.572959D-01  0.276486D-01
     22  0.379566D-03 -0.185529D-03 -0.354551D-04 -0.215052D-03  0.133931D-03
     23 -0.750901D-04  0.352811D-03 -0.237632D-03  0.678816D-04  0.564240D-05
     24  0.127278D-03 -0.278649D-03  0.413783D-04 -0.360223D-03  0.403466D-05
     25 -0.119881D-03 -0.516481D-04 -0.171611D-03 -0.960649D-03  0.355284D-03
     26 -0.195716D-03  0.109669D-03  0.117424D-03 -0.542729D-03  0.319484D-03
     27  0.639909D-04  0.192418D-03 -0.197725D-03 -0.833646D-03  0.322162D-03
     28 -0.272994D-03  0.642752D-03 -0.263736D-03 -0.149260D-03  0.158072D-03
     29 -0.803454D-03  0.843858D-03 -0.181415D-04  0.139480D-04  0.140612D-03
     30  0.260781D-03  0.151451D-04  0.203049D-03  0.151306D-03  0.140548D-03
     31  0.246574D-03  0.108161D-03  0.177259D-03 -0.547280D-04  0.907016D-04
     32 -0.180089D-05  0.485683D-03  0.250049D-03  0.232968D-03  0.433557D-04
     33  0.223886D-03  0.878937D-04  0.415689D-04 -0.166354D-04 -0.207495D-03
     34  0.377544D-04  0.110151D-04  0.176462D-03 -0.799721D-04  0.146493D-03
     35  0.774784D-04 -0.246174D-03 -0.314522D-03  0.105158D-02 -0.557546D-03
     36 -0.172560D-03  0.379022D-03  0.654552D-04 -0.770811D-03  0.454401D-03
     37  0.268544D-05  0.269478D-03  0.259233D-03 -0.177284D-03  0.967804D-04
     38  0.141306D-02 -0.665536D-03 -0.190196D-03  0.162719D-03 -0.313688D-04
     39 -0.809423D-04  0.311175D-03  0.244593D-03 -0.226896D-03  0.279900D-03
               21            22            23            24            25 
     21  0.286451D+00
     22  0.414955D-03  0.228207D+00
     23 -0.400785D-04 -0.976505D-01  0.104662D+00
     24  0.653091D-04 -0.923967D-01  0.533703D-01  0.940743D-01
     25  0.778484D-03  0.522300D-02  0.345308D-02  0.250328D-01  0.577845D-01
     26  0.439943D-03 -0.249460D-02 -0.231271D-02 -0.151969D-01  0.100573D-01
     27  0.329716D-04 -0.162052D-02 -0.183598D-02 -0.149379D-01  0.526448D-01
     28 -0.915592D-04 -0.245695D-02  0.214946D-01 -0.121643D-01 -0.958669D-03
     29  0.181210D-03  0.124031D-02 -0.114894D-01  0.535768D-02 -0.388211D-04
     30 -0.198157D-03  0.487451D-03 -0.132852D-01  0.604123D-02 -0.488318D-02
     31 -0.198676D-03  0.472223D-03  0.217053D-04 -0.188176D-03 -0.136990D-03
     32 -0.415990D-04  0.131970D-03  0.260421D-03  0.150064D-03 -0.179042D-03
     33 -0.199219D-03 -0.304617D-03  0.287464D-04  0.413064D-04  0.183550D-03
     34  0.135584D-03  0.160345D-03  0.355129D-04  0.186650D-03  0.793591D-04
     35 -0.880526D-03 -0.109009D-03 -0.168904D-03  0.896797D-04 -0.956471D-03
     36  0.320329D-04  0.134479D-03 -0.152272D-03 -0.197730D-03  0.695529D-03
     37  0.288576D-03  0.638510D-03  0.287729D-03  0.111620D-03 -0.601204D-05
     38 -0.300125D-03 -0.117291D-02 -0.650385D-04  0.242298D-03 -0.240108D-03
     39  0.653032D-04 -0.122030D-03 -0.235160D-03  0.205112D-03  0.461020D-04
               26            27            28            29            30 
     26  0.497947D-01
     27  0.357304D-01  0.286442D+00
     28  0.590888D-02 -0.230283D-02  0.545136D-01
     29  0.386624D-02 -0.827881D-03 -0.286528D-01  0.278398D+00
     30  0.288758D-01 -0.149372D-01  0.154916D-01 -0.105571D+00  0.940749D-01
     31 -0.112552D-03 -0.242145D-03  0.230143D-03 -0.138338D-03 -0.229038D-03
     32 -0.722904D-04 -0.339418D-03 -0.128090D-02 -0.891979D-03 -0.225576D-03
     33  0.309405D-03  0.651711D-04  0.352465D-04  0.319591D-03  0.244057D-03
     34 -0.603235D-04 -0.876506D-05  0.447538D-04  0.305614D-04 -0.129326D-03
     35 -0.720959D-03 -0.895359D-03 -0.353999D-04 -0.254200D-03 -0.336429D-03
     36  0.560380D-03  0.328103D-04  0.115932D-03  0.400334D-03  0.652826D-04
     37 -0.961223D-04  0.202457D-03  0.267067D-03 -0.141093D-03 -0.212101D-03
     38 -0.367704D-05 -0.114145D-04 -0.301922D-04  0.465921D-03  0.221366D-03
     39 -0.203605D-03 -0.198447D-03 -0.233982D-03  0.543470D-04  0.413196D-04
               31            32            33            34            35 
     31  0.220013D+00
     32  0.102317D+00  0.112781D+00
     33  0.924673D-01  0.533845D-01  0.941610D-01
     34 -0.834684D-03  0.599821D-02 -0.256687D-01  0.430917D-01
     35  0.555985D-04  0.375366D-02 -0.140836D-01 -0.154523D-02  0.645139D-01
     36 -0.774998D-03  0.232598D-02 -0.149474D-01  0.452720D-02 -0.634636D-01
     37 -0.190739D-01  0.834666D-02  0.107117D-01  0.107213D-03 -0.580720D-03
     38 -0.119083D-01  0.512973D-02  0.785381D-02 -0.653472D-02  0.278586D-02
     39 -0.117582D-01  0.621954D-02  0.604086D-02  0.274542D-01 -0.102070D-01
               36            37            38            39 
     36  0.286451D+00
     37  0.440373D-03  0.247346D+00
     38  0.240644D-02 -0.826113D-01  0.856489D-01
     39 -0.149226D-01 -0.991178D-01  0.393229D-01  0.939979D-01
 FormGI is forming the generalized inverse of G from B-inverse, IUseBI=4.
 Leave Link  716 at Tue Apr 12 15:19:11 2022, MaxMem=  1073741824 cpu:               0.2 elap:               0.0
 (Enter /home/saurabh/gaussian/g16/l103.exe)

 GradGradGradGradGradGradGradGradGradGradGradGradGradGradGradGradGradGrad
 Berny optimization.
 Red2BG is reusing G-inverse.
 Internal  Forces:  Max     0.000047622 RMS     0.000012614
 Search for a local minimum.
 Step number   1 out of a maximum of  100
 All quantities printed in internal units (Hartrees-Bohrs-Radians)
 RMS Force = .12614D-04 SwitMx=.10000D-02 MixMth= 2
 Mixed Optimization -- En-DIIS/RFO-DIIS
 Second derivative matrix not updated -- analytic derivatives used.
 ITU=  0
     Eigenvalues ---    0.00122   0.00123   0.00129   0.00627   0.05551
     Eigenvalues ---    0.05551   0.05623   0.05674   0.05810   0.05811
     Eigenvalues ---    0.11619   0.11620   0.12204   0.12912   0.12919
     Eigenvalues ---    0.13557   0.13560   0.13882   0.14035   0.18191
     Eigenvalues ---    0.18195   0.29352   0.29353   0.29739   0.31475
     Eigenvalues ---    0.31478   0.32492   0.32702   0.33049   0.33050
     Eigenvalues ---    0.33887   0.33888   0.34581
 RFO step:  Lambda=-2.98753909D-07 EMin= 1.22281154D-03
 Linear search not attempted -- first point.
 Iteration  1 RMS(Cart)=  0.00084185 RMS(Int)=  0.00000062
 Iteration  2 RMS(Cart)=  0.00000084 RMS(Int)=  0.00000037
 ITry= 1 IFail=0 DXMaxC= 2.89D-03 DCOld= 1.00D+10 DXMaxT= 3.00D-01 DXLimC= 3.00D+00 Rises=F
 Variable       Old X    -DE/DX   Delta X   Delta X   Delta X     New X
                                 (Linear)    (Quad)   (Total)
    R1        2.81830   0.00005   0.00000   0.00011   0.00011   2.81840
    R2        2.06407  -0.00001   0.00000  -0.00003  -0.00003   2.06404
    R3        2.06405  -0.00000   0.00000   0.00000   0.00000   2.06405
    R4        2.08397  -0.00001   0.00000  -0.00003  -0.00003   2.08395
    R5        2.81836   0.00003   0.00000   0.00005   0.00005   2.81841
    R6        2.81834   0.00004   0.00000   0.00008   0.00008   2.81842
    R7        2.06406  -0.00000   0.00000  -0.00001  -0.00001   2.06404
    R8        2.08398  -0.00001   0.00000  -0.00003  -0.00003   2.08395
    R9        2.06406  -0.00001   0.00000  -0.00001  -0.00001   2.06405
   R10        2.06406  -0.00000   0.00000  -0.00001  -0.00001   2.06405
   R11        2.08397  -0.00001   0.00000  -0.00003  -0.00003   2.08394
   R12        2.06405  -0.00001   0.00000  -0.00001  -0.00001   2.06404
    A1        1.95127   0.00000   0.00000  -0.00002  -0.00002   1.95125
    A2        1.95129   0.00001   0.00000   0.00001   0.00001   1.95130
    A3        1.95290  -0.00000   0.00000   0.00013   0.00013   1.95303
    A4        1.88933  -0.00000   0.00000   0.00000   0.00000   1.88933
    A5        1.85682  -0.00000   0.00000  -0.00003  -0.00003   1.85679
    A6        1.85684  -0.00000   0.00000  -0.00010  -0.00010   1.85675
    A7        2.07359   0.00000   0.00000   0.00031   0.00031   2.07390
    A8        2.07355  -0.00001   0.00000   0.00031   0.00031   2.07386
    A9        2.07348   0.00001   0.00000   0.00042   0.00041   2.07390
   A10        1.95128   0.00000   0.00000  -0.00002  -0.00002   1.95126
   A11        1.95296  -0.00001   0.00000   0.00007   0.00007   1.95303
   A12        1.95130   0.00001   0.00000  -0.00000  -0.00000   1.95129
   A13        1.85679   0.00000   0.00000  -0.00000  -0.00000   1.85679
   A14        1.88930  -0.00000   0.00000   0.00002   0.00002   1.88932
   A15        1.85682  -0.00000   0.00000  -0.00006  -0.00006   1.85676
   A16        1.95129   0.00001   0.00000  -0.00003  -0.00003   1.95126
   A17        1.95292  -0.00001   0.00000   0.00009   0.00009   1.95301
   A18        1.95128   0.00001   0.00000   0.00000   0.00000   1.95128
[...]
 ! R9    R(3,10)                 1.0922         -DE/DX =    0.0                 !
 ! R10   R(4,11)                 1.0922         -DE/DX =    0.0                 !
 ! R11   R(4,12)                 1.1028         -DE/DX =    0.0                 !
 ! R12   R(4,13)                 1.0922         -DE/DX =    0.0                 !
 ! A1    A(2,1,5)              111.7984         -DE/DX =    0.0                 !
 ! A2    A(2,1,6)              111.801          -DE/DX =    0.0                 !
 ! A3    A(2,1,7)              111.9007         -DE/DX =    0.0                 !
 ! A4    A(5,1,6)              108.2506         -DE/DX =    0.0                 !
 ! A5    A(5,1,7)              106.3864         -DE/DX =    0.0                 !
 ! A6    A(6,1,7)              106.3837         -DE/DX =    0.0                 !
 ! A7    A(1,2,3)              118.826          -DE/DX =    0.0                 !
 ! A8    A(1,2,4)              118.8234         -DE/DX =    0.0                 !
 ! A9    A(3,2,4)              118.8257         -DE/DX =    0.0                 !
 ! A10   A(2,3,8)              111.7987         -DE/DX =    0.0                 !
 ! A11   A(2,3,9)              111.9002         -DE/DX =    0.0                 !
 ! A12   A(2,3,10)             111.8009         -DE/DX =    0.0                 !
 ! A13   A(8,3,9)              106.3861         -DE/DX =    0.0                 !
 ! A14   A(8,3,10)             108.2503         -DE/DX =    0.0                 !
 ! A15   A(9,3,10)             106.3844         -DE/DX =    0.0                 !
 ! A16   A(2,4,11)             111.7992         -DE/DX =    0.0                 !
 ! A17   A(2,4,12)             111.8992         -DE/DX =    0.0                 !
 ! A18   A(2,4,13)             111.8            -DE/DX =    0.0                 !
 ! A19   A(11,4,12)            106.3845         -DE/DX =    0.0                 !
 ! A20   A(11,4,13)            108.2508         -DE/DX =    0.0                 !
 ! A21   A(12,4,13)            106.387          -DE/DX =    0.0                 !
 ! D1    D(5,1,2,3)            161.4998         -DE/DX =    0.0                 !
 ! D2    D(5,1,2,4)            -39.9073         -DE/DX =    0.0                 !
 ! D3    D(6,1,2,3)             39.9497         -DE/DX =    0.0                 !
 ! D4    D(6,1,2,4)           -161.4574         -DE/DX =    0.0                 !
 ! D5    D(7,1,2,3)            -79.2744         -DE/DX =    0.0                 !
 ! D6    D(7,1,2,4)             79.3185         -DE/DX =    0.0                 !
 ! D7    D(1,2,3,8)           -161.5055         -DE/DX =    0.0                 !
 ! D8    D(1,2,3,9)             79.2692         -DE/DX =    0.0                 !
 ! D9    D(1,2,3,10)           -39.9554         -DE/DX =    0.0                 !
 ! D10   D(4,2,3,8)             39.9021         -DE/DX =    0.0                 !
 ! D11   D(4,2,3,9)            -79.3232         -DE/DX =    0.0                 !
 ! D12   D(4,2,3,10)           161.4522         -DE/DX =    0.0                 !
 ! D13   D(1,2,4,11)            39.9384         -DE/DX =    0.0                 !
 ! D14   D(1,2,4,12)           -79.2846         -DE/DX =    0.0                 !
 ! D15   D(1,2,4,13)           161.4887         -DE/DX =    0.0                 !
 ! D16   D(3,2,4,11)          -161.4686         -DE/DX =    0.0                 !
 ! D17   D(3,2,4,12)            79.3084         -DE/DX =    0.0                 !
 ! D18   D(3,2,4,13)           -39.9183         -DE/DX =    0.0                 !
 --------------------------------------------------------------------------------
 GradGradGradGradGradGradGradGradGradGradGradGradGradGradGradGradGradGrad

 Leave Link  103 at Tue Apr 12 15:23:08 2022, MaxMem=  1073741824 cpu:               0.1 elap:               0.0
 (Enter /home/saurabh/gaussian/g16/l9999.exe)

 ----------------------------------------------------------------------

 Electric dipole moment (input orientation):
 (Debye = 10**-18 statcoulomb cm , SI units = C m)
                  (au)            (Debye)         (10**-30 SI)
   Tot        0.684479D-01      0.173977D+00      0.580325D+00
   x          0.000000D+00      0.000000D+00      0.000000D+00
   y         -0.109501D-04     -0.278323D-04     -0.928387D-04
   z          0.684479D-01      0.173977D+00      0.580325D+00

 Dipole polarizability, Alpha (input orientation).
 (esu units = cm**3 , SI units = C**2 m**2 J**-1)
 Alpha(0;0):
               (au)            (10**-24 esu)      (10**-40 SI)
   iso        0.511204D+02      0.757526D+01      0.842861D+01
   aniso      0.112846D+02      0.167221D+01      0.186058D+01
   xx         0.548805D+02      0.813246D+01      0.904858D+01
   yx         0.223272D-03      0.330855D-04      0.368125D-04
   yy         0.548833D+02      0.813286D+01      0.904903D+01
   zx         0.136841D-03      0.202778D-04      0.225621D-04
   zy         0.164377D-02      0.243582D-03      0.271021D-03
   zz         0.435973D+02      0.646046D+01      0.718823D+01

 ----------------------------------------------------------------------

 Dipole orientation:
     6         -2.52166453          1.22058303          0.02789233
     6          0.00004393         -0.00000122         -0.27961270
     6          2.31797101          1.57354807          0.02791417
     6          0.20376824         -2.79415861          0.02806906
     1         -4.02810476          0.09120459         -0.81792288
     1         -2.57097681          3.10214628         -0.81922241
     1         -3.02691018          1.46602259          2.03470930
     1          3.97238619          0.67461488         -0.81772175
     1          2.78213118          1.88983172          2.03474240
     1          2.09383566          3.44228630         -0.81936812
     1         -1.40130447         -3.77757357         -0.81865235
     1          0.24418417         -3.35423322          2.03493466
     1          1.93483568         -3.53428887         -0.81802978

 Electric dipole moment (dipole orientation):
 (Debye = 10**-18 statcoulomb cm , SI units = C m)
                  (au)            (Debye)         (10**-30 SI)
   Tot        0.684479D-01      0.173977D+00      0.580325D+00
   x          0.000000D+00      0.000000D+00      0.000000D+00
   y          0.000000D+00      0.000000D+00      0.000000D+00
   z          0.684479D-01      0.173977D+00      0.580325D+00

 Dipole polarizability, Alpha (dipole orientation).
 (esu units = cm**3 , SI units = C**2 m**2 J**-1)
 Alpha(0;0):
               (au)            (10**-24 esu)      (10**-40 SI)
   iso        0.511204D+02      0.757526D+01      0.842861D+01
   aniso      0.112846D+02      0.167221D+01      0.186058D+01
   xx         0.548805D+02      0.813246D+01      0.904858D+01
   yx         0.223290D-03      0.330882D-04      0.368156D-04
   yy         0.548833D+02      0.813286D+01      0.904903D+01
   zx        -0.843837D-04     -0.125044D-04     -0.139130D-04
   zy        -0.161730D-03     -0.239659D-04     -0.266657D-04
   zz         0.435973D+02      0.646046D+01      0.718823D+01

 ----------------------------------------------------------------------
 Unable to Open any file for archive entry.
 1\1\GINC-MEDIAWIKI\Freq\UB3LYP\CC-pVTZ\C4H9(2)\SAURABH\12-Apr-2022\0\\
 #P Geom=AllCheck Guess=TCheck SCRF=Check GenChk UB3LYP/CC-pVTZ Freq\\M
 ol_01\\0,2\C,-1.3344076926,0.6459023537,0.0148371584\C,0.000026147,0.0
 000230246,-0.1479646687\C,1.2266171425,0.8326834017,0.0149287986\C,0.1
 078292198,-1.4786074168,0.0146190798\H,-2.1315727591,0.0483326332,-0.4
 328602061\H,-1.3604938433,1.6416544519,-0.4332778794\H,-1.6017929942,0
 .7756134896,1.0768144861\H,2.1021047245,0.3570600401,-0.4326213891\H,1
 .4722193076,0.9998836103,1.0769281436\H,1.108018614,1.8216488047,-0.43
 3277801\H,-0.7415298972,-1.9989365145,-0.4335464957\H,0.1291955922,-1.
 7751560257,1.0765596122\H,1.0238794388,-1.8701958528,-0.4331618385\\Ve
 rsion=ES64L-G16RevC.01\State=2-A\HF=-157.8599392\S2=0.754174\S2-1=0.\S
 2A=0.750013\RMSD=1.297e-09\RMSF=2.189e-06\ZeroPoint=0.1159502\Thermal=
 0.1223269\ETot=-157.7376123\HTot=-157.7366681\GTot=-157.7734436\Dipole
 =-0.0000013,-0.000011,0.0684479\DipoleDeriv=0.0265454,0.0004134,-0.029
 9892,0.0004443,0.0272537,0.0145115,0.0244054,-0.0118185,0.2095729,0.18
 85592,0.0000018,0.0000089,0.0000087,0.188559,0.0000424,0.0000383,0.000
 0074,-0.2246434,0.0266833,-0.0004699,0.0275658,-0.0005275,0.0271233,0.
 0187028,-0.0224891,-0.0152429,0.2095672,0.0274643,0.0000615,0.0024036,
 0.0000813,0.0263637,-0.0332519,-0.001988,0.0270493,0.2095695,-0.089293
 7,-0.0611565,-0.0529434,-0.1037742,-0.0090547,-0.0624392,-0.0790869,-0
 .0484185,0.0243284,0.0402729,-0.001201,0.0161193,0.0414094,-0.1386049,
 0.0803142,-0.0111236,0.0921378,0.024252,-0.0220016,0.038691,0.0179351,
 0.0386999,0.0391662,-0.0087444,0.1166594,-0.0565228,-0.183261,-0.11129
 35,0.0461643,0.0614127,0.0887997,0.0129195,-0.0540808,0.0852617,-0.036
 4284,0.0243442,-0.0095926,-0.0458248,-0.0164447,-0.0458672,0.0267651,-
 0.0112819,-0.1071916,-0.0728709,-0.183273,0.0422789,0.027704,-0.027599
 2,-0.0149029,-0.1405973,0.0771357,-0.0023498,0.092791,0.0242346,-0.076
 4943,-0.1087966,-0.0776289,-0.0661876,-0.0218068,-0.0261966,-0.0742375
 ,-0.0556983,0.0242399,0.0573962,0.0071329,-0.0013911,0.0071554,-0.0402
 535,0.0199268,-0.0093736,0.1293107,-0.1832381,-0.1005245,0.0972798,0.0
 805511,0.0546606,0.0021668,-0.0146386,0.0814752,-0.0442959,0.0243067\P
 olar=54.8805469,0.0002233,54.8832856,0.0001368,0.0016438,43.5973139\Qu
 adrupole=0.1679641,0.1678759,-0.33584,0.0000114,0.0000134,0.0000402\PG
 =C01 [X(C4H9)]\NImag=0\\0.49006163,0.03795199,0.55002961,0.02667715,-0
 .01288605,0.47385502,-0.18606713,0.04846748,0.01169360,0.51530607,0.04
 848398,-0.10929864,-0.00568291,0.00001387,0.51523104,0.00837179,-0.004
 07214,-0.05434450,0.00003204,0.00005137,0.15228001,-0.02709058,-0.0151
 2602,-0.00723194,-0.17050392,-0.05747026,-0.00771944,0.50216064,0.0097
 5790,0.00951172,0.00301163,-0.05743574,-0.12481672,-0.00523843,-0.0449
 7162,0.53785319,0.00671561,0.00402667,0.00580519,-0.01076157,-0.007319
 74,-0.05432950,-0.02451404,-0.01663720,0.47383778,-0.00196880,0.029643
 28,-0.00684993,-0.08647915,0.00897857,-0.00067800,0.00268016,-0.026959
 00,0.00622685,0.56785843,0.00475443,-0.01562770,0.00380611,0.00897569,
 -0.20881439,0.00927969,-0.00206856,-0.02027672,0.00475961,0.00700262,0
 .47209827,0.00101215,-0.00777334,0.00581972,-0.00094831,0.01295410,-0.
 05433169,0.00012900,-0.00784292,0.00582365,-0.00215367,0.02954320,0.47
 385230,-0.17673870,-0.10140097,-0.07845538,-0.02411839,-0.01695934,-0.
 00859409,-0.00351769,0.00408093,0.00025569,0.00099870,-0.00177635,0.00
 007699,0.19747941,-0.10129155,-0.12838383,-0.05750830,0.00908096,0.008
 57092,0.00664128,0.00199991,-0.00096252,-0.00069405,0.00075702,0.00113
 486,0.00086888,0.11128739,0.13541972,-0.07923850,-0.05760213,-0.087586
 16,0.00504723,0.00279134,0.00189586,0.00133966,0.00007373,0.00027314,0
 .00004263,-0.00007758,-0.00022267,0.08368395,0.06627851,0.09412516,-0.
 04835235,0.00028011,-0.00358898,-0.00021234,0.02801944,-0.01054713,0.0
 0158188,0.00120968,-0.00062989,-0.00490293,0.00090126,0.00070215,0.000
 60903,-0.01970046,0.01126751,0.05100248,0.00016865,-0.25663988,0.09727
 890,0.00199464,-0.01537042,0.00262069,-0.00132028,0.00055782,-0.000598
 71,0.00298332,0.00042300,0.00023038,0.00052990,-0.01456348,0.00708078,
 -0.00462224,0.28177830,-0.00399948,0.09795530,-0.08765704,0.00093145,-
 0.00569473,0.00190181,0.00008939,0.00001109,-0.00022153,0.00077358,-0.
 00109757,0.00027028,0.00144014,-0.01321684,0.00605749,-0.00004033,-0.1
 0682490,0.09421060,-0.05235041,0.00459251,0.05404703,-0.01391245,0.006
 82955,0.02909392,0.00163363,0.00054015,-0.00115000,0.00049437,-0.00150
 681,-0.00061629,0.00521813,-0.00236605,-0.02254637,-0.00001717,-0.0005
 3082,0.00065643,0.06058983,0.00458829,-0.04512368,-0.02622136,0.006826
 27,-0.00314439,-0.01408358,-0.00060932,-0.00026913,-0.00012470,-0.0003
 5775,0.00086431,0.00097909,0.00361154,-0.00230697,-0.01867865,-0.00650
 018,0.00293767,0.02926645,-0.00854664,0.04712088,0.04182742,-0.0203067
 4,-0.25645960,0.00988768,-0.00478621,-0.00022923,-0.00020080,-0.000546
 76,0.00023156,0.00030597,0.00049548,0.00022744,0.00188140,-0.00159348,
 -0.01493960,0.00241582,-0.00049302,-0.01495880,-0.05744087,0.02787021,
 0.28633621,-0.00259090,-0.00431924,-0.00015331,-0.02456934,0.01209946,
 0.00754079,-0.20482150,0.09020594,0.08594454,0.00085837,0.00173717,-0.
 00020363,-0.00122499,0.00043957,0.00030893,0.00037991,-0.00018591,-0.0
 0003537,-0.00021780,0.00013513,0.00041522,0.22813656,-0.00223878,-0.00
 188931,-0.00072455,-0.01395028,0.00901379,0.00782089,0.09010877,-0.100
 31173,-0.04550959,-0.00079935,0.00127738,0.00084578,-0.00070191,0.0005
 6332,-0.00008571,-0.00007441,0.00035272,-0.00023795,0.00006742,0.00000
 599,-0.00003993,-0.09770646,0.10477539,-0.00133667,-0.00012134,0.00027
 394,-0.00541089,0.00202997,0.00190452,0.08673999,-0.04548475,-0.087558
 92,-0.00003115,-0.00008287,-0.00022202,-0.00029334,-0.00012970,0.00024
 346,0.00012695,-0.00027870,0.00004207,-0.00035917,0.00000382,0.0000640
 3,-0.09239066,0.05342323,0.09408836,0.00158500,-0.00026720,0.00115882,
 -0.01172221,-0.00809301,-0.02674569,-0.05085341,-0.00543224,-0.0496398
 1,0.00023432,0.00141464,0.00046783,-0.00018392,-0.00009527,0.00035489,
 -0.00012021,-0.00005210,-0.00017098,-0.00097275,0.00035490,0.00077298,
 0.00523515,0.00347409,0.02502019,0.05781944,0.00088188,-0.00021896,0.0
 0004388,-0.00808711,-0.00533926,-0.01815876,-0.00542759,-0.04659099,-0
 .03379436,0.00026532,0.00112605,0.00106086,-0.00016319,-0.00002785,0.0
 0005590,-0.00019648,0.00011046,0.00011634,-0.00054328,0.00031968,0.000
 43802,-0.00250298,-0.00232866,-0.01521016,0.01011925,0.04986193,0.0002
 7676,-0.00051211,0.00023223,-0.00908973,-0.00617058,-0.00023469,-0.038
 40705,-0.02617532,-0.25646530,-0.00037466,0.00044663,0.00022760,-0.000
 40509,-0.00009991,0.00006418,0.00006643,0.00019298,-0.00019706,-0.0008
 3131,0.00032051,0.00002956,-0.00162717,-0.00184888,-0.01493622,0.05275
 586,0.03592603,0.28634347,0.00154165,-0.00106553,0.00070901,0.00378307
 ,-0.02520847,0.01005553,-0.05266621,0.02961359,-0.01056255,-0.00423259
 ,-0.00158385,-0.00072868,0.00034185,0.00007277,-0.00008538,-0.00025630
 ,0.00064407,-0.00025730,-0.00015099,0.00015768,-0.00009188,-0.00245971
 ,0.02147577,-0.01217688,-0.00095903,0.00592228,-0.00231698,0.05451567,
 0.00146379,0.00059448,-0.00050220,0.00081221,-0.01935933,0.00412394,0.
 02972964,-0.25230921,0.09678966,-0.00366519,-0.00024699,0.00012660,0.0
 0018381,0.00039058,-0.00029395,-0.00080479,0.00084145,-0.00002459,0.00
 001307,0.00014090,0.00018184,0.00124203,-0.01149299,0.00537044,-0.0000
 4337,0.00388750,-0.00084051,-0.02868231,0.27823666,-0.00008707,-0.0000
 0132,-0.00021987,-0.00010030,-0.00577452,0.00190463,-0.01025308,0.0975
 1840,-0.08767485,-0.00060644,-0.00119839,0.00027009,0.00006971,-0.0002
 3043,0.00004194,0.00025656,0.00001263,0.00020322,0.00015310,0.00014149
 ,-0.00019896,0.00049088,-0.01328260,0.00605458,-0.00489265,0.02886000,
 -0.01496066,0.01553878,-0.10570615,0.09423139,0.00076618,0.00084830,0.
 00083529,0.00142793,-0.00105416,0.00300377,0.00077362,0.00029438,-0.00
 055112,-0.20438618,-0.09023322,-0.08246180,0.00050384,-0.00020738,-0.0
 0014057,0.00024711,0.00010943,0.00017765,-0.00005489,0.00008848,-0.000
 20063,0.00047280,0.00002074,-0.00018816,-0.00013749,-0.00011427,-0.000
 24248,0.00022985,-0.00013823,-0.00022869,0.22007252,-0.00168742,0.0013
 7116,-0.00024619,-0.02709587,-0.01697276,-0.01044953,0.00237528,-0.005
 25385,0.00049313,-0.09033600,-0.10057958,-0.05174054,0.00125081,0.0000
 7400,0.00021999,-0.00000237,0.00048601,0.00024927,0.00023422,0.0000470
 9,-0.00003883,0.00013269,0.00026036,0.00014964,-0.00018240,-0.00007499
 ,-0.00034015,-0.00127820,-0.00089041,-0.00022508,0.10222457,0.11265133
 ,-0.00005720,0.00007048,-0.00022269,0.00445975,0.00366668,0.00190265,0
 .00056469,0.00121719,0.00027206,-0.08284082,-0.05244066,-0.08766620,0.
 00015329,-0.00021817,0.00020281,0.00022408,0.00008868,0.00004209,-0.00
 001512,-0.00020618,-0.00019686,-0.00030458,0.00002960,0.00004181,0.000
 18240,0.00030907,0.00006387,0.00003417,0.00031876,0.00024284,0.0925428
 4,0.05336808,0.09421782,0.00017427,-0.00023087,0.00068521,0.00007148,0
 .00125689,-0.00235420,-0.00003561,0.00005107,-0.00054356,-0.04294849,0
 .00083717,-0.00431681,0.00014243,0.00001011,-0.00019862,0.00003782,0.0
 0001221,0.00017593,-0.00008080,0.00015263,0.00013857,0.00015989,0.0000
 3526,0.00018861,0.00008173,-0.00005730,-0.00000840,0.00004523,0.000030
 68,-0.00012899,-0.00084417,0.00602584,-0.02567251,0.04308089,-0.001379
 49,0.00118606,-0.00093727,0.00125086,-0.01715852,0.03223655,0.00120037
 ,0.00139412,-0.00102763,0.00083762,-0.05452301,0.05994526,0.00015612,-
 0.00015154,0.00006247,0.00008071,-0.00024976,-0.00031233,0.00104962,-0
 .00055869,-0.00087935,-0.00011032,-0.00016905,0.00009110,-0.00095468,-
 0.00072191,-0.00088890,-0.00003794,-0.00025767,-0.00033457,0.00005105,
 0.00376811,-0.01406057,-0.00156337,0.06464164,0.00057302,0.00010076,0.
 00023054,-0.00079684,0.01095246,-0.00022277,-0.00058218,0.00001761,0.0
 0022878,-0.00333260,0.04639992,-0.25645188,-0.00011074,-0.00017121,-0.
 00019751,-0.00017331,0.00037996,0.00006385,-0.00076582,0.00045332,0.00
 003020,0.00013444,-0.00015278,-0.00019839,0.00069189,0.00055652,0.0000
 3003,0.00011648,0.00040122,0.00006381,-0.00078097,0.00234216,-0.014958
 51,0.00458851,-0.06370752,0.28632455,0.00103013,0.00062617,0.00047343,
 -0.00300363,0.00310349,-0.00145930,0.00065898,-0.00095504,-0.00079016,
 -0.22820620,0.07154580,0.08904108,0.00049030,0.00001298,0.00016463,0.0
 0000308,0.00026914,0.00025888,-0.00017870,0.00009897,0.00028914,0.0006
 4155,0.00028914,0.00011119,-0.00000661,-0.00009654,0.00020382,0.000267
 50,-0.00014135,-0.00021182,-0.01907112,0.00833884,0.01072902,0.0001153
 4,-0.00058054,0.00043813,0.24725938,-0.00145366,-0.00551102,0.00056830
 ,0.02914701,-0.01254132,-0.01077196,0.00157968,0.00147402,-0.00036309,
 0.07164953,-0.07685548,-0.03919736,-0.00009875,0.00024279,0.00017531,0
 .00140971,-0.00066389,-0.00018955,0.00016707,-0.00003366,-0.00030122,-
 0.00116707,-0.00005721,0.00023932,-0.00024262,-0.00000301,-0.00000979,
 -0.00002986,0.00046504,0.00022053,-0.01188969,0.00511353,0.00785704,-0
 .00656032,0.00280022,0.00242759,-0.08251105,0.08557001,-0.00073498,0.0
 0112195,0.00027323,-0.00494410,0.00298277,0.00190291,0.00004578,0.0000
 7574,-0.00022205,0.08951824,-0.03983356,-0.08759662,0.00029749,0.00007
 342,0.00004192,-0.00007986,0.00031035,0.00024302,-0.00022552,0.0002795
 9,0.00006404,-0.00012007,-0.00023751,0.00020277,0.00004428,-0.00020334
 ,-0.00019701,-0.00023431,0.00005494,0.00004185,-0.01176515,0.00621804,
 0.00605833,0.02744625,-0.01018725,-0.01494271,-0.09924805,0.03934486,0
 .09413033\\0.00000006,-0.00000394,0.00000146,-0.00000651,0.00000684,-0
 .00000130,-0.00000089,-0.00000166,-0.00000127,0.00000178,-0.00000150,-
 0.00000044,0.00000380,-0.00000206,-0.00000024,-0.00000274,0.00000033,0
 .00000083,0.00000038,0.00000270,-0.00000054,0.00000113,-0.00000110,0.0
 0000097,0.00000382,-0.00000039,0.00000120,0.00000172,-0.00000067,-0.00
 000024,-0.00000019,-0.00000120,-0.00000013,-0.00000182,0.00000195,0.00
 000018,-0.00000055,0.00000070,-0.00000048\\\@
 The archive entry for this job was punched.


 IF YOU WISH TO UNDERSTAND THE FRAGRANCE OF THE ROSE, 
 OR THE TENACITY OF THE OAK; 
 IF YOU ARE NOT SATISFIED UNTIL YOU KNOW THE SECRET PATHS 
 BY WHICH THE SUNSHINE AND THE AIR ACHIEVE THESE WONDERS; 
 IF YOU WISH TO SEE THE PATTERN WHICH UNDERLIES ONE LARGE FIELD OF 
 HUMAN EXPERIENCE AND HUMAN MEASUREMENT, THEN TAKE UP CHEMISTRY.

                                         -- C. A. COULSON, 1973.
 Job cpu time:       0 days  0 hours 27 minutes 44.5 seconds.
 Elapsed time:       0 days  0 hours  3 minutes 29.9 seconds.
 File lengths (MBytes):  RWF=    112 Int=      0 D2E=      0 Chk=      8 Scr=      1
 Normal termination of Gaussian 16 at Tue Apr 12 15:23:08 2022.
