 Entering Gaussian System, Link 0=g16
 Input=Mol_03.com
 Output=Mol_03.log
 Initial command:
 /home/saurabh/gaussian/g16/l1.exe "/home/saurabh/gaussian/gauss_scr/Gau-24116.inp" -scrdir="/home/saurabh/gaussian/gauss_scr/"
 Entering Link 1 = /home/saurabh/gaussian/g16/l1.exe PID=     24117.
  
 Copyright (c) 1988-2019, Gaussian, Inc.  All Rights Reserved.
  
 This is part of the Gaussian(R) 16 program.  It is based on
 the Gaussian(R) 09 system (copyright 2009, Gaussian, Inc.),
 the Gaussian(R) 03 system (copyright 2003, Gaussian, Inc.),
 the Gaussian(R) 98 system (copyright 1998, Gaussian, Inc.),
 the Gaussian(R) 94 system (copyright 1995, Gaussian, Inc.),
 the Gaussian 92(TM) system (copyright 1992, Gaussian, Inc.),
 the Gaussian 90(TM) system (copyright 1990, Gaussian, Inc.),
 the Gaussian 88(TM) system (copyright 1988, Gaussian, Inc.),
 the Gaussian 86(TM) system (copyright 1986, Carnegie Mellon
 University), and the Gaussian 82(TM) system (copyright 1983,
 Carnegie Mellon University). Gaussian is a federally registered
 trademark of Gaussian, Inc.
  
 This software contains proprietary and confidential information,
 including trade secrets, belonging to Gaussian, Inc.
  
 This software is provided under written license and may be
 used, copied, transmitted, or stored only in accord with that
 written license.
  
 The following legend is applicable only to US Government
 contracts under FAR:
  
                    RESTRICTED RIGHTS LEGEND
  
 Use, reproduction and disclosure by the US Government is
 subject to restrictions as set forth in subparagraphs (a)
 and (c) of the Commercial Computer Software - Restricted
 Rights clause in FAR 52.227-19.
  
 Gaussian, Inc.
 340 Quinnipiac St., Bldg. 40, Wallingford CT 06492
  
  
 ---------------------------------------------------------------
 Warning -- This program may not be used in any manner that
 competes with the business of Gaussian, Inc. or will provide
 assistance to any competitor of Gaussian, Inc.  The licensee
 of this program is prohibited from giving any competitor of
 Gaussian, Inc. access to this program.  By using this program,
 the user acknowledges that Gaussian, Inc. is engaged in the
 business of creating and licensing software in the field of
 computational chemistry and represents and warrants to the
 licensee that it is not a competitor of Gaussian, Inc. and that
 it will not use this program in any manner prohibited above.
 ---------------------------------------------------------------
  

 Cite this work as:
 Gaussian 16, Revision C.01,
 M. J. Frisch, G. W. Trucks, H. B. Schlegel, G. E. Scuseria, 
 M. A. Robb, J. R. Cheeseman, G. Scalmani, V. Barone, 
 G. A. Petersson, H. Nakatsuji, X. Li, M. Caricato, A. V. Marenich, 
 J. Bloino, B. G. Janesko, R. Gomperts, B. Mennucci, H. P. Hratchian, 
 J. V. Ortiz, A. F. Izmaylov, J. L. Sonnenberg, D. Williams-Young, 
 F. Ding, F. Lipparini, F. Egidi, J. Goings, B. Peng, A. Petrone, 
 T. Henderson, D. Ranasinghe, V. G. Zakrzewski, J. Gao, N. Rega, 
 G. Zheng, W. Liang, M. Hada, M. Ehara, K. Toyota, R. Fukuda, 
 J. Hasegawa, M. Ishida, T. Nakajima, Y. Honda, O. Kitao, H. Nakai, 
 T. Vreven, K. Throssell, J. A. Montgomery, Jr., J. E. Peralta, 
 F. Ogliaro, M. J. Bearpark, J. J. Heyd, E. N. Brothers, K. N. Kudin, 
 V. N. Staroverov, T. A. Keith, R. Kobayashi, J. Normand, 
 K. Raghavachari, A. P. Rendell, J. C. Burant, S. S. Iyengar, 
 J. Tomasi, M. Cossi, J. M. Millam, M. Klene, C. Adamo, R. Cammi, 
 J. W. Ochterski, R. L. Martin, K. Morokuma, O. Farkas, 
 J. B. Foresman, and D. J. Fox, Gaussian, Inc., Wallingford CT, 2019.
 
 ******************************************
 Gaussian 16:  ES64L-G16RevC.01  3-Jul-2019
                11-Apr-2022 
 ******************************************
 %mem=8gb
 %nproc=8
 Will use up to    8 processors via shared memory.
 %chk=Mol_03.chk
 ----------------------------------------------------------------------
 #p B3LYP/cc-PVTZ scf(verytight, maxcycles=1000) opt(calcfc, maxcyc=100
 0) freq(hpmodes) int(grid=ultrafine)
 ----------------------------------------------------------------------
 1/6=1000,10=4,18=20,19=15,26=4,38=1/1,3;
 2/9=110,12=2,17=6,18=5,40=1/2;
 3/5=16,6=1,11=2,25=1,30=1,71=2,74=-5,75=-5,140=1/1,2,3;
 4//1;
 5/5=2,7=1000,17=3,38=5/2;
 8/6=4,10=90,11=11/1;
 11/6=1,8=1,9=11,15=111,16=1/1,2,10;
 10/6=1,13=1/2;
 6/7=2,8=2,9=2,10=2,28=1/1;
 7/10=1,25=1/1,2,3,16;
 1/6=1000,10=4,18=20,19=15,26=4/3(2);
 2/9=110/2;
 99//99;
 2/9=110/2;
 3/5=16,6=1,11=2,25=1,30=1,71=1,74=-5,75=-5/1,2,3;
 4/5=5,16=3,69=1/1;
 5/5=2,7=1000,17=3,38=5/2;
 7//1,2,3,16;
 1/6=1000,18=20,19=15,26=4/3(-5);
 2/9=110/2;
 6/7=2,8=2,9=2,10=2,19=2,28=1/1;
 99/9=1/99;
 Leave Link    1 at Mon Apr 11 19:49:21 2022, MaxMem=  1073741824 cpu:               0.5 elap:               0.1
 (Enter /home/saurabh/gaussian/g16/l101.exe)
 ------
 Mol_03
 ------
 Symbolic Z-matrix:
 Charge =  0 Multiplicity = 2
 C                    -3.74889   1.90697  -0.23816 
 C                    -2.49563   1.17653   0.27686 
 C                    -1.26808   2.066     0.02898 
 C                    -2.30806  -0.15508  -0.47739 
 H                    -3.6817    2.10678  -1.32948 
 H                    -3.90033   2.86556   0.30301 
 H                    -1.14397   2.27949  -1.05502 
 H                    -0.3467    1.56537   0.3973 
 H                    -1.37475   3.03188   0.56841 
 O                    -2.58427   0.95114   1.67203 
 H                    -1.40235  -0.68309  -0.10907 
 H                    -2.1931    0.02447  -1.56835 
 H                    -3.18438  -0.82183  -0.3315 
 O                    -3.67719   0.24354   1.9059 
 H                    -4.27986   0.86137   2.39377 
 
 ITRead=  0  0  0  0  0  0  0  0  0  0  0  0  0  0  0
 MicOpt= -1 -1 -1 -1 -1 -1 -1 -1 -1 -1 -1 -1 -1 -1 -1
 NAtoms=     15 NQM=       15 NQMF=       0 NMMI=      0 NMMIF=      0
                NMic=       0 NMicF=      0.
                    Isotopes and Nuclear Properties:
 (Nuclear quadrupole moments (NQMom) in fm**2, nuclear magnetic moments (NMagM)
  in nuclear magnetons)

  Atom         1           2           3           4           5           6           7           8           9          10
 IAtWgt=          12          12          12          12           1           1           1           1           1          16
 AtmWgt=  12.0000000  12.0000000  12.0000000  12.0000000   1.0078250   1.0078250   1.0078250   1.0078250   1.0078250  15.9949146
 NucSpn=           0           0           0           0           1           1           1           1           1           0
 AtZEff=  -0.0000000  -0.0000000  -0.0000000  -0.0000000  -0.0000000  -0.0000000  -0.0000000  -0.0000000  -0.0000000  -0.0000000
 NQMom=    0.0000000   0.0000000   0.0000000   0.0000000   0.0000000   0.0000000   0.0000000   0.0000000   0.0000000   0.0000000
 NMagM=    0.0000000   0.0000000   0.0000000   0.0000000   2.7928460   2.7928460   2.7928460   2.7928460   2.7928460   0.0000000
 AtZNuc=   6.0000000   6.0000000   6.0000000   6.0000000   1.0000000   1.0000000   1.0000000   1.0000000   1.0000000   8.0000000

  Atom        11          12          13          14          15
 IAtWgt=           1           1           1          16           1
 AtmWgt=   1.0078250   1.0078250   1.0078250  15.9949146   1.0078250
 NucSpn=           1           1           1           0           1
 AtZEff=  -0.0000000  -0.0000000  -0.0000000  -0.0000000  -0.0000000
 NQMom=    0.0000000   0.0000000   0.0000000   0.0000000   0.0000000
 NMagM=    2.7928460   2.7928460   2.7928460   0.0000000   2.7928460
 AtZNuc=   1.0000000   1.0000000   1.0000000   8.0000000   1.0000000
 Leave Link  101 at Mon Apr 11 19:49:22 2022, MaxMem=  1073741824 cpu:               1.4 elap:               0.2
 (Enter /home/saurabh/gaussian/g16/l103.exe)

 GradGradGradGradGradGradGradGradGradGradGradGradGradGradGradGradGradGrad
 Berny optimization.
 Initialization pass.
                           ----------------------------
                           !    Initial Parameters    !
                           ! (Angstroms and Degrees)  !
 --------------------------                            --------------------------
 ! Name  Definition              Value          Derivative Info.                !
 --------------------------------------------------------------------------------
 ! R1    R(1,2)                  1.5393         calculate D2E/DX2 analytically  !
 ! R2    R(1,5)                  1.1115         calculate D2E/DX2 analytically  !
 ! R3    R(1,6)                  1.1112         calculate D2E/DX2 analytically  !
 ! R4    R(2,3)                  1.5361         calculate D2E/DX2 analytically  !
 ! R5    R(2,4)                  1.5418         calculate D2E/DX2 analytically  !
 ! R6    R(2,10)                 1.416          calculate D2E/DX2 analytically  !
 ! R7    R(3,7)                  1.1118         calculate D2E/DX2 analytically  !
 ! R8    R(3,8)                  1.1114         calculate D2E/DX2 analytically  !
 ! R9    R(3,9)                  1.1114         calculate D2E/DX2 analytically  !
 ! R10   R(4,11)                 1.1112         calculate D2E/DX2 analytically  !
 ! R11   R(4,12)                 1.1116         calculate D2E/DX2 analytically  !
 ! R12   R(4,13)                 1.1108         calculate D2E/DX2 analytically  !
 ! R13   R(10,14)                1.3228         calculate D2E/DX2 analytically  !
 ! R14   R(14,15)                0.9914         calculate D2E/DX2 analytically  !
 ! A1    A(2,1,5)              111.3823         calculate D2E/DX2 analytically  !
 ! A2    A(2,1,6)              110.9394         calculate D2E/DX2 analytically  !
 ! A3    A(5,1,6)              109.3505         calculate D2E/DX2 analytically  !
 ! A4    A(1,2,3)              108.7764         calculate D2E/DX2 analytically  !
 ! A5    A(1,2,4)              110.194          calculate D2E/DX2 analytically  !
 ! A6    A(1,2,10)             110.7454         calculate D2E/DX2 analytically  !
 ! A7    A(3,2,4)              108.9017         calculate D2E/DX2 analytically  !
 ! A8    A(3,2,10)             107.5292         calculate D2E/DX2 analytically  !
 ! A9    A(4,2,10)             110.6177         calculate D2E/DX2 analytically  !
 ! A10   A(2,3,7)              110.9625         calculate D2E/DX2 analytically  !
 ! A11   A(2,3,8)              110.377          calculate D2E/DX2 analytically  !
 ! A12   A(2,3,9)              110.3772         calculate D2E/DX2 analytically  !
 ! A13   A(7,3,8)              108.4862         calculate D2E/DX2 analytically  !
 ! A14   A(7,3,9)              108.4853         calculate D2E/DX2 analytically  !
 ! A15   A(8,3,9)              108.0697         calculate D2E/DX2 analytically  !
 ! A16   A(2,4,11)             110.3277         calculate D2E/DX2 analytically  !
 ! A17   A(2,4,12)             110.6823         calculate D2E/DX2 analytically  !
 ! A18   A(2,4,13)             110.9897         calculate D2E/DX2 analytically  !
 ! A19   A(11,4,12)            108.5281         calculate D2E/DX2 analytically  !
 ! A20   A(11,4,13)            108.3171         calculate D2E/DX2 analytically  !
 ! A21   A(12,4,13)            107.9058         calculate D2E/DX2 analytically  !
 ! A22   A(2,10,14)            108.1222         calculate D2E/DX2 analytically  !
 ! A23   A(10,14,15)           104.826          calculate D2E/DX2 analytically  !
 ! D1    D(5,1,2,3)             60.9411         calculate D2E/DX2 analytically  !
 ! D2    D(5,1,2,4)            -58.3737         calculate D2E/DX2 analytically  !
 ! D3    D(5,1,2,10)           178.9071         calculate D2E/DX2 analytically  !
 ! D4    D(6,1,2,3)            -61.1201         calculate D2E/DX2 analytically  !
 ! D5    D(6,1,2,4)            179.5651         calculate D2E/DX2 analytically  !
 ! D6    D(6,1,2,10)            56.8458         calculate D2E/DX2 analytically  !
 ! D7    D(1,2,3,7)            -60.0339         calculate D2E/DX2 analytically  !
 ! D8    D(1,2,3,8)            179.6666         calculate D2E/DX2 analytically  !
 ! D9    D(1,2,3,9)             60.2645         calculate D2E/DX2 analytically  !
 ! D10   D(4,2,3,7)             60.0848         calculate D2E/DX2 analytically  !
 ! D11   D(4,2,3,8)            -60.2147         calculate D2E/DX2 analytically  !
 ! D12   D(4,2,3,9)           -179.6168         calculate D2E/DX2 analytically  !
 ! D13   D(10,2,3,7)           179.9842         calculate D2E/DX2 analytically  !
 ! D14   D(10,2,3,8)            59.6848         calculate D2E/DX2 analytically  !
 ! D15   D(10,2,3,9)           -59.7174         calculate D2E/DX2 analytically  !
 ! D16   D(1,2,4,11)           179.8569         calculate D2E/DX2 analytically  !
 ! D17   D(1,2,4,12)            59.7197         calculate D2E/DX2 analytically  !
 ! D18   D(1,2,4,13)           -60.0704         calculate D2E/DX2 analytically  !
 ! D19   D(3,2,4,11)            60.6184         calculate D2E/DX2 analytically  !
 ! D20   D(3,2,4,12)           -59.5188         calculate D2E/DX2 analytically  !
 ! D21   D(3,2,4,13)          -179.3089         calculate D2E/DX2 analytically  !
 ! D22   D(10,2,4,11)          -57.349          calculate D2E/DX2 analytically  !
 ! D23   D(10,2,4,12)         -177.4862         calculate D2E/DX2 analytically  !
 ! D24   D(10,2,4,13)           62.7237         calculate D2E/DX2 analytically  !
 ! D25   D(1,2,10,14)           58.0847         calculate D2E/DX2 analytically  !
 ! D26   D(3,2,10,14)          176.8088         calculate D2E/DX2 analytically  !
 ! D27   D(4,2,10,14)          -64.388          calculate D2E/DX2 analytically  !
 ! D28   D(2,10,14,15)        -111.9956         calculate D2E/DX2 analytically  !
 --------------------------------------------------------------------------------
 Trust Radius=3.00D-01 FncErr=1.00D-07 GrdErr=1.00D-06 EigMax=2.50D+02 EigMin=1.00D-04
 Number of steps in this run=    100 maximum allowed number of steps=    100.
 GradGradGradGradGradGradGradGradGradGradGradGradGradGradGradGradGradGrad

 Leave Link  103 at Mon Apr 11 19:49:22 2022, MaxMem=  1073741824 cpu:               0.1 elap:               0.0
 (Enter /home/saurabh/gaussian/g16/l202.exe)
                          Input orientation:                          
 ---------------------------------------------------------------------
 Center     Atomic      Atomic             Coordinates (Angstroms)
 Number     Number       Type             X           Y           Z
 ---------------------------------------------------------------------
      1          6           0       -3.748892    1.906974   -0.238161
      2          6           0       -2.495626    1.176529    0.276862
      3          6           0       -1.268079    2.066002    0.028976
      4          6           0       -2.308061   -0.155080   -0.477385
      5          1           0       -3.681697    2.106779   -1.329477
      6          1           0       -3.900328    2.865563    0.303006
      7          1           0       -1.143966    2.279493   -1.055021
      8          1           0       -0.346702    1.565375    0.397303
      9          1           0       -1.374754    3.031880    0.568411
     10          8           0       -2.584265    0.951142    1.672034
     11          1           0       -1.402355   -0.683087   -0.109065
     12          1           0       -2.193102    0.024473   -1.568348
     13          1           0       -3.184375   -0.821833   -0.331497
     14          8           0       -3.677189    0.243537    1.905898
     15          1           0       -4.279863    0.861366    2.393769
 ---------------------------------------------------------------------
                    Distance matrix (angstroms):
                    1          2          3          4          5
     1  C    0.000000
     2  C    1.539309   0.000000
     3  C    2.500217   1.536061   0.000000
     4  C    2.526913   1.541834   2.504230   0.000000
     5  H    1.111489   2.202828   2.769947   2.780097   0.000000
     6  H    1.111164   2.196977   2.764620   3.502657   1.813436
     7  H    2.755299   2.194864   1.111770   2.759696   2.558366
     8  H    3.477844   2.187140   1.111408   2.751721   3.794348
     9  H    2.748182   2.187163   1.111436   3.481589   3.127263
    10  O    2.432861   1.416037   2.382204   2.433109   3.398370
    11  H    3.497330   2.191428   2.755826   1.111196   3.803703
    12  H    2.780951   2.196259   2.752263   1.111599   2.570792
    13  H    2.788149   2.199528   3.484497   1.110752   3.133697
    14  O    2.714618   2.218180   3.556406   2.777309   3.733542
    15  H    2.881367   2.786417   4.014254   3.628318   3.971323
                    6          7          8          9         10
     6  H    0.000000
     7  H    3.128138   0.000000
     8  H    3.785186   1.804117   0.000000
     9  H    2.544922   1.804129   1.799112   0.000000
    10  O    2.696528   3.357947   2.647434   2.647710   0.000000
    11  H    4.359196   3.120654   2.535033   3.776336   2.690712
    12  H    3.806360   2.539549   3.106019   3.778879   3.392904
    13  H    3.809471   3.782192   3.779193   4.351513   2.741844
    14  O    3.081245   4.396519   3.887835   3.855507   1.322831
    15  H    2.920983   4.872277   4.466683   4.059891   1.844996
                   11         12         13         14         15
    11  H    0.000000
    12  H    1.804280   0.000000
    13  H    1.801201   1.796846   0.000000
    14  O    3.177040   3.784295   2.526621   0.000000
    15  H    4.114556   4.555582   3.385310   0.991436   0.000000
 Stoichiometry    C4H9O2(2)
 Framework group  C1[X(C4H9O2)]
 Deg. of freedom    39
 Full point group                 C1      NOp   1
 Largest Abelian subgroup         C1      NOp   1
 Largest concise Abelian subgroup C1      NOp   1
                         Standard orientation:                         
 ---------------------------------------------------------------------
 Center     Atomic      Atomic             Coordinates (Angstroms)
 Number     Number       Type             X           Y           Z
 ---------------------------------------------------------------------
      1          6           0        0.263065   -0.790900    1.347293
      2          6           0        0.325791   -0.012027    0.021059
      3          6           0        1.561502   -0.474084   -0.765708
      4          6           0        0.446070    1.500127    0.297057
      5          1           0        1.162021   -0.599775    1.972398
      6          1           0        0.168325   -1.882510    1.162638
      7          1           0        2.493373   -0.285294   -0.189508
      8          1           0        1.629407    0.068537   -1.733271
      9          1           0        1.496631   -1.561876   -0.984319
     10          8           0       -0.813132   -0.284551   -0.775023
     11          1           0        0.494122    2.064398   -0.659000
     12          1           0        1.364219    1.720325    0.883717
     13          1           0       -0.426421    1.869380    0.876869
     14          8           0       -1.889346    0.045116   -0.080067
     15          1           0       -2.340415   -0.816403    0.112982
 ---------------------------------------------------------------------
 Rotational constants (GHZ):           4.7085279           2.9324823           2.8395504
 Leave Link  202 at Mon Apr 11 19:49:22 2022, MaxMem=  1073741824 cpu:               0.1 elap:               0.0
 (Enter /home/saurabh/gaussian/g16/l301.exe)
 Standard basis: CC-pVTZ (5D, 7F)
 Ernie: Thresh=  0.10000D-02 Tol=  0.10000D-05 Strict=F.
 Ernie:  18 primitive shells out of 228 were deleted.
 There are   345 symmetry adapted cartesian basis functions of A   symmetry.
 There are   306 symmetry adapted basis functions of A   symmetry.
   306 basis functions,   465 primitive gaussians,   345 cartesian basis functions
    25 alpha electrons       24 beta electrons
       nuclear repulsion energy       262.1007187165 Hartrees.
 IExCor=  402 DFT=T Ex+Corr=B3LYP ExCW=0 ScaHFX=  0.200000
 ScaDFX=  0.800000  0.720000  1.000000  0.810000 ScalE2=  1.000000  1.000000
 IRadAn=      5 IRanWt=     -1 IRanGd=            0 ICorTp=0 IEmpDi=  4
 NAtoms=   15 NActive=   15 NUniq=   15 SFac= 1.00D+00 NAtFMM=   60 NAOKFM=F Big=F
 Integral buffers will be    131072 words long.
 Raffenetti 2 integral format.
 Two-electron integral symmetry is turned on.
 Leave Link  301 at Mon Apr 11 19:49:22 2022, MaxMem=  1073741824 cpu:               0.5 elap:               0.1
 (Enter /home/saurabh/gaussian/g16/l302.exe)
 NPDir=0 NMtPBC=     1 NCelOv=     1 NCel=       1 NClECP=     1 NCelD=      1
         NCelK=      1 NCelE2=     1 NClLst=     1 CellRange=     0.0.
 One-electron integrals computed using PRISM.
 One-electron integral symmetry used in STVInt
 NBasis=   306 RedAO= T EigKep=  6.62D-04  NBF=   306
 NBsUse=   306 1.00D-06 EigRej= -1.00D+00 NBFU=   306
 Precomputing XC quadrature grid using
 IXCGrd= 4 IRadAn=           5 IRanWt=          -1 IRanGd=           0 AccXCQ= 0.00D+00.
 Generated NRdTot=       0 NPtTot=           0 NUsed=           0 NTot=          32
 NSgBfM=   345   345   345   345   345 MxSgAt=    15 MxSgA2=    15.
 Leave Link  302 at Mon Apr 11 19:49:22 2022, MaxMem=  1073741824 cpu:               1.8 elap:               0.3
 (Enter /home/saurabh/gaussian/g16/l303.exe)
 DipDrv:  MaxL=1.
 Leave Link  303 at Mon Apr 11 19:49:22 2022, MaxMem=  1073741824 cpu:               0.3 elap:               0.1
 (Enter /home/saurabh/gaussian/g16/l401.exe)
 ExpMin= 1.03D-01 ExpMax= 1.53D+04 ExpMxC= 5.22D+02 IAcc=3 IRadAn=         5 AccDes= 0.00D+00
 Harris functional with IExCor=  402 and IRadAn=       5 diagonalized for initial guess.
 HarFok:  IExCor=  402 AccDes= 0.00D+00 IRadAn=         5 IDoV= 1 UseB2=F ITyADJ=14
 ICtDFT=  3500011 ScaDFX=  1.000000  1.000000  1.000000  1.000000
 FoFCou: FMM=F IPFlag=           0 FMFlag=      100000 FMFlg1=           0
         NFxFlg=           0 DoJE=T BraDBF=F KetDBF=T FulRan=T
         wScrn=  0.000000 ICntrl=       500 IOpCl=  0 I1Cent=   200000004 NGrid=           0
         NMat0=    1 NMatS0=      1 NMatT0=    0 NMatD0=    1 NMtDS0=    0 NMtDT0=    0
 Petite list used in FoFCou.
 Harris En= -308.247914941736    
 JPrj=0 DoOrth=F DoCkMO=F.
 Initial guess <Sx>= 0.0000 <Sy>= 0.0000 <Sz>= 0.5000 <S**2>= 0.7500 S= 0.5000
 Leave Link  401 at Mon Apr 11 19:49:23 2022, MaxMem=  1073741824 cpu:               8.1 elap:               1.0
 (Enter /home/saurabh/gaussian/g16/l502.exe)
 Integral symmetry usage will be decided dynamically.
 UHF open shell SCF:
 Using DIIS extrapolation, IDIIS=  1040.
 NGot=  1073741824 LenX=  1073497548 LenY=  1073378082
 Requested convergence on RMS density matrix=1.00D-08 within1000 cycles.
 Requested convergence on MAX density matrix=1.00D-06.
 Requested convergence on             energy=1.00D-06.
 No special actions if energy rises.
 Fock matrices will be formed incrementally for  20 cycles.
 Integral accuracy reduced to 1.0D-05 until final iterations.

 Cycle   1  Pass 0  IDiag  1:
 FoFJK:  IHMeth= 1 ICntrl=       0 DoSepK=F KAlg= 0 I1Cent=           0 FoldK=F
 IRaf= 990000000 NMat=       1 IRICut=       1 DoRegI=T DoRafI=F ISym2E= 0 IDoP0=0 IntGTp=1.
 FoFCou: FMM=F IPFlag=           0 FMFlag=      100000 FMFlg1=           0
         NFxFlg=           0 DoJE=F BraDBF=F KetDBF=F FulRan=T
         wScrn=  0.000000 ICntrl=         0 IOpCl=  1 I1Cent=           0 NGrid=           0
         NMat0=    1 NMatS0=      1 NMatT0=    0 NMatD0=    1 NMtDS0=    0 NMtDT0=    0
 Symmetry not used in FoFCou.
 E= -308.041299888567    
 DIIS: error= 2.63D-02 at cycle   1 NSaved=   1.
 NSaved= 1 IEnMin= 1 EnMin= -308.041299888567     IErMin= 1 ErrMin= 2.63D-02
 ErrMax= 2.63D-02  0.00D+00 EMaxC= 1.00D-01 BMatC= 8.52D-01 BMatP= 8.52D-01
 IDIUse=3 WtCom= 7.37D-01 WtEn= 2.63D-01
 Coeff-Com:  0.100D+01
 Coeff-En:   0.100D+01
 Coeff:      0.100D+01
 Gap=     0.226 Goal=   None    Shift=    0.000
 Gap=     0.196 Goal=   None    Shift=    0.000
 GapD=    0.196 DampG=1.000 DampE=0.500 DampFc=0.5000 IDamp=-1.
 Damping current iteration by 5.00D-01
 RMSDP=2.35D-03 MaxDP=8.06D-02              OVMax= 1.71D-01

 Cycle   2  Pass 0  IDiag  1:
 RMSU=  1.17D-03    CP:  9.96D-01
 E= -308.125001682224     Delta-E=       -0.083701793657 Rises=F Damp=T
 DIIS: error= 3.44D-03 at cycle   2 NSaved=   2.
 NSaved= 2 IEnMin= 2 EnMin= -308.125001682224     IErMin= 2 ErrMin= 3.44D-03
 ErrMax= 3.44D-03  0.00D+00 EMaxC= 1.00D-01 BMatC= 4.72D-02 BMatP= 8.52D-01
 IDIUse=3 WtCom= 9.66D-01 WtEn= 3.44D-02
 Coeff-Com:  0.441D-01 0.956D+00
 Coeff-En:   0.122D+00 0.878D+00
 Coeff:      0.467D-01 0.953D+00
 Gap=     0.266 Goal=   None    Shift=    0.000
 Gap=     0.181 Goal=   None    Shift=    0.000
 RMSDP=4.47D-04 MaxDP=1.57D-02 DE=-8.37D-02 OVMax= 1.09D-01

 Cycle   3  Pass 0  IDiag  1:
 RMSU=  3.54D-04    CP:  9.98D-01  7.69D-01
 E= -308.228036464847     Delta-E=       -0.103034782623 Rises=F Damp=F
 DIIS: error= 2.71D-03 at cycle   3 NSaved=   3.
 NSaved= 3 IEnMin= 3 EnMin= -308.228036464847     IErMin= 3 ErrMin= 2.71D-03
 ErrMax= 2.71D-03  0.00D+00 EMaxC= 1.00D-01 BMatC= 1.52D-02 BMatP= 4.72D-02
 IDIUse=3 WtCom= 9.73D-01 WtEn= 2.71D-02
 Coeff-Com: -0.319D-01 0.327D+00 0.704D+00
 Coeff-En:   0.000D+00 0.000D+00 0.100D+01
 Coeff:     -0.311D-01 0.319D+00 0.713D+00
 Gap=     0.268 Goal=   None    Shift=    0.000
 Gap=     0.168 Goal=   None    Shift=    0.000
 RMSDP=1.69D-04 MaxDP=5.62D-03 DE=-1.03D-01 OVMax= 1.26D-02

 Cycle   4  Pass 0  IDiag  1:
 RMSU=  1.27D-04    CP:  9.98D-01  8.42D-01  8.03D-01
 E= -308.230243638322     Delta-E=       -0.002207173475 Rises=F Damp=F
 DIIS: error= 1.25D-03 at cycle   4 NSaved=   4.
 NSaved= 4 IEnMin= 4 EnMin= -308.230243638322     IErMin= 4 ErrMin= 1.25D-03
 ErrMax= 1.25D-03  0.00D+00 EMaxC= 1.00D-01 BMatC= 5.27D-03 BMatP= 1.52D-02
 IDIUse=3 WtCom= 9.88D-01 WtEn= 1.25D-02
 Coeff-Com: -0.219D-01 0.953D-01 0.407D+00 0.520D+00
 Coeff-En:   0.000D+00 0.000D+00 0.196D+00 0.804D+00
 Coeff:     -0.217D-01 0.941D-01 0.404D+00 0.523D+00
 Gap=     0.266 Goal=   None    Shift=    0.000
 Gap=     0.169 Goal=   None    Shift=    0.000
 RMSDP=7.04D-05 MaxDP=2.49D-03 DE=-2.21D-03 OVMax= 7.27D-03

 Cycle   5  Pass 0  IDiag  1:
 RMSU=  4.42D-05    CP:  9.98D-01  8.42D-01  8.74D-01  6.16D-01
 E= -308.231103325068     Delta-E=       -0.000859686746 Rises=F Damp=F
 DIIS: error= 3.50D-04 at cycle   5 NSaved=   5.
 NSaved= 5 IEnMin= 5 EnMin= -308.231103325068     IErMin= 5 ErrMin= 3.50D-04
 ErrMax= 3.50D-04  0.00D+00 EMaxC= 1.00D-01 BMatC= 3.81D-04 BMatP= 5.27D-03
 IDIUse=3 WtCom= 9.96D-01 WtEn= 3.50D-03
 Coeff-Com: -0.722D-02 0.128D-01 0.126D+00 0.268D+00 0.600D+00
 Coeff-En:   0.000D+00 0.000D+00 0.000D+00 0.000D+00 0.100D+01
 Coeff:     -0.720D-02 0.128D-01 0.126D+00 0.267D+00 0.602D+00
 Gap=     0.266 Goal=   None    Shift=    0.000
 Gap=     0.171 Goal=   None    Shift=    0.000
 RMSDP=2.36D-05 MaxDP=8.77D-04 DE=-8.60D-04 OVMax= 1.82D-03

 Cycle   6  Pass 0  IDiag  1:
 RMSU=  1.46D-05    CP:  9.98D-01  8.35D-01  8.85D-01  6.69D-01  6.63D-01
 E= -308.231161111972     Delta-E=       -0.000057786904 Rises=F Damp=F
 DIIS: error= 1.29D-04 at cycle   6 NSaved=   6.
 NSaved= 6 IEnMin= 6 EnMin= -308.231161111972     IErMin= 6 ErrMin= 1.29D-04
 ErrMax= 1.29D-04  0.00D+00 EMaxC= 1.00D-01 BMatC= 4.35D-05 BMatP= 3.81D-04
 IDIUse=3 WtCom= 9.99D-01 WtEn= 1.29D-03
 Coeff-Com: -0.193D-02-0.206D-02 0.332D-01 0.101D+00 0.323D+00 0.548D+00
 Coeff-En:   0.000D+00 0.000D+00 0.000D+00 0.000D+00 0.000D+00 0.100D+01
 Coeff:     -0.193D-02-0.206D-02 0.331D-01 0.101D+00 0.322D+00 0.548D+00
 Gap=     0.267 Goal=   None    Shift=    0.000
 Gap=     0.170 Goal=   None    Shift=    0.000
 RMSDP=8.34D-06 MaxDP=3.67D-04 DE=-5.78D-05 OVMax= 8.77D-04

 Initial convergence to 1.0D-05 achieved.  Increase integral accuracy.
 Cycle   7  Pass 1  IDiag  1:
 E= -308.231163546742     Delta-E=       -0.000002434771 Rises=F Damp=F
 DIIS: error= 4.70D-05 at cycle   1 NSaved=   1.
 NSaved= 1 IEnMin= 1 EnMin= -308.231163546742     IErMin= 1 ErrMin= 4.70D-05
 ErrMax= 4.70D-05  0.00D+00 EMaxC= 1.00D-01 BMatC= 2.79D-06 BMatP= 2.79D-06
 IDIUse=1 WtCom= 1.00D+00 WtEn= 0.00D+00
 Coeff-Com:  0.100D+01
 Coeff:      0.100D+01
 Gap=     0.267 Goal=   None    Shift=    0.000
 Gap=     0.171 Goal=   None    Shift=    0.000
 RMSDP=8.34D-06 MaxDP=3.67D-04 DE=-2.43D-06 OVMax= 6.11D-04

 Cycle   8  Pass 1  IDiag  1:
 RMSU=  5.07D-06    CP:  1.00D+00
 E= -308.231163795463     Delta-E=       -0.000000248720 Rises=F Damp=F
 DIIS: error= 4.89D-05 at cycle   2 NSaved=   2.
 NSaved= 2 IEnMin= 2 EnMin= -308.231163795463     IErMin= 1 ErrMin= 4.70D-05
 ErrMax= 4.89D-05  0.00D+00 EMaxC= 1.00D-01 BMatC= 3.98D-06 BMatP= 2.79D-06
 IDIUse=1 WtCom= 1.00D+00 WtEn= 0.00D+00
 Coeff-Com:  0.554D+00 0.446D+00
 Coeff:      0.554D+00 0.446D+00
 Gap=     0.267 Goal=   None    Shift=    0.000
 Gap=     0.171 Goal=   None    Shift=    0.000
 RMSDP=2.27D-06 MaxDP=9.68D-05 DE=-2.49D-07 OVMax= 1.87D-04

 Cycle   9  Pass 1  IDiag  1:
 RMSU=  2.07D-06    CP:  1.00D+00  8.14D-01
 E= -308.231164599414     Delta-E=       -0.000000803951 Rises=F Damp=F
 DIIS: error= 9.45D-06 at cycle   3 NSaved=   3.
 NSaved= 3 IEnMin= 3 EnMin= -308.231164599414     IErMin= 3 ErrMin= 9.45D-06
 ErrMax= 9.45D-06  0.00D+00 EMaxC= 1.00D-01 BMatC= 2.46D-07 BMatP= 2.79D-06
 IDIUse=1 WtCom= 1.00D+00 WtEn= 0.00D+00
 Coeff-Com: -0.607D-02 0.150D+00 0.856D+00
 Coeff:     -0.607D-02 0.150D+00 0.856D+00
 Gap=     0.267 Goal=   None    Shift=    0.000
 Gap=     0.171 Goal=   None    Shift=    0.000
 RMSDP=9.03D-07 MaxDP=4.31D-05 DE=-8.04D-07 OVMax= 1.03D-04

 Cycle  10  Pass 1  IDiag  1:
 RMSU=  7.83D-07    CP:  1.00D+00  9.02D-01  9.99D-01
 E= -308.231164664952     Delta-E=       -0.000000065538 Rises=F Damp=F
 DIIS: error= 6.41D-06 at cycle   4 NSaved=   4.
 NSaved= 4 IEnMin= 4 EnMin= -308.231164664952     IErMin= 4 ErrMin= 6.41D-06
 ErrMax= 6.41D-06  0.00D+00 EMaxC= 1.00D-01 BMatC= 1.09D-07 BMatP= 2.46D-07
 IDIUse=1 WtCom= 1.00D+00 WtEn= 0.00D+00
 Coeff-Com: -0.117D+00-0.270D-02 0.500D+00 0.619D+00
 Coeff:     -0.117D+00-0.270D-02 0.500D+00 0.619D+00
 Gap=     0.267 Goal=   None    Shift=    0.000
 Gap=     0.171 Goal=   None    Shift=    0.000
 RMSDP=4.45D-07 MaxDP=2.73D-05 DE=-6.55D-08 OVMax= 6.88D-05

 Cycle  11  Pass 1  IDiag  1:
 RMSU=  3.75D-07    CP:  1.00D+00  9.34D-01  1.08D+00  1.00D+00
 E= -308.231164689882     Delta-E=       -0.000000024929 Rises=F Damp=F
 DIIS: error= 2.11D-06 at cycle   5 NSaved=   5.
 NSaved= 5 IEnMin= 5 EnMin= -308.231164689882     IErMin= 5 ErrMin= 2.11D-06
 ErrMax= 2.11D-06  0.00D+00 EMaxC= 1.00D-01 BMatC= 1.04D-08 BMatP= 1.09D-07
 IDIUse=1 WtCom= 1.00D+00 WtEn= 0.00D+00
 Coeff-Com: -0.463D-01-0.294D-01 0.470D-01 0.260D+00 0.769D+00
 Coeff:     -0.463D-01-0.294D-01 0.470D-01 0.260D+00 0.769D+00
 Gap=     0.267 Goal=   None    Shift=    0.000
 Gap=     0.171 Goal=   None    Shift=    0.000
 RMSDP=1.72D-07 MaxDP=8.09D-06 DE=-2.49D-08 OVMax= 2.28D-05

 Cycle  12  Pass 1  IDiag  1:
 RMSU=  1.15D-07    CP:  1.00D+00  9.43D-01  1.11D+00  1.14D+00  1.01D+00
 E= -308.231164692757     Delta-E=       -0.000000002875 Rises=F Damp=F
 DIIS: error= 7.33D-07 at cycle   6 NSaved=   6.
 NSaved= 6 IEnMin= 6 EnMin= -308.231164692757     IErMin= 6 ErrMin= 7.33D-07
 ErrMax= 7.33D-07  0.00D+00 EMaxC= 1.00D-01 BMatC= 1.18D-09 BMatP= 1.04D-08
 IDIUse=1 WtCom= 1.00D+00 WtEn= 0.00D+00
 Coeff-Com: -0.206D-02-0.111D-01-0.492D-01 0.151D-01 0.304D+00 0.743D+00
 Coeff:     -0.206D-02-0.111D-01-0.492D-01 0.151D-01 0.304D+00 0.743D+00
 Gap=     0.267 Goal=   None    Shift=    0.000
 Gap=     0.171 Goal=   None    Shift=    0.000
 RMSDP=6.28D-08 MaxDP=3.01D-06 DE=-2.87D-09 OVMax= 5.46D-06

 Cycle  13  Pass 1  IDiag  1:
 RMSU=  4.10D-08    CP:  1.00D+00  9.45D-01  1.12D+00  1.18D+00  1.07D+00
                    CP:  8.15D-01
 E= -308.231164693034     Delta-E=       -0.000000000278 Rises=F Damp=F
 DIIS: error= 3.72D-07 at cycle   7 NSaved=   7.
 NSaved= 7 IEnMin= 7 EnMin= -308.231164693034     IErMin= 7 ErrMin= 3.72D-07
 ErrMax= 3.72D-07  0.00D+00 EMaxC= 1.00D-01 BMatC= 2.58D-10 BMatP= 1.18D-09
 IDIUse=1 WtCom= 1.00D+00 WtEn= 0.00D+00
 Coeff-Com:  0.306D-02-0.335D-02-0.310D-01-0.154D-01 0.963D-01 0.407D+00
 Coeff-Com:  0.543D+00
 Coeff:      0.306D-02-0.335D-02-0.310D-01-0.154D-01 0.963D-01 0.407D+00
 Coeff:      0.543D+00
 Gap=     0.267 Goal=   None    Shift=    0.000
 Gap=     0.171 Goal=   None    Shift=    0.000
 RMSDP=2.32D-08 MaxDP=8.17D-07 DE=-2.78D-10 OVMax= 1.77D-06

 Cycle  14  Pass 1  IDiag  1:
 RMSU=  1.65D-08    CP:  1.00D+00  9.45D-01  1.12D+00  1.18D+00  1.08D+00
                    CP:  8.84D-01  6.81D-01
 E= -308.231164693088     Delta-E=       -0.000000000054 Rises=F Damp=F
 DIIS: error= 5.84D-08 at cycle   8 NSaved=   8.
 NSaved= 8 IEnMin= 8 EnMin= -308.231164693088     IErMin= 8 ErrMin= 5.84D-08
 ErrMax= 5.84D-08  0.00D+00 EMaxC= 1.00D-01 BMatC= 8.62D-12 BMatP= 2.58D-10
 IDIUse=1 WtCom= 1.00D+00 WtEn= 0.00D+00
 Coeff-Com:  0.750D-03 0.788D-03 0.662D-03-0.466D-02-0.195D-01-0.134D-01
 Coeff-Com:  0.994D-01 0.936D+00
 Coeff:      0.750D-03 0.788D-03 0.662D-03-0.466D-02-0.195D-01-0.134D-01
 Coeff:      0.994D-01 0.936D+00
 Gap=     0.267 Goal=   None    Shift=    0.000
 Gap=     0.171 Goal=   None    Shift=    0.000
 RMSDP=8.43D-09 MaxDP=4.47D-07 DE=-5.40D-11 OVMax= 8.37D-07

 SCF Done:  E(UB3LYP) =  -308.231164693     A.U. after   14 cycles
            NFock= 14  Conv=0.84D-08     -V/T= 2.0067
 <Sx>= 0.0000 <Sy>= 0.0000 <Sz>= 0.5000 <S**2>= 0.7531 S= 0.5015
 <L.S>=  0.00000000000    
 KE= 3.061741799730D+02 PE=-1.244642137868D+03 EE= 3.681360744859D+02
 Annihilation of the first spin contaminant:
 S**2 before annihilation     0.7531,   after     0.7500
 Leave Link  502 at Mon Apr 11 19:50:16 2022, MaxMem=  1073741824 cpu:             421.5 elap:              52.7
 (Enter /home/saurabh/gaussian/g16/l801.exe)
 DoSCS=F DFT=T ScalE2(SS,OS)=  1.000000  1.000000
 Range of M.O.s used for correlation:     1   306
 NBasis=   306 NAE=    25 NBE=    24 NFC=     0 NFV=     0
 NROrb=    306 NOA=    25 NOB=    24 NVA=   281 NVB=   282

 **** Warning!!: The largest alpha MO coefficient is  0.10923036D+02


 **** Warning!!: The largest beta MO coefficient is  0.10934857D+02

 Leave Link  801 at Mon Apr 11 19:50:16 2022, MaxMem=  1073741824 cpu:               0.2 elap:               0.0
 (Enter /home/saurabh/gaussian/g16/l1101.exe)
 Using compressed storage, NAtomX=    15.
 Will process     16 centers per pass.
 Leave Link 1101 at Mon Apr 11 19:50:16 2022, MaxMem=  1073741824 cpu:               2.5 elap:               0.3
 (Enter /home/saurabh/gaussian/g16/l1102.exe)
 Symmetrizing basis deriv contribution to polar:
 IMax=3 JMax=2 DiffMx= 0.00D+00
 Leave Link 1102 at Mon Apr 11 19:50:16 2022, MaxMem=  1073741824 cpu:               0.3 elap:               0.1
 (Enter /home/saurabh/gaussian/g16/l1110.exe)
 Forming Gx(P) for the SCF density, NAtomX=    15.
 Integral derivatives from FoFJK, PRISM(SPDF).
 Do as many integral derivatives as possible in FoFJK.
 G2DrvN: MDV=    1073740143.
 G2DrvN: will do    16 centers at a time, making    1 passes.
 Calling FoFCou, ICntrl=  3107 FMM=F I1Cent=   0 AccDes= 0.00D+00.
 FoFJK:  IHMeth= 1 ICntrl=    3107 DoSepK=F KAlg= 0 I1Cent=           0 FoldK=F
 IRaf=         0 NMat=       1 IRICut=       1 DoRegI=T DoRafI=F ISym2E= 0 IDoP0=0 IntGTp=1.
 FoFCou: FMM=F IPFlag=           0 FMFlag=      100000 FMFlg1=           0
         NFxFlg=           0 DoJE=F BraDBF=F KetDBF=F FulRan=T
         wScrn=  0.000000 ICntrl=      3107 IOpCl=  1 I1Cent=           0 NGrid=           0
         NMat0=    1 NMatS0=      1 NMatT0=    0 NMatD0=    1 NMtDS0=    0 NMtDT0=    0
 Symmetry not used in FoFCou.
 End of G2Drv F.D. properties file   721 does not exist.
 End of G2Drv F.D. properties file   722 does not exist.
 End of G2Drv F.D. properties file   788 does not exist.
 Leave Link 1110 at Mon Apr 11 19:51:45 2022, MaxMem=  1073741824 cpu:             707.4 elap:              88.4
 (Enter /home/saurabh/gaussian/g16/l1002.exe)
 Minotr:  UHF open shell wavefunction.
          IDoAtm=111111111111111
          Direct CPHF calculation.
          Differentiating once with respect to nuclear coordinates.
          Requested convergence is 1.0D-08 RMS, and 1.0D-07 maximum.
          Secondary convergence is 1.0D-12 RMS, and 1.0D-12 maximum.
          NewPWx=T KeepS1=F KeepF1=F KeepIn=T MapXYZ=F SortEE=F KeepMc=T.
         4450 words used for storage of precomputed grid.
 Two-electron integrals replicated using symmetry.
          MDV=    1073741824 using IRadAn=       1.
          Solving linear equations simultaneously, MaxMat=     384.
 FoF2E skips out because all densities are zero.
 CalDSu exits because no D1Ps are significant.
 FoFJK:  IHMeth= 1 ICntrl=       0 DoSepK=F KAlg= 0 I1Cent=           0 FoldK=F
 IRaf= 980000000 NMat=      45 IRICut=     112 DoRegI=T DoRafI=T ISym2E= 2 IDoP0=3 IntGTp=3.
 FoFCou: FMM=F IPFlag=           0 FMFlag=      100000 FMFlg1=           0
         NFxFlg=           0 DoJE=F BraDBF=F KetDBF=F FulRan=T
         wScrn=  0.000000 ICntrl=         0 IOpCl=  1 I1Cent=           0 NGrid=           0
         NMat0=   45 NMatS0=     45 NMatT0=    0 NMatD0=   45 NMtDS0=    0 NMtDT0=    0
 Integrals replicated using symmetry in FoFCou.
 Raff kept on since  96.06% of shell-pairs survive, threshold=   0.20 IRatSp=96.
          There are    48 degrees of freedom in the 1st order CPHF.  IDoFFX=6 NUNeed=     0.
     42 vectors produced by pass  0 Test12= 2.87D-14 2.08D-09 XBig12= 2.39D-01 1.31D-01.
 AX will form    42 AO Fock derivatives at one time.
     42 vectors produced by pass  1 Test12= 2.87D-14 2.08D-09 XBig12= 4.18D-02 2.01D-02.
     42 vectors produced by pass  2 Test12= 2.87D-14 2.08D-09 XBig12= 7.03D-04 5.35D-03.
     42 vectors produced by pass  3 Test12= 2.87D-14 2.08D-09 XBig12= 4.96D-06 2.41D-04.
     42 vectors produced by pass  4 Test12= 2.87D-14 2.08D-09 XBig12= 3.17D-08 1.85D-05.
     42 vectors produced by pass  5 Test12= 2.87D-14 2.08D-09 XBig12= 1.67D-10 1.52D-06.
     27 vectors produced by pass  6 Test12= 2.87D-14 2.08D-09 XBig12= 8.23D-13 8.48D-08.
      7 vectors produced by pass  7 Test12= 2.87D-14 2.08D-09 XBig12= 3.55D-15 5.35D-09.
 InvSVY:  IOpt=1 It=  1 EMax= 1.33D-15
 Solved reduced A of dimension   286 with    42 vectors.
 End of Minotr F.D. properties file   721 does not exist.
 End of Minotr F.D. properties file   722 does not exist.
 End of Minotr F.D. properties file   788 does not exist.
 Leave Link 1002 at Mon Apr 11 19:55:04 2022, MaxMem=  1073741824 cpu:            1592.3 elap:             199.1
 (Enter /home/saurabh/gaussian/g16/l601.exe)
 Copying SCF densities to generalized density rwf, IOpCl= 1 IROHF=0.

 **********************************************************************

            Population analysis using the SCF Density.

 **********************************************************************

 Orbital symmetries:
 Alpha Orbitals:
       Occupied  (A) (A) (A) (A) (A) (A) (A) (A) (A) (A) (A) (A)
                 (A) (A) (A) (A) (A) (A) (A) (A) (A) (A) (A) (A)
                 (A)
       Virtual   (A) (A) (A) (A) (A) (A) (A) (A) (A) (A) (A) (A)
                 (A) (A) (A) (A) (A) (A) (A) (A) (A) (A) (A) (A)
                 (A) (A) (A) (A) (A) (A) (A) (A) (A) (A) (A) (A)
                 (A) (A) (A) (A) (A) (A) (A) (A) (A) (A) (A) (A)
                 (A) (A) (A) (A) (A) (A) (A) (A) (A) (A) (A) (A)
                 (A) (A) (A) (A) (A) (A) (A) (A) (A) (A) (A) (A)
                 (A) (A) (A) (A) (A) (A) (A) (A) (A) (A) (A) (A)
                 (A) (A) (A) (A) (A) (A) (A) (A) (A) (A) (A) (A)
                 (A) (A) (A) (A) (A) (A) (A) (A) (A) (A) (A) (A)
                 (A) (A) (A) (A) (A) (A) (A) (A) (A) (A) (A) (A)
                 (A) (A) (A) (A) (A) (A) (A) (A) (A) (A) (A) (A)
                 (A) (A) (A) (A) (A) (A) (A) (A) (A) (A) (A) (A)
                 (A) (A) (A) (A) (A) (A) (A) (A) (A) (A) (A) (A)
                 (A) (A) (A) (A) (A) (A) (A) (A) (A) (A) (A) (A)
                 (A) (A) (A) (A) (A) (A) (A) (A) (A) (A) (A) (A)
                 (A) (A) (A) (A) (A) (A) (A) (A) (A) (A) (A) (A)
                 (A) (A) (A) (A) (A) (A) (A) (A) (A) (A) (A) (A)
                 (A) (A) (A) (A) (A) (A) (A) (A) (A) (A) (A) (A)
                 (A) (A) (A) (A) (A) (A) (A) (A) (A) (A) (A) (A)
                 (A) (A) (A) (A) (A) (A) (A) (A) (A) (A) (A) (A)
                 (A) (A) (A) (A) (A) (A) (A) (A) (A) (A) (A) (A)
                 (A) (A) (A) (A) (A) (A) (A) (A) (A) (A) (A) (A)
                 (A) (A) (A) (A) (A) (A) (A) (A) (A) (A) (A) (A)
                 (A) (A) (A) (A) (A)
 Beta  Orbitals:
       Occupied  (A) (A) (A) (A) (A) (A) (A) (A) (A) (A) (A) (A)
                 (A) (A) (A) (A) (A) (A) (A) (A) (A) (A) (A) (A)
       Virtual   (A) (A) (A) (A) (A) (A) (A) (A) (A) (A) (A) (A)
                 (A) (A) (A) (A) (A) (A) (A) (A) (A) (A) (A) (A)
                 (A) (A) (A) (A) (A) (A) (A) (A) (A) (A) (A) (A)
                 (A) (A) (A) (A) (A) (A) (A) (A) (A) (A) (A) (A)
                 (A) (A) (A) (A) (A) (A) (A) (A) (A) (A) (A) (A)
                 (A) (A) (A) (A) (A) (A) (A) (A) (A) (A) (A) (A)
                 (A) (A) (A) (A) (A) (A) (A) (A) (A) (A) (A) (A)
                 (A) (A) (A) (A) (A) (A) (A) (A) (A) (A) (A) (A)
                 (A) (A) (A) (A) (A) (A) (A) (A) (A) (A) (A) (A)
                 (A) (A) (A) (A) (A) (A) (A) (A) (A) (A) (A) (A)
                 (A) (A) (A) (A) (A) (A) (A) (A) (A) (A) (A) (A)
                 (A) (A) (A) (A) (A) (A) (A) (A) (A) (A) (A) (A)
                 (A) (A) (A) (A) (A) (A) (A) (A) (A) (A) (A) (A)
                 (A) (A) (A) (A) (A) (A) (A) (A) (A) (A) (A) (A)
                 (A) (A) (A) (A) (A) (A) (A) (A) (A) (A) (A) (A)
                 (A) (A) (A) (A) (A) (A) (A) (A) (A) (A) (A) (A)
                 (A) (A) (A) (A) (A) (A) (A) (A) (A) (A) (A) (A)
                 (A) (A) (A) (A) (A) (A) (A) (A) (A) (A) (A) (A)
                 (A) (A) (A) (A) (A) (A) (A) (A) (A) (A) (A) (A)
                 (A) (A) (A) (A) (A) (A) (A) (A) (A) (A) (A) (A)
                 (A) (A) (A) (A) (A) (A) (A) (A) (A) (A) (A) (A)
                 (A) (A) (A) (A) (A) (A) (A) (A) (A) (A) (A) (A)
                 (A) (A) (A) (A) (A) (A) (A) (A) (A) (A) (A) (A)
                 (A) (A) (A) (A) (A) (A)
 The electronic state is 2-A.
 Alpha  occ. eigenvalues --  -19.18025 -19.17938 -10.24289 -10.19810 -10.18168
 Alpha  occ. eigenvalues --  -10.16634  -1.18007  -0.90698  -0.78202  -0.69177
 Alpha  occ. eigenvalues --   -0.68493  -0.58921  -0.53003  -0.48651  -0.47613
 Alpha  occ. eigenvalues --   -0.43137  -0.42452  -0.40203  -0.38922  -0.38367
 Alpha  occ. eigenvalues --   -0.35427  -0.34741  -0.29522  -0.25780  -0.24299
 Alpha virt. eigenvalues --    0.02369   0.03898   0.07098   0.08030   0.08806
 Alpha virt. eigenvalues --    0.09793   0.11837   0.13364   0.13971   0.14818
 Alpha virt. eigenvalues --    0.15210   0.18253   0.19454   0.20833   0.24862
 Alpha virt. eigenvalues --    0.26033   0.28273   0.30310   0.32177   0.34047
 Alpha virt. eigenvalues --    0.35158   0.36691   0.38731   0.39107   0.40704
 Alpha virt. eigenvalues --    0.43745   0.44408   0.44674   0.45696   0.45939
 Alpha virt. eigenvalues --    0.46383   0.46543   0.47895   0.48333   0.48983
 Alpha virt. eigenvalues --    0.49978   0.52901   0.58693   0.61463   0.63328
 Alpha virt. eigenvalues --    0.63674   0.68007   0.69850   0.71059   0.75071
 Alpha virt. eigenvalues --    0.76099   0.78589   0.79665   0.80639   0.83964
 Alpha virt. eigenvalues --    0.86015   0.89632   0.89826   0.91899   0.92121
 Alpha virt. eigenvalues --    0.93955   0.95720   0.96589   0.98478   1.01091
 Alpha virt. eigenvalues --    1.02959   1.04898   1.07402   1.07983   1.09264
 Alpha virt. eigenvalues --    1.12700   1.13282   1.16010   1.19744   1.20372
 Alpha virt. eigenvalues --    1.21997   1.22994   1.24800   1.25253   1.25995
 Alpha virt. eigenvalues --    1.28596   1.29170   1.31251   1.32385   1.35669
 Alpha virt. eigenvalues --    1.36156   1.38638   1.39966   1.41291   1.45726
 Alpha virt. eigenvalues --    1.46466   1.49598   1.50431   1.51938   1.53492
 Alpha virt. eigenvalues --    1.54656   1.58792   1.59802   1.64112   1.67580
 Alpha virt. eigenvalues --    1.75432   1.81967   1.93445   2.00051   2.03351
 Alpha virt. eigenvalues --    2.05494   2.14513   2.18767   2.19143   2.22561
 Alpha virt. eigenvalues --    2.24791   2.29530   2.31928   2.32539   2.38217
 Alpha virt. eigenvalues --    2.43210   2.44487   2.47975   2.49456   2.53195
 Alpha virt. eigenvalues --    2.53836   2.54684   2.57039   2.57869   2.60884
 Alpha virt. eigenvalues --    2.66962   2.68135   2.71520   2.73572   2.75914
 Alpha virt. eigenvalues --    2.77800   2.78311   2.79551   2.80077   2.83366
 Alpha virt. eigenvalues --    2.84339   2.86835   2.88943   2.93347   2.95146
 Alpha virt. eigenvalues --    2.96991   2.99835   2.99941   3.00894   3.04382
 Alpha virt. eigenvalues --    3.05539   3.07292   3.10276   3.10560   3.11417
 Alpha virt. eigenvalues --    3.13087   3.14697   3.16947   3.19094   3.21417
 Alpha virt. eigenvalues --    3.24422   3.25733   3.27588   3.28844   3.30260
 Alpha virt. eigenvalues --    3.31070   3.32907   3.35369   3.36922   3.37941
 Alpha virt. eigenvalues --    3.41393   3.42187   3.43549   3.44520   3.47243
 Alpha virt. eigenvalues --    3.49640   3.51036   3.53609   3.56117   3.57744
 Alpha virt. eigenvalues --    3.60682   3.63796   3.64533   3.65795   3.67805
 Alpha virt. eigenvalues --    3.69655   3.70726   3.71831   3.72885   3.74846
 Alpha virt. eigenvalues --    3.77909   3.79362   3.81791   3.85410   3.86848
 Alpha virt. eigenvalues --    3.89087   3.91848   3.94117   3.95933   3.96449
 Alpha virt. eigenvalues --    4.00008   4.00365   4.03815   4.04107   4.06652
 Alpha virt. eigenvalues --    4.07970   4.09667   4.10799   4.11642   4.12579
 Alpha virt. eigenvalues --    4.14332   4.14994   4.16026   4.18047   4.22844
 Alpha virt. eigenvalues --    4.24889   4.26247   4.29174   4.29642   4.32953
 Alpha virt. eigenvalues --    4.37518   4.39306   4.40245   4.45718   4.50935
 Alpha virt. eigenvalues --    4.55692   4.59988   4.64997   4.72022   4.73511
 Alpha virt. eigenvalues --    4.74196   4.76556   4.78238   4.79410   4.82107
 Alpha virt. eigenvalues --    4.82609   4.86676   4.91987   4.93090   4.99584
 Alpha virt. eigenvalues --    5.01373   5.04652   5.07662   5.09087   5.11939
 Alpha virt. eigenvalues --    5.12736   5.14305   5.16274   5.17246   5.20990
 Alpha virt. eigenvalues --    5.22407   5.23399   5.25912   5.26645   5.30164
 Alpha virt. eigenvalues --    5.30723   5.33967   5.39449   5.43371   5.47463
 Alpha virt. eigenvalues --    5.55151   5.71401   5.81623   5.82518   5.84417
 Alpha virt. eigenvalues --    5.86622   5.92793   5.96112   6.04902   6.07827
 Alpha virt. eigenvalues --    6.27500   6.36995   6.40206   6.50721   6.54131
 Alpha virt. eigenvalues --    6.62501   6.67695   6.80980   6.82051   6.95241
 Alpha virt. eigenvalues --    6.98392   7.22021   7.37241   7.52302   7.80546
 Alpha virt. eigenvalues --    9.65840  10.89750  11.75353  11.79869  13.17007
 Alpha virt. eigenvalues --   13.23680
  Beta  occ. eigenvalues --  -19.17982 -19.17938 -10.24307 -10.18332 -10.18076
  Beta  occ. eigenvalues --  -10.16616  -1.17965  -0.90558  -0.77552  -0.69029
  Beta  occ. eigenvalues --   -0.66267  -0.58554  -0.52852  -0.48181  -0.47341
  Beta  occ. eigenvalues --   -0.42659  -0.41911  -0.39978  -0.38835  -0.37800
  Beta  occ. eigenvalues --   -0.35198  -0.34074  -0.29307  -0.25502
  Beta virt. eigenvalues --   -0.08438   0.02521   0.04017   0.07324   0.08175
  Beta virt. eigenvalues --    0.09111   0.09941   0.12082   0.13529   0.14152
  Beta virt. eigenvalues --    0.14945   0.15465   0.18322   0.20013   0.21038
  Beta virt. eigenvalues --    0.25248   0.26583   0.28677   0.31816   0.32570
  Beta virt. eigenvalues --    0.34614   0.36515   0.37478   0.39189   0.39424
  Beta virt. eigenvalues --    0.41107   0.44564   0.44601   0.44913   0.46117
  Beta virt. eigenvalues --    0.46251   0.46673   0.46976   0.48476   0.48709
  Beta virt. eigenvalues --    0.49304   0.50147   0.53448   0.58945   0.62078
  Beta virt. eigenvalues --    0.63704   0.63928   0.68193   0.70199   0.71444
  Beta virt. eigenvalues --    0.75378   0.76415   0.78788   0.79952   0.81255
  Beta virt. eigenvalues --    0.84252   0.86447   0.89722   0.90729   0.92158
  Beta virt. eigenvalues --    0.92305   0.94101   0.95959   0.96767   0.98701
  Beta virt. eigenvalues --    1.01742   1.03452   1.05300   1.07884   1.08270
  Beta virt. eigenvalues --    1.10320   1.13099   1.13996   1.16408   1.19995
  Beta virt. eigenvalues --    1.20570   1.23056   1.23226   1.25036   1.25894
  Beta virt. eigenvalues --    1.26633   1.28786   1.29547   1.31718   1.32622
  Beta virt. eigenvalues --    1.36112   1.36861   1.38764   1.40344   1.41779
  Beta virt. eigenvalues --    1.46034   1.46678   1.49938   1.50734   1.52440
  Beta virt. eigenvalues --    1.54016   1.55306   1.59504   1.60169   1.64432
  Beta virt. eigenvalues --    1.67748   1.75702   1.82152   1.94012   2.00487
  Beta virt. eigenvalues --    2.03473   2.05700   2.15154   2.19339   2.21018
  Beta virt. eigenvalues --    2.23611   2.25175   2.30149   2.32621   2.32794
  Beta virt. eigenvalues --    2.39003   2.43758   2.45491   2.48409   2.49878
  Beta virt. eigenvalues --    2.53479   2.54492   2.55675   2.57564   2.58671
  Beta virt. eigenvalues --    2.61199   2.67801   2.69116   2.72903   2.74504
  Beta virt. eigenvalues --    2.76159   2.78137   2.78614   2.80162   2.80450
  Beta virt. eigenvalues --    2.84014   2.85998   2.87625   2.89686   2.94667
  Beta virt. eigenvalues --    2.95739   2.98239   3.00420   3.00867   3.02310
  Beta virt. eigenvalues --    3.05380   3.06443   3.07794   3.10785   3.11040
  Beta virt. eigenvalues --    3.11984   3.13861   3.15078   3.17960   3.20191
  Beta virt. eigenvalues --    3.21735   3.25263   3.26908   3.28251   3.29109
  Beta virt. eigenvalues --    3.30565   3.31636   3.33395   3.36031   3.37293
  Beta virt. eigenvalues --    3.38262   3.41562   3.42528   3.43807   3.45042
  Beta virt. eigenvalues --    3.47463   3.50045   3.51586   3.53769   3.56686
  Beta virt. eigenvalues --    3.58220   3.61293   3.64142   3.64948   3.66176
  Beta virt. eigenvalues --    3.68039   3.70051   3.71092   3.72224   3.73430
  Beta virt. eigenvalues --    3.75418   3.78045   3.79672   3.82055   3.85803
  Beta virt. eigenvalues --    3.87484   3.89566   3.92133   3.94312   3.96436
  Beta virt. eigenvalues --    3.96900   4.00169   4.00541   4.03977   4.04357
  Beta virt. eigenvalues --    4.06970   4.08185   4.09836   4.10923   4.11951
  Beta virt. eigenvalues --    4.12671   4.14780   4.15165   4.16165   4.18237
  Beta virt. eigenvalues --    4.23029   4.25268   4.26333   4.29451   4.29994
  Beta virt. eigenvalues --    4.33398   4.37630   4.39452   4.40748   4.46009
  Beta virt. eigenvalues --    4.51191   4.55941   4.60145   4.65229   4.72276
  Beta virt. eigenvalues --    4.73796   4.74518   4.77457   4.78849   4.80168
  Beta virt. eigenvalues --    4.82487   4.82866   4.87136   4.92305   4.94083
  Beta virt. eigenvalues --    4.99794   5.01597   5.04831   5.07923   5.09333
  Beta virt. eigenvalues --    5.12113   5.13019   5.14630   5.16445   5.17615
  Beta virt. eigenvalues --    5.21557   5.22696   5.23498   5.26238   5.26893
  Beta virt. eigenvalues --    5.30267   5.30926   5.34045   5.39542   5.43715
  Beta virt. eigenvalues --    5.47736   5.55314   5.71479   5.82294   5.82589
  Beta virt. eigenvalues --    5.84649   5.86764   5.92869   5.96258   6.04959
  Beta virt. eigenvalues --    6.07886   6.27563   6.37088   6.40257   6.50800
  Beta virt. eigenvalues --    6.54212   6.62539   6.67747   6.81015   6.82084
  Beta virt. eigenvalues --    6.95271   6.98434   7.22055   7.37267   7.52328
  Beta virt. eigenvalues --    7.80566   9.66076  10.89998  11.76555  11.80236
  Beta virt. eigenvalues --   13.17045  13.23782
          Condensed to atoms (all electrons):
               1          2          3          4          5          6
     1  C    5.352557   0.289981  -0.051767  -0.076995   0.385756   0.380152
     2  C    0.289981   4.755064   0.353544   0.343751  -0.034565  -0.042459
     3  C   -0.051767   0.353544   4.889864  -0.052691  -0.000037  -0.003370
     4  C   -0.076995   0.343751  -0.052691   4.962651  -0.001585   0.009171
     5  H    0.385756  -0.034565  -0.000037  -0.001585   0.589978  -0.036465
     6  H    0.380152  -0.042459  -0.003370   0.009171  -0.036465   0.591103
     7  H   -0.001552  -0.037532   0.398206   0.000405   0.000588   0.000295
     8  H    0.011131  -0.029180   0.386111  -0.009810  -0.000417  -0.000602
     9  H   -0.007501  -0.029813   0.387309   0.010290   0.000604   0.005577
    10  O   -0.071570   0.355743  -0.033019  -0.064578   0.003817   0.005197
    11  H    0.008865  -0.033205  -0.004099   0.386690  -0.000326  -0.000649
    12  H    0.000290  -0.027205  -0.005328   0.384557  -0.000732  -0.000337
    13  H   -0.001577  -0.031088   0.007980   0.397866   0.000695   0.000063
    14  O    0.029816  -0.084604   0.005742  -0.007660   0.001221  -0.000956
    15  H    0.011131  -0.009940  -0.001064  -0.000911  -0.000301  -0.000592
               7          8          9         10         11         12
     1  C   -0.001552   0.011131  -0.007501  -0.071570   0.008865   0.000290
     2  C   -0.037532  -0.029180  -0.029813   0.355743  -0.033205  -0.027205
     3  C    0.398206   0.386111   0.387309  -0.033019  -0.004099  -0.005328
     4  C    0.000405  -0.009810   0.010290  -0.064578   0.386690   0.384557
     5  H    0.000588  -0.000417   0.000604   0.003817  -0.000326  -0.000732
     6  H    0.000295  -0.000602   0.005577   0.005197  -0.000649  -0.000337
     7  H    0.601933  -0.027583  -0.027908   0.002407  -0.000040   0.000393
     8  H   -0.027583   0.593057  -0.026920   0.003370   0.004473   0.000761
     9  H   -0.027908  -0.026920   0.597803   0.002698  -0.000403  -0.000282
    10  O    0.002407   0.003370   0.002698   7.969844   0.005738   0.004461
    11  H   -0.000040   0.004473  -0.000403   0.005738   0.600937  -0.027165
    12  H    0.000393   0.000761  -0.000282   0.004461  -0.027165   0.624280
    13  H    0.000075  -0.000293  -0.000470  -0.007293  -0.025756  -0.030745
    14  O   -0.000304  -0.000111  -0.000391   0.040702  -0.001065   0.000054
    15  H    0.000032   0.000078  -0.000147  -0.034092   0.000201   0.000020
              13         14         15
     1  C   -0.001577   0.029816   0.011131
     2  C   -0.031088  -0.084604  -0.009940
     3  C    0.007980   0.005742  -0.001064
     4  C    0.397866  -0.007660  -0.000911
     5  H    0.000695   0.001221  -0.000301
     6  H    0.000063  -0.000956  -0.000592
     7  H    0.000075  -0.000304   0.000032
     8  H   -0.000293  -0.000111   0.000078
     9  H   -0.000470  -0.000391  -0.000147
    10  O   -0.007293   0.040702  -0.034092
    11  H   -0.025756  -0.001065   0.000201
    12  H   -0.030745   0.000054   0.000020
    13  H    0.574423   0.015545  -0.001236
    14  O    0.015545   7.895463   0.323382
    15  H   -0.001236   0.323382   0.483752
          Atomic-Atomic Spin Densities.
               1          2          3          4          5          6
     1  C    1.043979  -0.036583  -0.030428  -0.004300   0.006441   0.006400
     2  C   -0.036583  -0.003516   0.021515   0.005010   0.001689  -0.000215
     3  C   -0.030428   0.021515   0.048945  -0.000673  -0.002617  -0.003326
     4  C   -0.004300   0.005010  -0.000673   0.005258  -0.000039   0.000006
     5  H    0.006441   0.001689  -0.002617  -0.000039  -0.028815   0.005819
     6  H    0.006400  -0.000215  -0.003326   0.000006   0.005819  -0.020595
     7  H    0.000221   0.000418   0.000195   0.000104   0.000105   0.000015
     8  H    0.004929  -0.007692  -0.006270  -0.000030   0.000295   0.000397
     9  H    0.002527  -0.000892  -0.002461  -0.000001   0.000110   0.000369
    10  O    0.000459   0.001086  -0.002403   0.000383  -0.000074   0.000502
    11  H   -0.000173   0.000033   0.000922   0.000447  -0.000049   0.000006
    12  H    0.000036   0.000282   0.000189  -0.000084   0.000059  -0.000023
    13  H    0.003247  -0.001448   0.000440  -0.001174  -0.000206  -0.000122
    14  O   -0.007656   0.000317  -0.000162   0.000371   0.000042   0.000312
    15  H    0.000459  -0.000108   0.000118  -0.000038   0.000002  -0.000130
               7          8          9         10         11         12
     1  C    0.000221   0.004929   0.002527   0.000459  -0.000173   0.000036
     2  C    0.000418  -0.007692  -0.000892   0.001086   0.000033   0.000282
     3  C    0.000195  -0.006270  -0.002461  -0.002403   0.000922   0.000189
     4  C    0.000104  -0.000030  -0.000001   0.000383   0.000447  -0.000084
     5  H    0.000105   0.000295   0.000110  -0.000074  -0.000049   0.000059
     6  H    0.000015   0.000397   0.000369   0.000502   0.000006  -0.000023
     7  H   -0.001918   0.000333   0.000329   0.000008  -0.000001  -0.000006
     8  H    0.000333   0.027295   0.001761   0.000740  -0.000906  -0.000090
     9  H    0.000329   0.001761  -0.002309   0.000110  -0.000003  -0.000005
    10  O    0.000008   0.000740   0.000110  -0.001196  -0.000268  -0.000024
    11  H   -0.000001  -0.000906  -0.000003  -0.000268  -0.001555  -0.000078
    12  H   -0.000006  -0.000090  -0.000005  -0.000024  -0.000078  -0.000133
    13  H   -0.000015  -0.000197  -0.000018  -0.000061   0.000575   0.000343
    14  O    0.000006  -0.000048   0.000004   0.000321   0.000022  -0.000014
    15  H   -0.000001  -0.000029  -0.000003   0.000122  -0.000006   0.000001
              13         14         15
     1  C    0.003247  -0.007656   0.000459
     2  C   -0.001448   0.000317  -0.000108
     3  C    0.000440  -0.000162   0.000118
     4  C   -0.001174   0.000371  -0.000038
     5  H   -0.000206   0.000042   0.000002
     6  H   -0.000122   0.000312  -0.000130
     7  H   -0.000015   0.000006  -0.000001
     8  H   -0.000197  -0.000048  -0.000029
     9  H   -0.000018   0.000004  -0.000003
    10  O   -0.000061   0.000321   0.000122
    11  H    0.000575   0.000022  -0.000006
    12  H    0.000343  -0.000014   0.000001
    13  H    0.000303  -0.000477   0.000043
    14  O   -0.000477   0.015457   0.000460
    15  H    0.000043   0.000460  -0.000853
 Mulliken charges and spin densities:
               1          2
     1  C   -0.258716   0.989557
     2  C    0.261509  -0.020104
     3  C   -0.277381   0.023986
     4  C   -0.281152   0.005240
     5  H    0.091770  -0.017237
     6  H    0.093873  -0.010585
     7  H    0.090584  -0.000206
     8  H    0.095934   0.020488
     9  H    0.089556  -0.000484
    10  O   -0.183424  -0.000295
    11  H    0.085804  -0.001035
    12  H    0.076978   0.000452
    13  H    0.101812   0.001232
    14  O   -0.216833   0.008955
    15  H    0.229686   0.000037
 Sum of Mulliken charges =  -0.00000   1.00000
 Mulliken charges and spin densities with hydrogens summed into heavy atoms:
               1          2
     1  C   -0.073073   0.961735
     2  C    0.261509  -0.020104
     3  C   -0.001307   0.043784
     4  C   -0.016558   0.005889
    10  O   -0.183424  -0.000295
    14  O    0.012854   0.008992
 APT charges:
               1
     1  C   -0.740897
     2  C    0.038775
     3  C   -1.013850
     4  C   -0.989979
     5  H    0.372451
     6  H    0.322970
     7  H    0.379265
     8  H    0.338444
     9  H    0.327514
    10  O    0.006081
    11  H    0.323597
    12  H    0.362549
    13  H    0.314775
    14  O   -0.620646
    15  H    0.578953
 Sum of APT charges =  -0.00000
 APT charges with hydrogens summed into heavy atoms:
               1
     1  C   -0.045477
     2  C    0.038775
     3  C    0.031373
     4  C    0.010941
    10  O    0.006081
    14  O   -0.041693
 Electronic spatial extent (au):  <R**2>=            580.3933
 Charge=             -0.0000 electrons
 Dipole moment (field-independent basis, Debye):
    X=              0.9585    Y=             -1.0856    Z=              0.6117  Tot=              1.5721
 Quadrupole moment (field-independent basis, Debye-Ang):
   XX=            -35.3706   YY=            -36.8477   ZZ=            -40.2892
   XY=              2.9886   XZ=             -0.8176   YZ=             -0.3891
 Traceless Quadrupole moment (field-independent basis, Debye-Ang):
   XX=              2.1319   YY=              0.6548   ZZ=             -2.7867
   XY=              2.9886   XZ=             -0.8176   YZ=             -0.3891
 Octapole moment (field-independent basis, Debye-Ang**2):
  XXX=            -19.7298  YYY=             -4.5355  ZZZ=             -7.3594  XYY=             -7.4589
  XXY=             -8.6298  XXZ=              2.0628  XZZ=             -0.5994  YZZ=              1.5551
  YYZ=             -1.8562  XYZ=              0.1309
 Hexadecapole moment (field-independent basis, Debye-Ang**3):
 XXXX=           -320.7327 YYYY=           -222.2243 ZZZZ=           -200.9529 XXXY=             24.9447
 XXXZ=              2.0538 YYYX=              3.0832 YYYZ=              0.8346 ZZZX=              4.8219
 ZZZY=              1.9925 XXYY=            -90.5879 XXZZ=            -89.8689 YYZZ=            -70.0168
 XXYZ=              0.7136 YYXZ=             -0.2148 ZZXY=              0.2116
 N-N= 2.621007187165D+02 E-N=-1.244642111188D+03  KE= 3.061741799730D+02
  Exact polarizability:       0.000       0.000       0.000       0.000       0.000       0.000
 Approx polarizability:      84.274       2.152      78.953      -1.723      -1.440      79.384
                          Isotropic Fermi Contact Couplings
        Atom                 a.u.       MegaHertz       Gauss      10(-4) cm-1
     1  C(13)              0.23812     267.69766      95.52118      89.29433
     2  C(13)             -0.01550     -17.42627      -6.21813      -5.81278
     3  C(13)              0.04369      49.11103      17.52404      16.38168
     4  C(13)              0.00699       7.85822       2.80401       2.62122
     5  H(1)              -0.00473     -21.13064      -7.53994      -7.04842
     6  H(1)              -0.00128      -5.71863      -2.04055      -1.90753
     7  H(1)               0.00049       2.18606       0.78004       0.72919
     8  H(1)               0.00790      35.32327      12.60422      11.78258
     9  H(1)              -0.00018      -0.82059      -0.29281      -0.27372
    10  O(17)              0.01231      -7.46002      -2.66192      -2.48840
    11  H(1)              -0.00020      -0.88567      -0.31603      -0.29543
    12  H(1)              -0.00012      -0.54008      -0.19271      -0.18015
    13  H(1)              -0.00025      -1.09546      -0.39089      -0.36541
    14  O(17)              0.00142      -0.85989      -0.30683      -0.28683
    15  H(1)              -0.00001      -0.03828      -0.01366      -0.01277
 --------------------------------------------------------
       Center         ----  Spin Dipole Couplings  ----
                      3XX-RR        3YY-RR        3ZZ-RR
 --------------------------------------------------------
     1   Atom        0.482431     -0.389129     -0.093302
     2   Atom       -0.026267     -0.024684      0.050951
     3   Atom        0.008546     -0.028854      0.020308
     4   Atom       -0.008178      0.015332     -0.007153
     5   Atom        0.044238     -0.050626      0.006388
     6   Atom       -0.018278      0.064553     -0.046275
     7   Atom        0.010102     -0.007570     -0.002532
     8   Atom       -0.002742     -0.002110      0.004852
     9   Atom       -0.004979     -0.000295      0.005274
    10   Atom        0.001065     -0.006676      0.005612
    11   Atom       -0.003228      0.002971      0.000257
    12   Atom       -0.002018      0.006846     -0.004828
    13   Atom       -0.006230      0.011287     -0.005057
    14   Atom       -0.034420     -0.035490      0.069911
    15   Atom        0.006115     -0.003977     -0.002138
 --------------------------------------------------------
                        XY            XZ            YZ
 --------------------------------------------------------
     1   Atom       -0.379445     -0.664676      0.250651
     2   Atom       -0.001124     -0.008426     -0.009363
     3   Atom       -0.002120     -0.042053      0.003581
     4   Atom        0.008192     -0.002967     -0.010347
     5   Atom        0.006285      0.035686      0.027751
     6   Atom        0.013310     -0.020729      0.021575
     7   Atom        0.003032     -0.005313     -0.002025
     8   Atom       -0.000333     -0.002572     -0.004271
     9   Atom       -0.003572     -0.006877      0.006001
    10   Atom        0.004403      0.004899      0.003603
    11   Atom        0.000503     -0.000698     -0.004397
    12   Atom        0.006432     -0.001455     -0.002290
    13   Atom       -0.003322     -0.000149     -0.004239
    14   Atom       -0.005436      0.019158     -0.020158
    15   Atom        0.003113      0.008443      0.000811
 --------------------------------------------------------


 ---------------------------------------------------------------------------------
              Anisotropic Spin Dipole Couplings in Principal Axis System
 ---------------------------------------------------------------------------------

       Atom             a.u.   MegaHertz   Gauss  10(-4) cm-1        Axes

              Baa    -0.5323   -71.424   -25.486   -23.824 -0.0101  0.8617 -0.5074
     1 C(13)  Bbb    -0.5292   -71.015   -25.340   -23.688  0.6033  0.4099  0.6842
              Bcc     1.0615   142.438    50.826    47.512  0.7975 -0.2991 -0.5240
 
              Baa    -0.0287    -3.851    -1.374    -1.284  0.7995  0.5809  0.1529
     2 C(13)  Bbb    -0.0243    -3.255    -1.161    -1.086 -0.5917  0.8055  0.0340
              Bcc     0.0529     7.105     2.535     2.370 -0.1034 -0.1176  0.9877
 
              Baa    -0.0294    -3.952    -1.410    -1.318 -0.3265  0.8821 -0.3394
     3 C(13)  Bbb    -0.0276    -3.709    -1.323    -1.237  0.6812  0.4686  0.5625
              Bcc     0.0571     7.660     2.733     2.555 -0.6553  0.0476  0.7539
 
              Baa    -0.0113    -1.512    -0.539    -0.504 -0.3289  0.4287  0.8415
     4 C(13)  Bbb    -0.0106    -1.426    -0.509    -0.476  0.9024 -0.1199  0.4138
              Bcc     0.0219     2.938     1.048     0.980  0.2783  0.8955 -0.3474
 
              Baa    -0.0625   -33.368   -11.906   -11.130  0.0832  0.9088 -0.4089
     5 H(1)   Bbb    -0.0065    -3.494    -1.247    -1.165 -0.5626  0.3815  0.7334
              Bcc     0.0691    36.862    13.153    12.296  0.8225  0.1691  0.5430
 
              Baa    -0.0623   -33.259   -11.868   -11.094  0.4653 -0.1956  0.8633
     6 H(1)   Bbb    -0.0073    -3.892    -1.389    -1.298  0.8783 -0.0192 -0.4777
              Bcc     0.0696    37.151    13.256    12.392  0.1101  0.9805  0.1628
 
              Baa    -0.0084    -4.469    -1.595    -1.491 -0.0840  0.9627  0.2572
     7 H(1)   Bbb    -0.0043    -2.286    -0.816    -0.763  0.3771 -0.2082  0.9025
              Bcc     0.0127     6.755     2.410     2.253  0.9223  0.1728 -0.3456
 
              Baa    -0.0051    -2.737    -0.976    -0.913  0.5732  0.6895  0.4428
     8 H(1)   Bbb    -0.0022    -1.190    -0.425    -0.397  0.7909 -0.6069 -0.0788
              Bcc     0.0074     3.927     1.401     1.310 -0.2144 -0.3953  0.8932
 
              Baa    -0.0085    -4.523    -1.614    -1.509  0.9061  0.0929  0.4126
     9 H(1)   Bbb    -0.0040    -2.155    -0.769    -0.719  0.1248  0.8734 -0.4707
              Bcc     0.0125     6.678     2.383     2.228 -0.4041  0.4780  0.7799
 
              Baa    -0.0088     0.637     0.227     0.213 -0.3590  0.9269 -0.1096
    10 O(17)  Bbb    -0.0017     0.120     0.043     0.040  0.7553  0.2195 -0.6175
              Bcc     0.0105    -0.758    -0.270    -0.253  0.5483  0.3045  0.7789
 
              Baa    -0.0034    -1.839    -0.656    -0.614  0.8658  0.2348  0.4419
    11 H(1)   Bbb    -0.0028    -1.515    -0.540    -0.505 -0.4930  0.5518  0.6727
              Bcc     0.0063     3.354     1.197     1.119  0.0859  0.8002 -0.5935
 
              Baa    -0.0056    -2.973    -1.061    -0.992  0.7398 -0.2695  0.6165
    12 H(1)   Bbb    -0.0051    -2.733    -0.975    -0.912 -0.4907  0.4107  0.7685
              Bcc     0.0107     5.707     2.036     1.904  0.4603  0.8710 -0.1716
 
              Baa    -0.0074    -3.952    -1.410    -1.318  0.8089  0.2630  0.5259
    13 H(1)   Bbb    -0.0054    -2.908    -1.037    -0.970 -0.5642  0.0957  0.8200
              Bcc     0.0129     6.859     2.448     2.288 -0.1653  0.9600 -0.2258
 
              Baa    -0.0405     2.932     1.046     0.978  0.5715  0.8191  0.0504
    14 O(17)  Bbb    -0.0366     2.651     0.946     0.884  0.8017 -0.5442 -0.2471
              Bcc     0.0772    -5.583    -1.992    -1.862  0.1750 -0.1816  0.9677
 
              Baa    -0.0077    -4.106    -1.465    -1.370 -0.5459  0.2853  0.7878
    15 H(1)   Bbb    -0.0043    -2.285    -0.815    -0.762 -0.0032  0.9395 -0.3425
              Bcc     0.0120     6.391     2.281     2.132  0.8378  0.1895  0.5120
 

 ---------------------------------------------------------------------------------

 No NMR shielding tensors so no spin-rotation constants.
 Leave Link  601 at Mon Apr 11 19:55:04 2022, MaxMem=  1073741824 cpu:               2.5 elap:               0.3
 (Enter /home/saurabh/gaussian/g16/l701.exe)
 ... and contract with generalized density number  0.
 Compute integral second derivatives.
 Leave Link  701 at Mon Apr 11 19:55:05 2022, MaxMem=  1073741824 cpu:               1.7 elap:               0.2
 (Enter /home/saurabh/gaussian/g16/l702.exe)
 L702 exits ... SP integral derivatives will be done elsewhere.
 Leave Link  702 at Mon Apr 11 19:55:05 2022, MaxMem=  1073741824 cpu:               0.2 elap:               0.0
 (Enter /home/saurabh/gaussian/g16/l703.exe)
 Integral derivatives from FoFJK, PRISM(SPDF).
 Compute integral second derivatives, UseDBF=F ICtDFT=           0.
 Calling FoFJK, ICntrl=    100127 FMM=F ISym2X=0 I1Cent= 0 IOpClX= 1 NMat=1 NMatS=1 NMatT=0.
 FoFJK:  IHMeth= 1 ICntrl=  100127 DoSepK=F KAlg= 0 I1Cent=           0 FoldK=F
 IRaf=         0 NMat=       1 IRICut=       1 DoRegI=T DoRafI=F ISym2E= 0 IDoP0=0 IntGTp=1.
 FoFCou: FMM=F IPFlag=           0 FMFlag=      100000 FMFlg1=         800
         NFxFlg=           0 DoJE=F BraDBF=F KetDBF=F FulRan=T
         wScrn=  0.000000 ICntrl=    100127 IOpCl=  1 I1Cent=           0 NGrid=           0
         NMat0=    1 NMatS0=      1 NMatT0=    0 NMatD0=    1 NMtDS0=    0 NMtDT0=    0
 Symmetry not used in FoFCou.
 Leave Link  703 at Mon Apr 11 19:57:53 2022, MaxMem=  1073741824 cpu:            1350.7 elap:             168.9
 (Enter /home/saurabh/gaussian/g16/l716.exe)
 Dipole        = 3.77098305D-01-4.27096078D-01 2.40669393D-01
 Polarizability= 0.00000000D+00 0.00000000D+00 0.00000000D+00
                 0.00000000D+00 0.00000000D+00 0.00000000D+00
 ***** Axes restored to original set *****
 -------------------------------------------------------------------
 Center     Atomic                   Forces (Hartrees/Bohr)
 Number     Number              X              Y              Z
 -------------------------------------------------------------------
      1        6           0.036124416    0.027820355   -0.006101873
      2        6          -0.011511048   -0.003448868   -0.032853549
      3        6           0.007624685    0.010135379    0.006235827
      4        6          -0.000870984   -0.012351944   -0.003241594
      5        1          -0.010461455   -0.009217090    0.012171334
      6        1          -0.010102769   -0.014418019   -0.001868925
      7        1          -0.002513045   -0.003927941    0.014207291
      8        1          -0.010360364    0.005044927   -0.004106213
      9        1           0.002285283   -0.010514760   -0.006470916
     10        8           0.074825105    0.047998263   -0.008487673
     11        1          -0.010018501    0.006189391   -0.004268496
     12        1          -0.001128394   -0.001599017    0.013116035
     13        1           0.011034179    0.008371461   -0.001386393
     14        8          -0.086765944   -0.037538511    0.034749116
     15        1           0.011838836   -0.012543627   -0.011693971
 -------------------------------------------------------------------
 Cartesian Forces:  Max     0.086765944 RMS     0.023079955
 FormGI is forming the generalized inverse of G from B-inverse, IUseBI=4.
 Leave Link  716 at Mon Apr 11 19:57:53 2022, MaxMem=  1073741824 cpu:               0.2 elap:               0.0
 (Enter /home/saurabh/gaussian/g16/l103.exe)

 GradGradGradGradGradGradGradGradGradGradGradGradGradGradGradGradGradGrad
 Berny optimization.
 Red2BG is reusing G-inverse.
 Internal  Forces:  Max     0.092769762 RMS     0.013524866
 Search for a local minimum.
 Step number   1 out of a maximum of  100
 All quantities printed in internal units (Hartrees-Bohrs-Radians)
 RMS Force = .13525D-01 SwitMx=.10000D-02 MixMth= 1
 Mixed Optimization -- RFO/linear search
 Second derivative matrix not updated -- analytic derivatives used.
 ITU=  0
     Eigenvalues ---    0.00145   0.00273   0.00277   0.00573   0.01381
     Eigenvalues ---    0.03547   0.04315   0.04378   0.04427   0.04487
     Eigenvalues ---    0.04902   0.05855   0.06324   0.10857   0.11612
     Eigenvalues ---    0.11951   0.12159   0.13561   0.13791   0.14182
     Eigenvalues ---    0.14616   0.16618   0.18026   0.22931   0.23394
     Eigenvalues ---    0.25055   0.27137   0.29484   0.29535   0.29643
     Eigenvalues ---    0.29811   0.29963   0.30094   0.30477   0.30555
     Eigenvalues ---    0.32446   0.41086   0.41775   0.62561
 RFO step:  Lambda=-3.12606593D-02 EMin= 1.45475912D-03
 Linear search not attempted -- first point.
 Iteration  1 RMS(Cart)=  0.04521314 RMS(Int)=  0.00457833
 Iteration  2 RMS(Cart)=  0.00431857 RMS(Int)=  0.00271688
 Iteration  3 RMS(Cart)=  0.00004255 RMS(Int)=  0.00271668
 Iteration  4 RMS(Cart)=  0.00000056 RMS(Int)=  0.00271668
 ITry= 1 IFail=0 DXMaxC= 1.46D-01 DCOld= 1.00D+10 DXMaxT= 3.00D-01 DXLimC= 3.00D+00 Rises=F
 Variable       Old X    -DE/DX   Delta X   Delta X   Delta X     New X
                                 (Linear)    (Quad)   (Total)
    R1        2.90887  -0.01209   0.00000  -0.07512  -0.07512   2.83375
    R2        2.10041  -0.01424   0.00000  -0.04918  -0.04918   2.05123
    R3        2.09980  -0.01197   0.00000  -0.04499  -0.04499   2.05481
    R4        2.90273  -0.00353   0.00000  -0.00136  -0.00136   2.90137
    R5        2.91364  -0.00271   0.00000  -0.01674  -0.01674   2.89691
    R6        2.67592   0.01469   0.00000   0.04332   0.04332   2.71924
    R7        2.10094  -0.01489   0.00000  -0.04254  -0.04254   2.05840
    R8        2.10026  -0.01222   0.00000  -0.03660  -0.03660   2.06365
    R9        2.10031  -0.01250   0.00000  -0.03993  -0.03993   2.06038
   R10        2.09986  -0.01252   0.00000  -0.03858  -0.03858   2.06127
   R11        2.10062  -0.01325   0.00000  -0.03849  -0.03849   2.06212
   R12        2.09902  -0.01391   0.00000  -0.04202  -0.04202   2.05700
   R13        2.49979   0.09277   0.00000   0.16400   0.16400   2.66378
   R14        1.87354  -0.02077   0.00000  -0.05148  -0.05148   1.82206
    A1        1.94399   0.01100   0.00000   0.08625   0.07587   2.01986
    A2        1.93626   0.01326   0.00000   0.09222   0.08182   2.01808
    A3        1.90853  -0.00161   0.00000   0.07109   0.05668   1.96520
    A4        1.89851  -0.00046   0.00000   0.01284   0.01201   1.91051
    A5        1.92325   0.00017   0.00000   0.01865   0.01805   1.94129
    A6        1.93287   0.00146   0.00000   0.00472   0.00456   1.93743
    A7        1.90069   0.00432   0.00000   0.02819   0.02764   1.92834
    A8        1.87674  -0.00586   0.00000  -0.06541  -0.06522   1.81152
    A9        1.93064   0.00029   0.00000  -0.00020   0.00006   1.93070
   A10        1.93666  -0.00229   0.00000  -0.01559  -0.01562   1.92104
   A11        1.92644  -0.00073   0.00000  -0.00585  -0.00589   1.92055
   A12        1.92645   0.00243   0.00000   0.00724   0.00726   1.93371
   A13        1.89344   0.00084   0.00000   0.00430   0.00420   1.89764
   A14        1.89342   0.00017   0.00000   0.00509   0.00512   1.89854
   A15        1.88617  -0.00038   0.00000   0.00547   0.00548   1.89165
   A16        1.92558  -0.00010   0.00000  -0.00302  -0.00303   1.92255
   A17        1.93177  -0.00070   0.00000  -0.00578  -0.00579   1.92598
   A18        1.93714  -0.00011   0.00000  -0.00617  -0.00618   1.93095
   A19        1.89417   0.00019   0.00000   0.00229   0.00227   1.89644
   A20        1.89049   0.00017   0.00000   0.00522   0.00521   1.89570
   A21        1.88331   0.00060   0.00000   0.00809   0.00808   1.89139
   A22        1.88709   0.01627   0.00000   0.01287   0.01287   1.89996
   A23        1.82956   0.00034   0.00000  -0.04641  -0.04641   1.78314
    D1        1.06362   0.01108   0.00000   0.14658   0.14966   1.21329
    D2       -1.01881   0.00599   0.00000   0.09317   0.09622  -0.92259
    D3        3.12252   0.00450   0.00000   0.07740   0.08026  -3.08041
    D4       -1.06675  -0.00383   0.00000  -0.06923  -0.07215  -1.13890
    D5        3.13400  -0.00892   0.00000  -0.12264  -0.12559   3.00841
    D6        0.99215  -0.01041   0.00000  -0.13841  -0.14155   0.85060
    D7       -1.04779  -0.00191   0.00000  -0.02863  -0.02864  -1.07643
    D8        3.13577  -0.00098   0.00000  -0.01997  -0.02004   3.11574
    D9        1.05181  -0.00159   0.00000  -0.02766  -0.02770   1.02411
   D10        1.04868   0.00058   0.00000   0.01825   0.01849   1.06717
   D11       -1.05094   0.00150   0.00000   0.02691   0.02709  -1.02385
   D12       -3.13491   0.00090   0.00000   0.01923   0.01943  -3.11548
   D13        3.14132  -0.00003   0.00000  -0.00388  -0.00402   3.13730
   D14        1.04170   0.00089   0.00000   0.00478   0.00458   1.04628
   D15       -1.04226   0.00029   0.00000  -0.00290  -0.00308  -1.04535
   D16        3.13909  -0.00020   0.00000   0.00517   0.00532  -3.13877
   D17        1.04231   0.00009   0.00000   0.00802   0.00817   1.05047
   D18       -1.04843  -0.00013   0.00000   0.00571   0.00585  -1.04257
   D19        1.05799  -0.00238   0.00000  -0.03896  -0.03912   1.01887
   D20       -1.03880  -0.00210   0.00000  -0.03611  -0.03627  -1.07507
   D21       -3.12953  -0.00231   0.00000  -0.03842  -0.03858   3.11507
   D22       -1.00093   0.00197   0.00000   0.02378   0.02380  -0.97713
   D23       -3.09772   0.00226   0.00000   0.02663   0.02665  -3.07107
   D24        1.09474   0.00204   0.00000   0.02432   0.02433   1.11907
   D25        1.01377   0.00237   0.00000   0.04160   0.04141   1.05518
   D26        3.08589  -0.00091   0.00000   0.02024   0.02011   3.10601
   D27       -1.12378   0.00095   0.00000   0.01479   0.01510  -1.10868
   D28       -1.95469   0.00309   0.00000   0.04165   0.04165  -1.91305
         Item               Value     Threshold  Converged?
 Maximum Force            0.092770     0.000450     NO 
 RMS     Force            0.013525     0.000300     NO 
 Maximum Displacement     0.145528     0.001800     NO 
 RMS     Displacement     0.044342     0.001200     NO 
 Predicted change in Energy=-1.825350D-02
 Lowest energy point so far.  Saving SCF results.
 GradGradGradGradGradGradGradGradGradGradGradGradGradGradGradGradGradGrad

 Leave Link  103 at Mon Apr 11 19:57:54 2022, MaxMem=  1073741824 cpu:               0.2 elap:               0.0
 (Enter /home/saurabh/gaussian/g16/l202.exe)
                          Input orientation:                          
 ---------------------------------------------------------------------
 Center     Atomic      Atomic             Coordinates (Angstroms)
 Number     Number       Type             X           Y           Z
[...]
 ! D26   D(3,2,10,14)         -178.2866         -DE/DX =    0.0                 !
 ! D27   D(4,2,10,14)          -60.2282         -DE/DX =    0.0                 !
 ! D28   D(2,10,14,15)        -100.0794         -DE/DX =    0.0                 !
 --------------------------------------------------------------------------------
 GradGradGradGradGradGradGradGradGradGradGradGradGradGradGradGradGradGrad

 Leave Link  103 at Mon Apr 11 20:17:42 2022, MaxMem=  1073741824 cpu:               0.2 elap:               0.1
 (Enter /home/saurabh/gaussian/g16/l9999.exe)

 ----------------------------------------------------------------------

 Electric dipole moment (input orientation):
 (Debye = 10**-18 statcoulomb cm , SI units = C m)
                  (au)            (Debye)         (10**-30 SI)
   Tot        0.742193D+00      0.188647D+01      0.629257D+01
   x         -0.270792D+00     -0.688285D+00     -0.229587D+01
   y          0.494549D+00      0.125702D+01      0.419296D+01
   z         -0.482643D+00     -0.122676D+01     -0.409201D+01

 Dipole polarizability, Alpha (input orientation).
 (esu units = cm**3 , SI units = C**2 m**2 J**-1)
 Alpha(0;0):
               (au)            (10**-24 esu)      (10**-40 SI)
   iso        0.586133D+02      0.868559D+01      0.966402D+01
   aniso      0.865011D+01      0.128181D+01      0.142621D+01
   xx         0.616206D+02      0.913123D+01      0.101599D+02
   yx         0.198260D+01      0.293791D+00      0.326887D+00
   yy         0.579634D+02      0.858929D+01      0.955688D+01
   zx        -0.341208D+01     -0.505618D+00     -0.562576D+00
   zy        -0.136261D+01     -0.201918D+00     -0.224664D+00
   zz         0.562559D+02      0.833626D+01      0.927534D+01

 ----------------------------------------------------------------------

 Dipole orientation:
     6         -5.54479989         -1.41199668          5.38756296
     6         -4.03437313         -1.26074445          3.01575787
     6         -1.51171852         -2.65808134          3.28592091
     6         -3.65461451          1.45421348          2.12461826
     1         -6.50228274          0.21828119          6.15652013
     1         -5.79083941         -3.21773478          6.31375985
     1         -0.33396830         -1.70878155          4.68211834
     1         -0.51742016         -2.67947601          1.48215196
     1         -1.81610321         -4.60138015          3.89385024
     8         -5.25369157         -2.74806883          1.02421114
     1         -2.56090816          1.48559332          0.38047367
     1         -2.64388576          2.53809751          3.55731015
     1         -5.46775075          2.35898319          1.77552983
     8         -7.69495159         -1.66382403          0.42100036
     1         -8.80747712         -2.77088066          1.35485227

 Electric dipole moment (dipole orientation):
 (Debye = 10**-18 statcoulomb cm , SI units = C m)
                  (au)            (Debye)         (10**-30 SI)
   Tot        0.742193D+00      0.188647D+01      0.629257D+01
   x          0.000000D+00      0.000000D+00      0.000000D+00
   y          0.000000D+00      0.000000D+00      0.000000D+00
   z          0.742193D+00      0.188647D+01      0.629257D+01

 Dipole polarizability, Alpha (dipole orientation).
 (esu units = cm**3 , SI units = C**2 m**2 J**-1)
 Alpha(0;0):
               (au)            (10**-24 esu)      (10**-40 SI)
   iso        0.586133D+02      0.868559D+01      0.966402D+01
   aniso      0.865011D+01      0.128181D+01      0.142621D+01
   xx         0.637995D+02      0.945412D+01      0.105191D+02
   yx        -0.608601D+00     -0.901853D-01     -0.100345D+00
   yy         0.557144D+02      0.825602D+01      0.918606D+01
   zx         0.152358D+01      0.225772D+00      0.251205D+00
   zy        -0.140831D+01     -0.208690D+00     -0.232199D+00
   zz         0.563259D+02      0.834664D+01      0.928689D+01

 ----------------------------------------------------------------------
 Unable to Open any file for archive entry.
 1\1\GINC-MEDIAWIKI\Freq\UB3LYP\CC-pVTZ\C4H9O2(2)\SAURABH\11-Apr-2022\0
 \\#P Geom=AllCheck Guess=TCheck SCRF=Check GenChk UB3LYP/CC-pVTZ Freq\
 \Mol_03\\0,2\C,-3.6276161478,2.0136176524,-0.285537426\C,-2.4466665812
 ,1.2365404735,0.1856934277\C,-1.1626453762,2.0689566184,0.0983830304\C
 ,-2.3015107524,-0.0982387993,-0.5382866215\H,-4.3689787449,1.579516696
 2,-0.9401377049\H,-3.7853667672,3.0194916038,0.079962314\H,-0.93325069
 81,2.285887005,-0.9441990356\H,-0.3290013099,1.5187192416,0.5346683\H,
 -1.2766080128,3.0112674655,0.6331749711\O,-2.5393958712,1.014554956,1.
 6308849777\H,-1.4351314345,-0.6401160752,-0.1603209958\H,-2.1709084319
 ,0.066481572,-1.6086355012\H,-3.186719977,-0.7126456619,-0.3871213726\
 O,-3.6951094022,0.1921541592,1.9274877268\H,-4.3303430541,0.8629255412
 ,2.2112865859\\Version=ES64L-G16RevC.01\State=2-A\HF=-308.2562292\S2=0
 .754046\S2-1=0.\S2A=0.750011\RMSD=1.071e-09\RMSF=3.805e-06\ZeroPoint=0
 .1234941\Thermal=0.1318774\ETot=-308.1243518\HTot=-308.1234076\GTot=-3
 08.1648093\Dipole=-0.2707922,0.4945485,-0.4826426\DipoleDeriv=-0.09325
 64,-0.0158353,0.150411,0.00193,0.0037852,0.1367743,0.2059877,0.1201204
 ,-0.1816772,0.321109,-0.0804353,-0.023255,-0.0881896,0.3943553,-0.0019
 983,-0.0792871,-0.0853532,0.6131716,-0.0197758,-0.0466299,0.0145679,-0
 .0232005,0.0316139,0.0194437,0.0341494,0.0374951,0.0073965,0.0382788,-
 0.0064512,0.0077202,-0.0076586,-0.0881779,-0.1012992,0.0271759,-0.0369
 183,0.0273347,-0.0003371,0.0175406,-0.0912313,-0.0253924,0.0267812,-0.
 0616214,-0.0955593,-0.042822,0.0615687,0.0363968,0.0314031,-0.0410633,
 0.0555385,-0.0718745,-0.0558481,-0.022595,-0.0816725,0.0751042,0.04122
 78,-0.0203238,0.0203552,-0.0206017,0.0584787,0.0241342,0.0457219,0.037
 6278,-0.0985257,-0.0658518,0.0445617,-0.0466455,0.0735003,0.010705,0.0
 369308,-0.0754002,0.0261872,0.0562336,0.044366,0.0279516,0.021671,-0.0
 102223,-0.0929784,-0.0773611,-0.0068686,-0.0992946,0.0289028,-0.128262
 5,0.1838679,-0.1452914,0.1006554,-0.3057797,-0.0479055,-0.0620344,0.00
 52903,-0.4973936,-0.0600029,0.0953707,-0.0408271,0.0616009,0.0005949,0
 .0006585,-0.0720647,0.0332963,0.0400978,0.0668692,0.0077082,0.0246816,
 0.0059872,0.0461136,0.051507,0.0330621,0.0142404,-0.1296348,-0.0470609
 ,-0.0910741,-0.0033694,-0.0555896,-0.0056718,-0.0159893,0.016053,0.015
 2642,0.0814889,-0.3607978,-0.1776151,0.1425925,-0.1028531,-0.1436317,0
 .1133502,0.065135,0.0919445,-0.4340184,0.2270973,0.029961,0.0096835,0.
 0344955,0.1356861,-0.0207757,-0.0134759,-0.0354055,0.3499507\Polar=61.
 6205633,1.9826,57.9634201,-3.4120826,-1.3626116,56.2558579\Quadrupole=
 2.1358981,-0.9877162,-1.148182,-0.8420015,-1.6447469,1.5914254\PG=C01 
 [X(C4H9O2)]\NImag=0\\0.42015559,-0.04959709,0.53441335,0.20731097,0.17
 204744,0.28583211,-0.15521148,0.05797446,-0.04042855,0.49272845,0.0598
 6093,-0.12076116,0.00572798,-0.01336235,0.49653652,-0.03412777,-0.0022
 0471,-0.06312115,0.03779595,0.04928745,0.35269714,-0.03229715,-0.00914
 672,-0.00508307,-0.13765371,-0.04213035,0.00459357,0.48197248,0.008251
 46,0.00990427,-0.00118033,-0.03204231,-0.10199235,-0.00268099,-0.05743
 985,0.54038795,-0.01007530,-0.00444387,0.00064804,-0.00594236,-0.00566
 586,-0.06776623,0.00211561,0.00321057,0.57677945,-0.00533431,0.0284055
 5,0.01129933,-0.08260218,0.00908443,0.00222115,0.00157599,-0.02649424,
 -0.01382903,0.58162002,0.00735382,-0.02259686,-0.00778805,0.00893516,-
 0.16207248,-0.03981534,-0.00356934,-0.02311299,-0.01038362,0.00991024,
 0.49152476,0.00073442,0.00642202,0.00705481,0.00375346,-0.03462068,-0.
 08538934,-0.00343042,-0.00030248,0.00304148,0.00835234,-0.05085264,0.5
 4786869,-0.17847047,-0.07231404,-0.13914660,-0.00680063,-0.01137134,-0
 .01112164,-0.00190971,0.00183067,-0.00111444,0.00084952,-0.00121183,-0
 .00017319,0.18310554,-0.07381101,-0.09989246,-0.08622149,0.01087688,0.
 00939526,0.00722953,0.00107672,-0.00169042,0.00070768,0.00032888,0.001
 37143,0.00034602,0.07791501,0.09623910,-0.13785162,-0.08350666,-0.1340
 5988,-0.00480146,-0.00685456,0.00173173,0.00015812,0.00190101,-0.00084
 809,0.00092119,-0.00062323,-0.00006679,0.14760194,0.08944083,0.1356234
 9,-0.05036513,0.04321548,-0.00502581,-0.00008350,0.02068047,0.01096637
 ,0.00195145,0.00121434,0.00066769,-0.00355656,0.00129171,-0.00253327,0
 .00613126,-0.01734074,-0.00666579,0.04538505,0.04440516,-0.29619439,-0
 .10178543,-0.00153769,-0.01076921,-0.00846761,-0.00075181,0.00067613,-
 0.00007486,0.00310087,-0.00022438,0.00211671,0.00397145,-0.00504260,-0
 .00166202,-0.04861143,0.31021322,-0.00423528,-0.10387406,-0.06277719,-
 0.00146724,0.00890657,0.00459474,-0.00005989,-0.00006279,0.00026420,-0
 .00150468,0.00075990,-0.00010998,0.00347476,-0.01460790,-0.00106065,0.
 00273424,0.10937869,0.05722944,0.00068181,0.00011087,0.00003745,-0.004
 71646,-0.00366188,0.02669998,-0.05619046,-0.01071155,0.05069188,0.0009
 5080,0.00089540,0.00027922,-0.00015695,-0.00003397,0.00005189,-0.00022
 457,0.00003100,0.00016491,0.06062235,0.00093063,0.00009633,-0.00011281
 ,-0.00157619,-0.00396776,0.01680279,-0.01075028,-0.05569464,0.04880919
 ,0.00061815,0.00050314,0.00041025,-0.00011300,0.00002815,0.00000069,-0
 .00006651,-0.00004263,-0.00006822,0.01387406,0.05793903,-0.00067744,-0
 .00001258,0.00066387,-0.00071912,-0.00071570,-0.00181633,0.05268628,0.
 05020178,-0.29066326,-0.00038090,-0.00033992,-0.00005794,0.00016480,-0
 .00003739,0.00002631,0.00013005,0.00006022,-0.00014874,-0.05710064,-0.
 05452685,0.31544018,-0.00367634,-0.00382564,-0.00046527,-0.02410581,0.
 01444137,-0.01056481,-0.19637204,0.10161885,-0.07943634,0.00088298,0.0
 0159101,0.00023716,-0.00097127,0.00056590,-0.00017621,0.00017337,0.000
 01734,0.00001908,0.00644456,-0.00440805,0.00262165,0.21615339,-0.00142
 449,-0.00143757,0.00034813,-0.01544388,0.00838724,-0.00742955,0.103577
 37,-0.11746890,0.05367635,-0.00035359,0.00127155,-0.00030321,-0.000268
 28,0.00062894,-0.00033370,-0.00032659,0.00014122,0.00012542,0.00378365
 ,-0.00355061,0.00157442,-0.11088110,0.12500608,-0.00018378,-0.00006538
 ,0.00055294,0.00215757,-0.00100592,-0.00017468,-0.08093541,0.05331578,
 -0.08895335,-0.00020660,0.00022309,-0.00032613,0.00004885,0.00004236,0
 .00018379,-0.00001622,0.00018824,-0.00018847,-0.02395353,0.01553699,-0
 .01097436,0.08874211,-0.05956609,0.09244095,0.00154143,-0.00110080,-0.
 00015164,0.00289770,-0.02444769,-0.01503282,-0.05186006,0.02866089,0.0
 1569492,-0.00473546,-0.00224959,0.00136311,0.00013675,0.00017943,0.000
 15512,-0.00035394,0.00047266,-0.00003567,-0.00168035,0.00598785,0.0025
 3053,-0.00215214,0.02025530,0.01337270,0.05471254,0.00125796,0.0006002
 7,0.00092592,0.00230592,-0.01703204,-0.00862312,0.02650685,-0.24260866
 ,-0.11172426,-0.00395419,-0.00093472,0.00137207,0.00004288,0.00025894,
 -0.00000417,-0.00048722,0.00062511,-0.00011587,-0.00051197,0.00715970,
 0.00340247,0.00133713,-0.01317984,-0.00795765,-0.02727916,0.26406130,0
 .00017080,-0.00023229,-0.00012503,-0.00037897,0.00229616,-0.00058384,0
 .01417770,-0.11262237,-0.11064066,-0.00043898,0.00026576,0.00023729,-0
 .00002665,0.00018496,0.00004297,-0.00039863,0.00017410,0.00011934,0.00
 317636,-0.02706753,-0.01387010,-0.00064015,0.01216382,0.00709697,-0.01
 636011,0.12407063,0.11645446,-0.00069021,0.00198508,-0.02731462,-0.063
 01657,-0.00141840,-0.01802655,-0.01350310,-0.01493932,0.03258032,0.002
 07459,0.00054595,0.00560437,-0.00304060,0.00137466,-0.00006682,0.00092
 821,-0.00056261,0.00050644,-0.00445217,-0.00244567,0.00114779,0.001417
 96,0.00047974,0.00142953,0.00081768,0.00072534,0.00067147,0.27116091,0
 .00562538,-0.00067023,0.02100208,-0.00693437,-0.05876706,0.00154871,-0
 .01303034,-0.00713568,0.02142912,0.00101873,0.00828699,-0.02934008,0.0
 0091846,-0.00070363,0.00075490,-0.00126698,0.00142536,-0.00111356,-0.0
 0193036,-0.00205867,0.00069519,0.00056288,0.00019475,0.00028199,0.0006
 4982,0.00071018,0.00100444,0.10936809,0.14221982,-0.01919597,0.0165108
 3,-0.03432742,-0.02975135,-0.02705783,-0.13500593,0.01449750,0.0080911
 0,-0.00949154,0.00667409,0.00054835,-0.04357966,-0.00069706,0.00223829
 ,-0.00132418,-0.00062099,0.00009155,0.00184664,-0.00179012,-0.00102758
 ,0.00014149,-0.00036307,0.00006018,0.00009744,-0.00081534,-0.00078126,
 0.00046769,-0.01538081,-0.01715755,0.27604190,0.00073472,0.00091160,0.
 00039280,-0.00361507,0.00147454,-0.00143844,0.00045323,-0.00091785,0.0
 0007336,-0.21563171,0.10274506,-0.07413605,0.00034286,-0.00019317,0.00
 005775,-0.00003496,0.00013921,0.00007732,0.00000285,-0.00003715,0.0000
 7670,0.00058816,-0.00009082,-0.00006343,0.00012553,-0.00002723,0.00016
 986,0.00071403,-0.00049097,0.00025537,0.23184041,-0.00040582,-0.004947
 31,-0.00353731,0.02421665,-0.01611128,0.01184120,0.00135929,0.00120445
 ,0.00090524,0.10058378,-0.10956404,0.04387331,-0.00008701,0.00009856,0
 .00010753,0.00148499,-0.00076635,0.00038132,-0.00003340,-0.00012452,-0
 .00000387,-0.00089070,-0.00028153,-0.00043340,-0.00021741,0.00043497,-
 0.00011911,-0.00146243,0.00272878,0.00114893,-0.11338411,0.12029321,-0
 .00010477,-0.00283883,-0.00107307,0.01328813,-0.00876369,0.00434333,0.
 00054583,0.00048427,0.00021841,-0.07565645,0.04687209,-0.08019135,0.00
 018227,-0.00000772,-0.00000132,0.00070621,-0.00051270,0.00042379,-0.00
 015388,0.00010677,-0.00002427,-0.00013118,0.00004284,0.00022836,0.0001
 6266,0.00006357,-0.00003974,0.00001287,0.00078326,0.00185428,0.0824438
 4,-0.04805172,0.08286519,0.00028492,0.00027747,0.00008339,-0.00202179,
 -0.00105906,0.00226432,-0.00019880,-0.00008637,-0.00024873,-0.05020120
 ,-0.00415533,0.03061461,-0.00037271,0.00008793,0.00003474,-0.00014116,
 -0.00015288,-0.00003802,0.00012741,-0.00038125,-0.00011808,0.00005390,
 -0.00003463,-0.00014285,-0.00006169,0.00011123,0.00009477,0.00015855,-
 0.00041538,0.00022740,0.00436086,0.00283344,-0.02575184,0.04982439,-0.
 00012399,0.00048107,0.00037146,0.00305856,0.00642636,-0.02631691,0.000
 06116,0.00130993,0.00025961,-0.00437415,-0.05418040,0.04204276,0.00021
 403,0.00001350,0.00006620,-0.00006690,0.00024848,-0.00008103,-0.000343
 78,-0.00038583,-0.00000570,-0.00008661,-0.00010381,-0.00002601,0.00022
 949,0.00019179,0.00023451,0.00029947,-0.00550099,-0.00677720,-0.003345
 31,-0.00277529,0.01498303,0.00520899,0.05667327,-0.00090146,0.00023704
 ,0.00054762,0.00129779,0.00575420,-0.01438337,0.00021183,0.00094603,0.
 00016448,0.03079860,0.03933279,-0.29664592,0.00044987,0.00000481,0.000
 12257,0.00016921,-0.00003101,0.00013093,-0.00043259,-0.00046146,0.0005
 6391,0.00009712,-0.00003875,-0.00001164,0.00001750,-0.00010993,0.00035
 091,0.00122967,-0.00407034,-0.00262368,0.00144141,0.00145623,-0.009719
 06,-0.03411211,-0.04365649,0.32424143,0.00070482,0.00052398,-0.0000787
 0,0.00303011,0.00228675,-0.00201785,0.00055531,0.00013445,0.00015165,-
 0.22680414,-0.12190609,0.03004665,0.00013231,-0.00027205,0.00002066,0.
 00017175,-0.00008207,-0.00005982,-0.00007592,0.00013883,0.00004927,0.0
 0033486,0.00017971,0.00022729,0.00034422,-0.00000676,0.00026150,-0.000
 74172,-0.00107575,-0.00044478,-0.01961254,-0.01410823,0.00438693,-0.00
 215930,-0.00041310,0.00050202,0.24427993,-0.00121591,0.00132346,-0.000
 45587,-0.02497398,-0.01728880,0.00493982,0.00210310,-0.00451925,-0.003
 36571,-0.11971686,-0.13042504,0.02105080,0.00060129,-0.00019040,0.0005
 2755,0.00014574,0.00024732,0.00015035,0.00035765,0.00025051,0.00004348
 ,-0.00008112,0.00012179,-0.00011966,-0.00167841,-0.00086649,-0.0001392
 4,-0.00057753,0.00060910,0.00171382,0.01339585,0.01002256,-0.00321491,
 -0.00281502,-0.00292209,0.00068894,0.13337057,0.14244891,-0.00007343,0
 .00077641,0.00011989,-0.01417323,-0.00934660,0.00178769,0.00082185,-0.
 00258759,-0.00183944,0.03202301,0.02326390,-0.05145385,-0.00006295,0.0
 0021490,0.00011751,-0.00011017,0.00000316,-0.00009286,-0.00007406,-0.0
 0013372,0.00028241,0.00033059,0.00012779,0.00005312,-0.00069652,-0.000
 87853,0.00033260,-0.00041800,0.00088776,0.00105217,-0.00987030,-0.0075
 9463,0.00140555,0.02643712,0.01779766,-0.00329021,-0.03503877,-0.02244
 047,0.05299741,0.00162040,0.00226656,-0.00180245,-0.01698106,-0.010460
 79,0.00704333,0.00364330,0.00084311,0.00848314,0.00121258,-0.00007914,
 0.00008117,0.00093529,-0.00073809,0.00071894,0.00004634,-0.00043370,0.
 00045411,-0.00146566,-0.00154791,-0.00032574,0.00112318,0.00055661,-0.
 00051479,0.00031677,0.00011597,-0.00050375,-0.15976813,-0.10180397,0.0
 3534328,-0.00024726,0.00009881,0.00003104,0.00022984,-0.00025708,-0.00
 059282,-0.00031108,0.00101585,0.00077563,0.37975490,-0.00190252,-0.000
 45409,0.00059656,-0.00752506,-0.01285915,0.00744500,0.00208243,0.00095
 792,0.00498317,0.00200152,0.00059914,-0.00241854,-0.00024655,-0.000162
 89,0.00011364,0.00012365,-0.00000955,-0.00005049,-0.00152870,0.0002740
 5,-0.00044171,-0.00026963,0.00020756,-0.00038484,0.00054211,0.00063045
 ,-0.00013637,-0.05947128,-0.09360258,0.00620428,-0.00008953,-0.0000597
 7,0.00005265,0.00047937,0.00024917,-0.00014230,0.00091183,0.00107998,-
 0.00019063,-0.12515912,0.39414638,0.00022410,0.00125322,-0.00118191,0.
 03433876,0.02425345,0.00391585,-0.00012619,0.00069822,-0.01027373,-0.0
 0012130,-0.00165152,0.00015711,0.00033719,0.00033794,0.00016108,-0.000
 08139,0.00013484,0.00004813,0.00227236,0.00155648,0.00044635,-0.000013
 07,-0.00035480,0.00000053,-0.00028225,0.00035599,0.00009124,0.01530330
 ,0.00614316,-0.05174229,0.00065807,-0.00008073,-0.00033036,0.00054036,
 0.00108627,0.00058220,0.00169665,0.00063142,-0.00158413,-0.14726304,0.
 07630141,0.10367121,0.00032141,0.00031325,0.00037277,-0.00184799,0.000
 08336,0.00074520,-0.00016674,0.00007771,0.00018763,-0.00030093,-0.0000
 9704,-0.00079359,0.00008882,-0.00001638,-0.00015845,-0.00002761,-0.000
 00548,-0.00003027,0.00013277,-0.00022350,-0.00008513,0.00010526,-0.000
 00900,0.00003856,-0.00004897,-0.00013676,0.00002478,-0.03205943,0.0088
 0475,0.01206185,-0.00002110,0.00001216,0.00003835,0.00011679,-0.000060
 78,-0.00017603,0.00015140,0.00006878,0.00012925,-0.21010941,0.19005148
 ,0.09251644,0.24366573,0.00079550,0.00013530,0.00006173,-0.00397180,0.
 00087592,-0.00355626,0.00005180,-0.00021775,0.00167726,-0.00015912,-0.
 00044611,0.00020370,0.00011825,-0.00035150,0.00007200,0.00000998,-0.00
 052773,0.00027170,-0.00029701,-0.00042625,0.00010617,0.00030838,0.0000
 6313,-0.00002950,-0.00000449,-0.00005097,-0.00007746,-0.03390111,0.012
 26385,0.01619409,-0.00009014,-0.00015244,0.00000109,0.00010150,0.00027
 482,0.00009024,0.00031793,0.00010845,0.00010059,0.23558289,-0.29099662
 ,-0.11066536,-0.19886255,0.27944789,-0.00101346,-0.00006858,0.00124636
 ,0.00503062,-0.00219495,-0.00082961,-0.00017331,0.00058779,-0.00063976
 ,-0.00015175,0.00018846,-0.00053841,0.00008286,0.00012717,-0.00064852,
 0.00007850,0.00038612,-0.00027930,0.00013076,0.00017502,-0.00000950,-0
 .00025762,-0.00009284,-0.00002546,0.00007781,0.00000414,0.00006591,0.0
 0272104,-0.00284905,-0.00340691,-0.00013826,0.00010701,0.00004027,0.00
 011492,0.00002183,-0.00003017,0.00029731,-0.00001030,0.00011212,0.0980
 7196,-0.09193184,-0.04396126,-0.10487137,0.09555000,0.04890422\\-0.000
 00444,-0.00000340,0.00000029,0.00000128,0.00000070,-0.00001471,0.00000
 108,0.00000134,0.00000187,0.00000040,-0.00000060,0.00000248,0.00000299
 ,0.00000274,0.00000152,0.00000017,-0.00000129,-0.00000120,-0.00000002,
 -0.00000021,0.00000070,-0.00000006,0.00000029,0.00000064,-0.00000012,0
 .00000017,-0.00000068,-0.00001120,-0.00000600,0.00000770,-0.00000048,0
 .00000028,0.00000051,0.00000099,-0.00000067,0.00000099,0.00000074,-0.0
 0000026,0.00000063,0.00001027,0.00000551,-0.00000032,-0.00000159,0.000
 00140,-0.00000041\\\@
 The archive entry for this job was punched.


  ON THE CHOICE OF THE CORRECT LANGUAGE -
 I SPEAK SPANISH TO GOD, ITALIAN TO WOMEN,
 FRENCH TO MEN, AND GERMAN TO MY HORSE.
          -- CHARLES V
 Job cpu time:       0 days  1 hours  5 minutes 16.4 seconds.
 Elapsed time:       0 days  0 hours  8 minutes 10.0 seconds.
 File lengths (MBytes):  RWF=    221 Int=      0 D2E=      0 Chk=     11 Scr=      1
 Normal termination of Gaussian 16 at Mon Apr 11 20:17:42 2022.
