 Entering Gaussian System, Link 0=g16
 Input=Mol_02.com
 Output=Mol_02.log
 Initial command:
 /home/saurabh/gaussian/g16/l1.exe "/home/saurabh/gaussian/gauss_scr/Gau-22995.inp" -scrdir="/home/saurabh/gaussian/gauss_scr/"
 Entering Link 1 = /home/saurabh/gaussian/g16/l1.exe PID=     22996.
  
 Copyright (c) 1988-2019, Gaussian, Inc.  All Rights Reserved.
  
 This is part of the Gaussian(R) 16 program.  It is based on
 the Gaussian(R) 09 system (copyright 2009, Gaussian, Inc.),
 the Gaussian(R) 03 system (copyright 2003, Gaussian, Inc.),
 the Gaussian(R) 98 system (copyright 1998, Gaussian, Inc.),
 the Gaussian(R) 94 system (copyright 1995, Gaussian, Inc.),
 the Gaussian 92(TM) system (copyright 1992, Gaussian, Inc.),
 the Gaussian 90(TM) system (copyright 1990, Gaussian, Inc.),
 the Gaussian 88(TM) system (copyright 1988, Gaussian, Inc.),
 the Gaussian 86(TM) system (copyright 1986, Carnegie Mellon
 University), and the Gaussian 82(TM) system (copyright 1983,
 Carnegie Mellon University). Gaussian is a federally registered
 trademark of Gaussian, Inc.
  
 This software contains proprietary and confidential information,
 including trade secrets, belonging to Gaussian, Inc.
  
 This software is provided under written license and may be
 used, copied, transmitted, or stored only in accord with that
 written license.
  
 The following legend is applicable only to US Government
 contracts under FAR:
  
                    RESTRICTED RIGHTS LEGEND
  
 Use, reproduction and disclosure by the US Government is
 subject to restrictions as set forth in subparagraphs (a)
 and (c) of the Commercial Computer Software - Restricted
 Rights clause in FAR 52.227-19.
  
 Gaussian, Inc.
 340 Quinnipiac St., Bldg. 40, Wallingford CT 06492
  
  
 ---------------------------------------------------------------
 Warning -- This program may not be used in any manner that
 competes with the business of Gaussian, Inc. or will provide
 assistance to any competitor of Gaussian, Inc.  The licensee
 of this program is prohibited from giving any competitor of
 Gaussian, Inc. access to this program.  By using this program,
 the user acknowledges that Gaussian, Inc. is engaged in the
 business of creating and licensing software in the field of
 computational chemistry and represents and warrants to the
 licensee that it is not a competitor of Gaussian, Inc. and that
 it will not use this program in any manner prohibited above.
 ---------------------------------------------------------------
  

 Cite this work as:
 Gaussian 16, Revision C.01,
 M. J. Frisch, G. W. Trucks, H. B. Schlegel, G. E. Scuseria, 
 M. A. Robb, J. R. Cheeseman, G. Scalmani, V. Barone, 
 G. A. Petersson, H. Nakatsuji, X. Li, M. Caricato, A. V. Marenich, 
 J. Bloino, B. G. Janesko, R. Gomperts, B. Mennucci, H. P. Hratchian, 
 J. V. Ortiz, A. F. Izmaylov, J. L. Sonnenberg, D. Williams-Young, 
 F. Ding, F. Lipparini, F. Egidi, J. Goings, B. Peng, A. Petrone, 
 T. Henderson, D. Ranasinghe, V. G. Zakrzewski, J. Gao, N. Rega, 
 G. Zheng, W. Liang, M. Hada, M. Ehara, K. Toyota, R. Fukuda, 
 J. Hasegawa, M. Ishida, T. Nakajima, Y. Honda, O. Kitao, H. Nakai, 
 T. Vreven, K. Throssell, J. A. Montgomery, Jr., J. E. Peralta, 
 F. Ogliaro, M. J. Bearpark, J. J. Heyd, E. N. Brothers, K. N. Kudin, 
 V. N. Staroverov, T. A. Keith, R. Kobayashi, J. Normand, 
 K. Raghavachari, A. P. Rendell, J. C. Burant, S. S. Iyengar, 
 J. Tomasi, M. Cossi, J. M. Millam, M. Klene, C. Adamo, R. Cammi, 
 J. W. Ochterski, R. L. Martin, K. Morokuma, O. Farkas, 
 J. B. Foresman, and D. J. Fox, Gaussian, Inc., Wallingford CT, 2019.
 
 ******************************************
 Gaussian 16:  ES64L-G16RevC.01  3-Jul-2019
                11-Apr-2022 
 ******************************************
 %mem=8gb
 %nproc=8
 Will use up to    8 processors via shared memory.
 %chk=Mol_02.chk
 ----------------------------------------------------------------------
 #p B3LYP/cc-PVTZ scf(verytight, maxcycles=1000) opt(calcfc, maxcyc=100
 0) freq(hpmodes) int(grid=ultrafine)
 ----------------------------------------------------------------------
 1/6=1000,10=4,18=20,19=15,26=4,38=1/1,3;
 2/9=110,12=2,17=6,18=5,40=1/2;
 3/5=16,6=1,11=2,25=1,30=1,71=2,74=-5,75=-5,140=1/1,2,3;
 4//1;
 5/5=2,7=1000,17=3,38=5/2;
 8/6=4,10=90,11=11/1;
 11/6=1,8=1,9=11,15=111,16=1/1,2,10;
 10/6=1,13=1/2;
 6/7=2,8=2,9=2,10=2,28=1/1;
 7/10=1,25=1/1,2,3,16;
 1/6=1000,10=4,18=20,19=15,26=4/3(2);
 2/9=110/2;
 99//99;
 2/9=110/2;
 3/5=16,6=1,11=2,25=1,30=1,71=1,74=-5,75=-5/1,2,3;
 4/5=5,16=3,69=1/1;
 5/5=2,7=1000,17=3,38=5/2;
 7//1,2,3,16;
 1/6=1000,18=20,19=15,26=4/3(-5);
 2/9=110/2;
 6/7=2,8=2,9=2,10=2,19=2,28=1/1;
 99/9=1/99;
 Leave Link    1 at Mon Apr 11 19:35:02 2022, MaxMem=  1073741824 cpu:               0.5 elap:               0.1
 (Enter /home/saurabh/gaussian/g16/l101.exe)
 ------
 Mol_02
 ------
 Symbolic Z-matrix:
 Charge =  0 Multiplicity = 2
 C                    -3.76741   1.92208  -0.02378 
 C                    -2.46773   1.20084   0.39506 
 C                    -1.27034   2.06905  -0.02251 
 C                    -2.354    -0.16657  -0.31348 
 H                    -3.78802   2.08506  -1.12312 
 H                    -3.84153   2.90906   0.48131 
 H                    -4.6628    1.32363   0.24769 
 H                    -1.25884   2.22942  -1.12261 
 H                    -0.31627   1.58077   0.2719 
 H                    -1.31777   3.06072   0.47717 
 O                    -2.40459   1.0485    1.80149 
 H                    -1.41368  -0.67866  -0.01631 
 H                    -2.3522   -0.03669  -1.41741 
 H                    -3.20804  -0.82612  -0.05049 
 O                    -3.42769   0.30339   2.18186 
 
 ITRead=  0  0  0  0  0  0  0  0  0  0  0  0  0  0  0
 MicOpt= -1 -1 -1 -1 -1 -1 -1 -1 -1 -1 -1 -1 -1 -1 -1
 NAtoms=     15 NQM=       15 NQMF=       0 NMMI=      0 NMMIF=      0
                NMic=       0 NMicF=      0.
                    Isotopes and Nuclear Properties:
 (Nuclear quadrupole moments (NQMom) in fm**2, nuclear magnetic moments (NMagM)
  in nuclear magnetons)

  Atom         1           2           3           4           5           6           7           8           9          10
 IAtWgt=          12          12          12          12           1           1           1           1           1           1
 AtmWgt=  12.0000000  12.0000000  12.0000000  12.0000000   1.0078250   1.0078250   1.0078250   1.0078250   1.0078250   1.0078250
 NucSpn=           0           0           0           0           1           1           1           1           1           1
 AtZEff=  -0.0000000  -0.0000000  -0.0000000  -0.0000000  -0.0000000  -0.0000000  -0.0000000  -0.0000000  -0.0000000  -0.0000000
 NQMom=    0.0000000   0.0000000   0.0000000   0.0000000   0.0000000   0.0000000   0.0000000   0.0000000   0.0000000   0.0000000
 NMagM=    0.0000000   0.0000000   0.0000000   0.0000000   2.7928460   2.7928460   2.7928460   2.7928460   2.7928460   2.7928460
 AtZNuc=   6.0000000   6.0000000   6.0000000   6.0000000   1.0000000   1.0000000   1.0000000   1.0000000   1.0000000   1.0000000

  Atom        11          12          13          14          15
 IAtWgt=          16           1           1           1          16
 AtmWgt=  15.9949146   1.0078250   1.0078250   1.0078250  15.9949146
 NucSpn=           0           1           1           1           0
 AtZEff=  -0.0000000  -0.0000000  -0.0000000  -0.0000000  -0.0000000
 NQMom=    0.0000000   0.0000000   0.0000000   0.0000000   0.0000000
 NMagM=    0.0000000   2.7928460   2.7928460   2.7928460   0.0000000
 AtZNuc=   8.0000000   1.0000000   1.0000000   1.0000000   8.0000000
 Leave Link  101 at Mon Apr 11 19:35:02 2022, MaxMem=  1073741824 cpu:               1.5 elap:               0.2
 (Enter /home/saurabh/gaussian/g16/l103.exe)

 GradGradGradGradGradGradGradGradGradGradGradGradGradGradGradGradGradGrad
 Berny optimization.
 Initialization pass.
                           ----------------------------
                           !    Initial Parameters    !
                           ! (Angstroms and Degrees)  !
 --------------------------                            --------------------------
 ! Name  Definition              Value          Derivative Info.                !
 --------------------------------------------------------------------------------
 ! R1    R(1,2)                  1.5443         calculate D2E/DX2 analytically  !
 ! R2    R(1,5)                  1.1115         calculate D2E/DX2 analytically  !
 ! R3    R(1,6)                  1.1112         calculate D2E/DX2 analytically  !
 ! R4    R(1,7)                  1.1107         calculate D2E/DX2 analytically  !
 ! R5    R(2,3)                  1.5369         calculate D2E/DX2 analytically  !
 ! R6    R(2,4)                  1.5443         calculate D2E/DX2 analytically  !
 ! R7    R(2,11)                 1.4161         calculate D2E/DX2 analytically  !
 ! R8    R(3,8)                  1.1118         calculate D2E/DX2 analytically  !
 ! R9    R(3,9)                  1.1115         calculate D2E/DX2 analytically  !
 ! R10   R(3,10)                 1.1115         calculate D2E/DX2 analytically  !
 ! R11   R(4,12)                 1.1112         calculate D2E/DX2 analytically  !
 ! R12   R(4,13)                 1.1115         calculate D2E/DX2 analytically  !
 ! R13   R(4,14)                 1.1107         calculate D2E/DX2 analytically  !
 ! R14   R(11,15)                1.3216         calculate D2E/DX2 analytically  !
 ! A1    A(2,1,5)              110.6298         calculate D2E/DX2 analytically  !
 ! A2    A(2,1,6)              110.3462         calculate D2E/DX2 analytically  !
 ! A3    A(2,1,7)              111.1337         calculate D2E/DX2 analytically  !
 ! A4    A(5,1,6)              108.5469         calculate D2E/DX2 analytically  !
 ! A5    A(5,1,7)              107.806          calculate D2E/DX2 analytically  !
 ! A6    A(6,1,7)              108.2836         calculate D2E/DX2 analytically  !
 ! A7    A(1,2,3)              108.553          calculate D2E/DX2 analytically  !
 ! A8    A(1,2,4)              110.5543         calculate D2E/DX2 analytically  !
 ! A9    A(1,2,11)             110.9254         calculate D2E/DX2 analytically  !
 ! A10   A(3,2,4)              108.553          calculate D2E/DX2 analytically  !
 ! A11   A(3,2,11)             107.2109         calculate D2E/DX2 analytically  !
 ! A12   A(4,2,11)             110.9254         calculate D2E/DX2 analytically  !
 ! A13   A(2,3,8)              111.0013         calculate D2E/DX2 analytically  !
 ! A14   A(2,3,9)              110.4039         calculate D2E/DX2 analytically  !
 ! A15   A(2,3,10)             110.4039         calculate D2E/DX2 analytically  !
 ! A16   A(8,3,9)              108.4571         calculate D2E/DX2 analytically  !
 ! A17   A(8,3,10)             108.4571         calculate D2E/DX2 analytically  !
 ! A18   A(9,3,10)             108.0306         calculate D2E/DX2 analytically  !
 ! A19   A(2,4,12)             110.3462         calculate D2E/DX2 analytically  !
 ! A20   A(2,4,13)             110.6298         calculate D2E/DX2 analytically  !
 ! A21   A(2,4,14)             111.1337         calculate D2E/DX2 analytically  !
 ! A22   A(12,4,13)            108.5469         calculate D2E/DX2 analytically  !
 ! A23   A(12,4,14)            108.2836         calculate D2E/DX2 analytically  !
 ! A24   A(13,4,14)            107.806          calculate D2E/DX2 analytically  !
 ! A25   A(2,11,15)            108.1793         calculate D2E/DX2 analytically  !
 ! D1    D(5,1,2,3)             59.5818         calculate D2E/DX2 analytically  !
 ! D2    D(5,1,2,4)            -59.3841         calculate D2E/DX2 analytically  !
 ! D3    D(5,1,2,11)           177.1291         calculate D2E/DX2 analytically  !
 ! D4    D(6,1,2,3)            -60.557          calculate D2E/DX2 analytically  !
 ! D5    D(6,1,2,4)           -179.5229         calculate D2E/DX2 analytically  !
 ! D6    D(6,1,2,11)            56.9903         calculate D2E/DX2 analytically  !
 ! D7    D(7,1,2,3)            179.3063         calculate D2E/DX2 analytically  !
 ! D8    D(7,1,2,4)             60.3404         calculate D2E/DX2 analytically  !
 ! D9    D(7,1,2,11)           -63.1464         calculate D2E/DX2 analytically  !
 ! D10   D(1,2,3,8)            -60.1089         calculate D2E/DX2 analytically  !
 ! D11   D(1,2,3,9)            179.585          calculate D2E/DX2 analytically  !
 ! D12   D(1,2,3,10)            60.1973         calculate D2E/DX2 analytically  !
 ! D13   D(4,2,3,8)             60.1089         calculate D2E/DX2 analytically  !
 ! D14   D(4,2,3,9)            -60.1973         calculate D2E/DX2 analytically  !
 ! D15   D(4,2,3,10)          -179.585          calculate D2E/DX2 analytically  !
 ! D16   D(11,2,3,8)           180.0            calculate D2E/DX2 analytically  !
 ! D17   D(11,2,3,9)            59.6939         calculate D2E/DX2 analytically  !
 ! D18   D(11,2,3,10)          -59.6939         calculate D2E/DX2 analytically  !
 ! D19   D(1,2,4,12)           179.5229         calculate D2E/DX2 analytically  !
 ! D20   D(1,2,4,13)            59.3841         calculate D2E/DX2 analytically  !
 ! D21   D(1,2,4,14)           -60.3404         calculate D2E/DX2 analytically  !
 ! D22   D(3,2,4,12)            60.557          calculate D2E/DX2 analytically  !
 ! D23   D(3,2,4,13)           -59.5818         calculate D2E/DX2 analytically  !
 ! D24   D(3,2,4,14)          -179.3063         calculate D2E/DX2 analytically  !
 ! D25   D(11,2,4,12)          -56.9903         calculate D2E/DX2 analytically  !
 ! D26   D(11,2,4,13)         -177.1291         calculate D2E/DX2 analytically  !
 ! D27   D(11,2,4,14)           63.1464         calculate D2E/DX2 analytically  !
 ! D28   D(1,2,11,15)           61.6368         calculate D2E/DX2 analytically  !
 ! D29   D(3,2,11,15)          180.0            calculate D2E/DX2 analytically  !
 ! D30   D(4,2,11,15)          -61.6367         calculate D2E/DX2 analytically  !
 --------------------------------------------------------------------------------
 Trust Radius=3.00D-01 FncErr=1.00D-07 GrdErr=1.00D-06 EigMax=2.50D+02 EigMin=1.00D-04
 Number of steps in this run=    100 maximum allowed number of steps=    100.
 GradGradGradGradGradGradGradGradGradGradGradGradGradGradGradGradGradGrad

 Leave Link  103 at Mon Apr 11 19:35:02 2022, MaxMem=  1073741824 cpu:               0.1 elap:               0.0
 (Enter /home/saurabh/gaussian/g16/l202.exe)
                          Input orientation:                          
 ---------------------------------------------------------------------
 Center     Atomic      Atomic             Coordinates (Angstroms)
 Number     Number       Type             X           Y           Z
 ---------------------------------------------------------------------
      1          6           0       -3.767409    1.922077   -0.023778
      2          6           0       -2.467733    1.200839    0.395063
      3          6           0       -1.270335    2.069052   -0.022510
      4          6           0       -2.353996   -0.166569   -0.313478
      5          1           0       -3.788017    2.085062   -1.123116
      6          1           0       -3.841531    2.909061    0.481312
      7          1           0       -4.662800    1.323627    0.247687
      8          1           0       -1.258843    2.229415   -1.122608
      9          1           0       -0.316274    1.580767    0.271897
     10          1           0       -1.317775    3.060717    0.477170
     11          8           0       -2.404586    1.048497    1.801486
     12          1           0       -1.413675   -0.678659   -0.016314
     13          1           0       -2.352203   -0.036686   -1.417408
     14          1           0       -3.208042   -0.826115   -0.050488
     15          8           0       -3.427691    0.303389    2.181864
 ---------------------------------------------------------------------
                    Distance matrix (angstroms):
                    1          2          3          4          5
     1  C    0.000000
     2  C    1.544270   0.000000
     3  C    2.501396   1.536854   0.000000
     4  C    2.538525   1.544270   2.501396   0.000000
     5  H    1.111545   2.197696   2.747783   2.789582   0.000000
     6  H    1.111191   2.193805   2.751454   3.507699   1.804446
     7  H    1.110658   2.203433   3.483889   2.804669   1.795586
     8  H    2.755864   2.196067   1.111785   2.755864   2.533290
     9  H    3.480554   2.188217   1.111454   2.747391   3.775364
    10  H    2.747391   2.188217   1.111454   3.480554   3.100793
    11  O    2.439676   1.416058   2.378028   2.439676   3.397300
    12  H    3.507699   2.193805   2.751454   1.111191   3.807973
    13  H    2.789582   2.197696   2.747783   1.111545   2.578757
    14  H    2.804669   2.203433   3.483889   1.110658   3.156241
    15  O    2.756885   2.218016   3.554013   2.756885   3.771881
                    6          7          8          9         10
     6  H    0.000000
     7  H    1.800740   0.000000
     8  H    3.115245   3.779562   0.000000
     9  H    3.773017   4.354193   1.803836   0.000000
    10  H    2.528312   3.776154   1.803836   1.798720   0.000000
    11  O    2.696177   2.754908   3.355238   2.642727   2.642727
    12  H    4.360487   3.825658   3.115245   2.528312   3.773017
    13  H    3.807973   3.156241   2.533290   3.100793   3.775364
    14  H    3.825658   2.612781   3.779561   3.776154   4.354193
    15  O    3.138896   2.511458   4.396932   3.867891   3.867891
                   11         12         13         14         15
    11  O    0.000000
    12  H    2.696177   0.000000
    13  H    3.397300   1.804446   0.000000
    14  H    2.754908   1.800740   1.795586   0.000000
    15  O    1.321596   3.138896   3.771881   2.511458   0.000000
 Stoichiometry    C4H9O2(2)
 Framework group  CS[SG(C2HO2),X(C2H8)]
 Deg. of freedom    22
 Full point group                 CS      NOp   2
 Largest Abelian subgroup         CS      NOp   2
 Largest concise Abelian subgroup CS      NOp   2
                         Standard orientation:                         
 ---------------------------------------------------------------------
 Center     Atomic      Atomic             Coordinates (Angstroms)
 Number     Number       Type             X           Y           Z
 ---------------------------------------------------------------------
      1          6           0       -0.665773    0.633250    1.269262
      2          6           0        0.129137    0.256606    0.000000
      3          6           0        1.450760    1.040975    0.000000
      4          6           0       -0.665773    0.633250   -1.269262
      5          1           0       -0.877532    1.724253    1.289378
      6          1           0       -0.087108    0.368667    2.180244
      7          1           0       -1.638133    0.097807    1.306390
      8          1           0        1.263678    2.136906    0.000000
      9          1           0        2.052275    0.786687   -0.899360
     10          1           0        2.052275    0.786687    0.899360
     11          8           0        0.459175   -1.120455    0.000000
     12          1           0       -0.087108    0.368667   -2.180244
     13          1           0       -0.877532    1.724253   -1.289378
     14          1           0       -1.638133    0.097807   -1.306390
     15          8           0       -0.665773   -1.814073   -0.000000
 ---------------------------------------------------------------------
 Rotational constants (GHZ):           4.5462316           2.9522988           2.9153370
 Leave Link  202 at Mon Apr 11 19:35:02 2022, MaxMem=  1073741824 cpu:               0.1 elap:               0.0
 (Enter /home/saurabh/gaussian/g16/l301.exe)
 Standard basis: CC-pVTZ (5D, 7F)
 Ernie: Thresh=  0.10000D-02 Tol=  0.10000D-05 Strict=F.
 Ernie:  18 primitive shells out of 228 were deleted.
 There are   202 symmetry adapted cartesian basis functions of A'  symmetry.
 There are   143 symmetry adapted cartesian basis functions of A"  symmetry.
 There are   176 symmetry adapted basis functions of A'  symmetry.
 There are   130 symmetry adapted basis functions of A"  symmetry.
   306 basis functions,   465 primitive gaussians,   345 cartesian basis functions
    25 alpha electrons       24 beta electrons
       nuclear repulsion energy       261.4402456658 Hartrees.
 IExCor=  402 DFT=T Ex+Corr=B3LYP ExCW=0 ScaHFX=  0.200000
 ScaDFX=  0.800000  0.720000  1.000000  0.810000 ScalE2=  1.000000  1.000000
 IRadAn=      5 IRanWt=     -1 IRanGd=            0 ICorTp=0 IEmpDi=  4
 NAtoms=   15 NActive=   15 NUniq=   10 SFac= 2.25D+00 NAtFMM=   60 NAOKFM=F Big=F
 Integral buffers will be    131072 words long.
 Raffenetti 2 integral format.
 Two-electron integral symmetry is turned on.
 Leave Link  301 at Mon Apr 11 19:35:02 2022, MaxMem=  1073741824 cpu:               0.4 elap:               0.1
 (Enter /home/saurabh/gaussian/g16/l302.exe)
 NPDir=0 NMtPBC=     1 NCelOv=     1 NCel=       1 NClECP=     1 NCelD=      1
         NCelK=      1 NCelE2=     1 NClLst=     1 CellRange=     0.0.
 One-electron integrals computed using PRISM.
 One-electron integral symmetry used in STVInt
 NBasis=   306 RedAO= T EigKep=  6.30D-04  NBF=   176   130
 NBsUse=   306 1.00D-06 EigRej= -1.00D+00 NBFU=   176   130
 Precomputing XC quadrature grid using
 IXCGrd= 4 IRadAn=           5 IRanWt=          -1 IRanGd=           0 AccXCQ= 0.00D+00.
 Generated NRdTot=       0 NPtTot=           0 NUsed=           0 NTot=          32
 NSgBfM=   345   345   345   345   345 MxSgAt=    15 MxSgA2=    15.
 Leave Link  302 at Mon Apr 11 19:35:03 2022, MaxMem=  1073741824 cpu:               1.6 elap:               0.2
 (Enter /home/saurabh/gaussian/g16/l303.exe)
 DipDrv:  MaxL=1.
 Leave Link  303 at Mon Apr 11 19:35:03 2022, MaxMem=  1073741824 cpu:               0.3 elap:               0.1
 (Enter /home/saurabh/gaussian/g16/l401.exe)
 ExpMin= 1.03D-01 ExpMax= 1.53D+04 ExpMxC= 5.22D+02 IAcc=3 IRadAn=         5 AccDes= 0.00D+00
 Harris functional with IExCor=  402 and IRadAn=       5 diagonalized for initial guess.
 HarFok:  IExCor=  402 AccDes= 0.00D+00 IRadAn=         5 IDoV= 1 UseB2=F ITyADJ=14
 ICtDFT=  3500011 ScaDFX=  1.000000  1.000000  1.000000  1.000000
 FoFCou: FMM=F IPFlag=           0 FMFlag=      100000 FMFlg1=           0
         NFxFlg=           0 DoJE=T BraDBF=F KetDBF=T FulRan=T
         wScrn=  0.000000 ICntrl=       500 IOpCl=  0 I1Cent=   200000004 NGrid=           0
         NMat0=    1 NMatS0=      1 NMatT0=    0 NMatD0=    1 NMtDS0=    0 NMtDT0=    0
 Petite list used in FoFCou.
 Harris En= -308.311681801451    
 JPrj=0 DoOrth=F DoCkMO=F.
 Initial guess orbital symmetries:
 Alpha Orbitals:
       Occupied  (A') (A') (A') (A') (A") (A') (A') (A') (A') (A")
                 (A') (A') (A') (A") (A') (A') (A") (A') (A") (A')
                 (A") (A') (A") (A') (A")
       Virtual   (A') (A') (A') (A") (A') (A") (A') (A') (A") (A')
                 (A') (A") (A") (A') (A') (A") (A') (A") (A') (A")
                 (A') (A') (A') (A") (A') (A") (A') (A") (A') (A")
                 (A') (A") (A') (A") (A') (A') (A') (A") (A') (A')
                 (A") (A') (A") (A') (A") (A") (A') (A') (A') (A")
                 (A') (A") (A') (A") (A') (A") (A') (A") (A') (A")
                 (A") (A') (A') (A") (A') (A') (A") (A') (A') (A")
                 (A') (A") (A') (A") (A') (A") (A') (A") (A') (A')
                 (A") (A') (A") (A') (A') (A') (A") (A") (A') (A")
                 (A') (A") (A") (A') (A') (A") (A') (A') (A") (A')
                 (A') (A") (A') (A") (A') (A') (A") (A") (A') (A")
                 (A') (A') (A') (A") (A') (A') (A") (A") (A') (A')
                 (A') (A") (A') (A") (A") (A') (A') (A") (A") (A')
                 (A') (A") (A') (A") (A') (A") (A') (A") (A') (A")
                 (A') (A") (A") (A') (A") (A') (A') (A") (A') (A')
                 (A") (A') (A") (A') (A") (A") (A') (A') (A') (A")
                 (A") (A') (A") (A') (A') (A") (A") (A') (A') (A")
                 (A') (A') (A") (A') (A") (A") (A') (A') (A') (A")
                 (A') (A") (A') (A') (A") (A") (A') (A") (A") (A')
                 (A') (A") (A') (A") (A') (A') (A") (A') (A") (A")
                 (A') (A') (A') (A") (A") (A') (A") (A') (A") (A')
                 (A") (A') (A') (A") (A') (A") (A") (A') (A') (A")
                 (A') (A") (A") (A') (A') (A') (A") (A') (A") (A')
                 (A") (A') (A") (A') (A") (A') (A") (A") (A') (A')
                 (A') (A") (A') (A") (A') (A') (A") (A') (A') (A")
                 (A") (A') (A") (A') (A') (A") (A") (A') (A') (A")
                 (A") (A') (A") (A') (A") (A') (A") (A') (A') (A')
                 (A") (A") (A') (A') (A') (A') (A') (A') (A") (A')
                 (A')
 Beta  Orbitals:
       Occupied  (A') (A') (A') (A') (A") (A') (A') (A') (A') (A")
                 (A') (A') (A') (A") (A') (A') (A") (A') (A") (A')
                 (A") (A') (A") (A')
       Virtual   (A") (A') (A') (A') (A") (A') (A") (A') (A') (A")
                 (A') (A') (A") (A") (A') (A') (A") (A') (A") (A')
                 (A") (A') (A') (A') (A") (A') (A") (A') (A") (A')
                 (A") (A') (A") (A') (A") (A') (A') (A') (A") (A')
                 (A') (A") (A') (A") (A') (A") (A") (A') (A') (A')
                 (A") (A') (A") (A') (A") (A') (A") (A') (A") (A')
                 (A") (A") (A') (A') (A") (A') (A') (A") (A') (A')
                 (A") (A') (A") (A') (A") (A') (A") (A') (A") (A')
                 (A') (A") (A') (A") (A') (A') (A') (A") (A") (A')
                 (A") (A') (A") (A") (A') (A') (A") (A') (A') (A")
                 (A') (A') (A") (A') (A") (A') (A') (A") (A") (A')
                 (A") (A') (A') (A') (A") (A') (A') (A") (A") (A')
                 (A') (A') (A") (A') (A") (A") (A') (A') (A") (A")
                 (A') (A') (A") (A') (A") (A') (A") (A') (A") (A')
                 (A") (A') (A") (A") (A') (A") (A') (A') (A") (A')
                 (A') (A") (A') (A") (A') (A") (A") (A') (A') (A')
                 (A") (A") (A') (A") (A') (A') (A") (A") (A') (A')
                 (A") (A') (A') (A") (A') (A") (A") (A') (A') (A')
                 (A") (A') (A") (A') (A') (A") (A") (A') (A") (A")
                 (A') (A') (A") (A') (A") (A') (A') (A") (A') (A")
                 (A") (A') (A') (A') (A") (A") (A') (A") (A') (A")
                 (A') (A") (A') (A') (A") (A') (A") (A") (A') (A')
                 (A") (A') (A") (A") (A') (A') (A') (A") (A') (A")
                 (A') (A") (A') (A") (A') (A") (A') (A") (A") (A')
                 (A') (A') (A") (A') (A") (A') (A') (A") (A') (A')
                 (A") (A") (A') (A") (A') (A') (A") (A") (A') (A')
                 (A") (A") (A') (A") (A') (A") (A') (A") (A') (A')
                 (A') (A") (A") (A') (A') (A') (A') (A') (A') (A")
                 (A') (A')
 The electronic state of the initial guess is 2-A".
 Initial guess <Sx>= 0.0000 <Sy>= 0.0000 <Sz>= 0.5000 <S**2>= 0.7500 S= 0.5000
 Leave Link  401 at Mon Apr 11 19:35:03 2022, MaxMem=  1073741824 cpu:               5.0 elap:               0.7
 (Enter /home/saurabh/gaussian/g16/l502.exe)
 Integral symmetry usage will be decided dynamically.
 UHF open shell SCF:
 Using DIIS extrapolation, IDIIS=  1040.
 NGot=  1073741824 LenX=  1073496779 LenY=  1073377313
 Requested convergence on RMS density matrix=1.00D-08 within1000 cycles.
 Requested convergence on MAX density matrix=1.00D-06.
 Requested convergence on             energy=1.00D-06.
 No special actions if energy rises.
 Fock matrices will be formed incrementally for  20 cycles.
 Integral accuracy reduced to 1.0D-05 until final iterations.

 Cycle   1  Pass 0  IDiag  1:
 FoFJK:  IHMeth= 1 ICntrl=       0 DoSepK=F KAlg= 0 I1Cent=           0 FoldK=F
 IRaf= 990000000 NMat=       1 IRICut=       1 DoRegI=T DoRafI=F ISym2E= 1 IDoP0=0 IntGTp=1.
 FoFCou: FMM=F IPFlag=           0 FMFlag=      100000 FMFlg1=           0
         NFxFlg=           0 DoJE=F BraDBF=F KetDBF=F FulRan=T
         wScrn=  0.000000 ICntrl=         0 IOpCl=  1 I1Cent=           0 NGrid=           0
         NMat0=    1 NMatS0=      1 NMatT0=    0 NMatD0=    1 NMtDS0=    0 NMtDT0=    0
 Petite list used in FoFCou.
 E= -308.066002602242    
 DIIS: error= 3.57D-02 at cycle   1 NSaved=   1.
 NSaved= 1 IEnMin= 1 EnMin= -308.066002602242     IErMin= 1 ErrMin= 3.57D-02
 ErrMax= 3.57D-02  0.00D+00 EMaxC= 1.00D-01 BMatC= 9.62D-01 BMatP= 9.62D-01
 IDIUse=3 WtCom= 6.43D-01 WtEn= 3.57D-01
 Coeff-Com:  0.100D+01
 Coeff-En:   0.100D+01
 Coeff:      0.100D+01
 Gap=     0.307 Goal=   None    Shift=    0.000
 Gap=     0.116 Goal=   None    Shift=    0.000
 GapD=    0.116 DampG=1.000 DampE=0.500 DampFc=0.5000 IDamp=-1.
 Damping current iteration by 5.00D-01
 RMSDP=2.09D-03 MaxDP=6.00D-02              OVMax= 2.11D-01

 Cycle   2  Pass 0  IDiag  1:
 RMSU=  1.04D-03    CP:  9.93D-01
 E= -308.150612664221     Delta-E=       -0.084610061978 Rises=F Damp=T
 DIIS: error= 8.41D-03 at cycle   2 NSaved=   2.
 NSaved= 2 IEnMin= 2 EnMin= -308.150612664221     IErMin= 2 ErrMin= 8.41D-03
 ErrMax= 8.41D-03  0.00D+00 EMaxC= 1.00D-01 BMatC= 1.03D-01 BMatP= 9.62D-01
 IDIUse=3 WtCom= 9.16D-01 WtEn= 8.41D-02
 Coeff-Com:  0.137D+00 0.863D+00
 Coeff-En:   0.220D+00 0.780D+00
 Coeff:      0.144D+00 0.856D+00
 Gap=     0.319 Goal=   None    Shift=    0.000
 Gap=     0.155 Goal=   None    Shift=    0.000
 RMSDP=5.08D-04 MaxDP=2.42D-02 DE=-8.46D-02 OVMax= 1.30D-01

 Cycle   3  Pass 0  IDiag  1:
 RMSU=  4.73D-04    CP:  9.94D-01  8.22D-01
 E= -308.264574713577     Delta-E=       -0.113962049356 Rises=F Damp=F
 DIIS: error= 1.31D-02 at cycle   3 NSaved=   3.
 NSaved= 3 IEnMin= 3 EnMin= -308.264574713577     IErMin= 2 ErrMin= 8.41D-03
 ErrMax= 1.31D-02  0.00D+00 EMaxC= 1.00D-01 BMatC= 1.13D-01 BMatP= 1.03D-01
 IDIUse=2 WtCom= 0.00D+00 WtEn= 1.00D+00
 Coeff-En:   0.000D+00 0.000D+00 0.100D+01
 Coeff:      0.000D+00 0.000D+00 0.100D+01
 Gap=     0.297 Goal=   None    Shift=    0.000
 Gap=     0.131 Goal=   None    Shift=    0.000
 RMSDP=8.05D-04 MaxDP=5.74D-02 DE=-1.14D-01 OVMax= 1.45D-01

 Cycle   4  Pass 0  IDiag  1:
 RMSU=  5.27D-04    CP:  9.96D-01  9.86D-01 -2.34D-01
 E= -308.181653738528     Delta-E=        0.082920975049 Rises=F Damp=F
 DIIS: error= 3.43D-02 at cycle   4 NSaved=   4.
 NSaved= 4 IEnMin= 3 EnMin= -308.264574713577     IErMin= 2 ErrMin= 8.41D-03
 ErrMax= 3.43D-02  0.00D+00 EMaxC= 1.00D-01 BMatC= 6.26D-01 BMatP= 1.03D-01
 IDIUse=2 WtCom= 0.00D+00 WtEn= 1.00D+00
 Coeff-En:   0.000D+00 0.000D+00 0.783D+00 0.217D+00
 Coeff:      0.000D+00 0.000D+00 0.783D+00 0.217D+00
 Gap=     0.308 Goal=   None    Shift=    0.000
 Gap=     0.145 Goal=   None    Shift=    0.000
 RMSDP=4.29D-04 MaxDP=2.69D-02 DE= 8.29D-02 OVMax= 6.75D-02

 Cycle   5  Pass 0  IDiag  1:
 RMSU=  1.00D-04    CP:  9.95D-01  8.75D-01  3.84D-01  4.80D-01
 E= -308.275690122297     Delta-E=       -0.094036383769 Rises=F Damp=F
 DIIS: error= 9.44D-03 at cycle   5 NSaved=   5.
 NSaved= 5 IEnMin= 5 EnMin= -308.275690122297     IErMin= 2 ErrMin= 8.41D-03
 ErrMax= 9.44D-03  0.00D+00 EMaxC= 1.00D-01 BMatC= 4.99D-02 BMatP= 1.03D-01
 IDIUse=3 WtCom= 9.06D-01 WtEn= 9.44D-02
 Coeff-Com: -0.207D-02 0.451D-02 0.278D+00-0.122D+00 0.842D+00
 Coeff-En:   0.000D+00 0.000D+00 0.346D+00 0.000D+00 0.654D+00
 Coeff:     -0.187D-02 0.409D-02 0.284D+00-0.111D+00 0.824D+00
 Gap=     0.310 Goal=   None    Shift=    0.000
 Gap=     0.153 Goal=   None    Shift=    0.000
 RMSDP=1.60D-04 MaxDP=1.01D-02 DE=-9.40D-02 OVMax= 2.30D-02

 Cycle   6  Pass 0  IDiag  1:
 RMSU=  2.69D-05    CP:  9.94D-01  8.47D-01  6.43D-01  2.98D-01  1.01D+00
 E= -308.283752240968     Delta-E=       -0.008062118672 Rises=F Damp=F
 DIIS: error= 3.58D-04 at cycle   6 NSaved=   6.
 NSaved= 6 IEnMin= 6 EnMin= -308.283752240968     IErMin= 6 ErrMin= 3.58D-04
 ErrMax= 3.58D-04  0.00D+00 EMaxC= 1.00D-01 BMatC= 1.31D-04 BMatP= 4.99D-02
 IDIUse=3 WtCom= 9.96D-01 WtEn= 3.58D-03
 Coeff-Com: -0.243D-02 0.108D-02 0.747D-01-0.806D-01 0.391D+00 0.617D+00
 Coeff-En:   0.000D+00 0.000D+00 0.000D+00 0.000D+00 0.000D+00 0.100D+01
 Coeff:     -0.242D-02 0.108D-02 0.744D-01-0.803D-01 0.389D+00 0.618D+00
 Gap=     0.308 Goal=   None    Shift=    0.000
 Gap=     0.153 Goal=   None    Shift=    0.000
 RMSDP=1.50D-05 MaxDP=7.49D-04 DE=-8.06D-03 OVMax= 2.39D-03

 Cycle   7  Pass 0  IDiag  1:
 RMSU=  1.05D-05    CP:  9.94D-01  8.49D-01  6.45D-01  2.99D-01  1.11D+00
                    CP:  9.48D-01
 E= -308.283784041755     Delta-E=       -0.000031800787 Rises=F Damp=F
 DIIS: error= 2.27D-04 at cycle   7 NSaved=   7.
 NSaved= 7 IEnMin= 7 EnMin= -308.283784041755     IErMin= 7 ErrMin= 2.27D-04
 ErrMax= 2.27D-04  0.00D+00 EMaxC= 1.00D-01 BMatC= 2.62D-05 BMatP= 1.31D-04
 IDIUse=3 WtCom= 9.98D-01 WtEn= 2.27D-03
 Coeff-Com:  0.403D-03-0.155D-02-0.419D-01 0.103D-01-0.117D+00 0.708D-01
 Coeff-Com:  0.108D+01
 Coeff-En:   0.000D+00 0.000D+00 0.000D+00 0.000D+00 0.000D+00 0.000D+00
 Coeff-En:   0.100D+01
 Coeff:      0.402D-03-0.155D-02-0.418D-01 0.102D-01-0.117D+00 0.706D-01
 Coeff:      0.108D+01
 Gap=     0.309 Goal=   None    Shift=    0.000
 Gap=     0.154 Goal=   None    Shift=    0.000
 RMSDP=1.04D-05 MaxDP=6.46D-04 DE=-3.18D-05 OVMax= 2.40D-03

 Cycle   8  Pass 0  IDiag  1:
 RMSU=  4.94D-06    CP:  9.94D-01  8.48D-01  6.51D-01  3.00D-01  1.17D+00
                    CP:  1.16D+00  1.23D+00
 E= -308.283792233405     Delta-E=       -0.000008191650 Rises=F Damp=F
 DIIS: error= 9.05D-05 at cycle   8 NSaved=   8.
 NSaved= 8 IEnMin= 8 EnMin= -308.283792233405     IErMin= 8 ErrMin= 9.05D-05
 ErrMax= 9.05D-05  0.00D+00 EMaxC= 1.00D-01 BMatC= 3.84D-06 BMatP= 2.62D-05
 IDIUse=1 WtCom= 1.00D+00 WtEn= 0.00D+00
 Coeff-Com:  0.416D-03-0.491D-03-0.198D-01 0.986D-02-0.750D-01-0.500D-01
 Coeff-Com:  0.377D+00 0.758D+00
 Coeff:      0.416D-03-0.491D-03-0.198D-01 0.986D-02-0.750D-01-0.500D-01
 Coeff:      0.377D+00 0.758D+00
 Gap=     0.309 Goal=   None    Shift=    0.000
 Gap=     0.154 Goal=   None    Shift=    0.000
 RMSDP=3.48D-06 MaxDP=1.65D-04 DE=-8.19D-06 OVMax= 6.76D-04

 Initial convergence to 1.0D-05 achieved.  Increase integral accuracy.
 Cycle   9  Pass 1  IDiag  1:
 E= -308.283810923402     Delta-E=       -0.000018689998 Rises=F Damp=F
 DIIS: error= 3.44D-05 at cycle   1 NSaved=   1.
 NSaved= 1 IEnMin= 1 EnMin= -308.283810923402     IErMin= 1 ErrMin= 3.44D-05
 ErrMax= 3.44D-05  0.00D+00 EMaxC= 1.00D-01 BMatC= 1.25D-06 BMatP= 1.25D-06
 IDIUse=1 WtCom= 1.00D+00 WtEn= 0.00D+00
 Coeff-Com:  0.100D+01
 Coeff:      0.100D+01
 Gap=     0.309 Goal=   None    Shift=    0.000
 Gap=     0.154 Goal=   None    Shift=    0.000
 RMSDP=3.48D-06 MaxDP=1.65D-04 DE=-1.87D-05 OVMax= 1.81D-04

 Cycle  10  Pass 1  IDiag  1:
 RMSU=  4.81D-06    CP:  1.00D+00
 E= -308.283810923515     Delta-E=       -0.000000000113 Rises=F Damp=F
 DIIS: error= 3.67D-05 at cycle   2 NSaved=   2.
 NSaved= 2 IEnMin= 2 EnMin= -308.283810923515     IErMin= 1 ErrMin= 3.44D-05
 ErrMax= 3.67D-05  0.00D+00 EMaxC= 1.00D-01 BMatC= 1.09D-06 BMatP= 1.25D-06
 IDIUse=1 WtCom= 1.00D+00 WtEn= 0.00D+00
 Coeff-Com:  0.477D+00 0.523D+00
 Coeff:      0.477D+00 0.523D+00
 Gap=     0.309 Goal=   None    Shift=    0.000
 Gap=     0.154 Goal=   None    Shift=    0.000
 RMSDP=1.61D-06 MaxDP=9.57D-05 DE=-1.13D-10 OVMax= 3.43D-04

 Cycle  11  Pass 1  IDiag  1:
 RMSU=  1.47D-06    CP:  1.00D+00  8.67D-01
 E= -308.283811029406     Delta-E=       -0.000000105891 Rises=F Damp=F
 DIIS: error= 3.90D-05 at cycle   3 NSaved=   3.
 NSaved= 3 IEnMin= 3 EnMin= -308.283811029406     IErMin= 1 ErrMin= 3.44D-05
 ErrMax= 3.90D-05  0.00D+00 EMaxC= 1.00D-01 BMatC= 6.63D-07 BMatP= 1.09D-06
 IDIUse=1 WtCom= 1.00D+00 WtEn= 0.00D+00
 Coeff-Com:  0.608D-01 0.427D+00 0.513D+00
 Coeff:      0.608D-01 0.427D+00 0.513D+00
 Gap=     0.309 Goal=   None    Shift=    0.000
 Gap=     0.154 Goal=   None    Shift=    0.000
 RMSDP=7.17D-07 MaxDP=3.85D-05 DE=-1.06D-07 OVMax= 8.38D-05

 Cycle  12  Pass 1  IDiag  1:
 RMSU=  5.51D-07    CP:  1.00D+00  9.16D-01  7.34D-01
 E= -308.283811132371     Delta-E=       -0.000000102965 Rises=F Damp=F
 DIIS: error= 6.10D-06 at cycle   4 NSaved=   4.
 NSaved= 4 IEnMin= 4 EnMin= -308.283811132371     IErMin= 4 ErrMin= 6.10D-06
 ErrMax= 6.10D-06  0.00D+00 EMaxC= 1.00D-01 BMatC= 4.26D-08 BMatP= 6.63D-07
 IDIUse=1 WtCom= 1.00D+00 WtEn= 0.00D+00
 Coeff-Com: -0.302D-01 0.198D+00 0.272D+00 0.560D+00
 Coeff:     -0.302D-01 0.198D+00 0.272D+00 0.560D+00
 Gap=     0.309 Goal=   None    Shift=    0.000
 Gap=     0.154 Goal=   None    Shift=    0.000
 RMSDP=3.13D-07 MaxDP=1.96D-05 DE=-1.03D-07 OVMax= 3.71D-05

 Cycle  13  Pass 1  IDiag  1:
 RMSU=  2.40D-07    CP:  1.00D+00  9.40D-01  6.96D-01  7.18D-01
 E= -308.283811142738     Delta-E=       -0.000000010367 Rises=F Damp=F
 DIIS: error= 4.88D-06 at cycle   5 NSaved=   5.
 NSaved= 5 IEnMin= 5 EnMin= -308.283811142738     IErMin= 5 ErrMin= 4.88D-06
 ErrMax= 4.88D-06  0.00D+00 EMaxC= 1.00D-01 BMatC= 6.55D-09 BMatP= 4.26D-08
 IDIUse=1 WtCom= 1.00D+00 WtEn= 0.00D+00
 Coeff-Com: -0.407D-02-0.105D+00-0.238D+00-0.719D-01 0.142D+01
 Coeff:     -0.407D-02-0.105D+00-0.238D+00-0.719D-01 0.142D+01
 Gap=     0.309 Goal=   None    Shift=    0.000
 Gap=     0.154 Goal=   None    Shift=    0.000
 RMSDP=2.00D-07 MaxDP=1.23D-05 DE=-1.04D-08 OVMax= 4.12D-05

 Cycle  14  Pass 1  IDiag  1:
 RMSU=  6.83D-08    CP:  1.00D+00  9.50D-01  6.94D-01  9.37D-01  1.57D+00
 E= -308.283811145193     Delta-E=       -0.000000002455 Rises=F Damp=F
 DIIS: error= 1.14D-06 at cycle   6 NSaved=   6.
 NSaved= 6 IEnMin= 6 EnMin= -308.283811145193     IErMin= 6 ErrMin= 1.14D-06
 ErrMax= 1.14D-06  0.00D+00 EMaxC= 1.00D-01 BMatC= 9.44D-10 BMatP= 6.55D-09
 IDIUse=1 WtCom= 1.00D+00 WtEn= 0.00D+00
 Coeff-Com:  0.120D-02-0.787D-01-0.167D+00-0.983D-01 0.787D+00 0.557D+00
 Coeff:      0.120D-02-0.787D-01-0.167D+00-0.983D-01 0.787D+00 0.557D+00
 Gap=     0.309 Goal=   None    Shift=    0.000
 Gap=     0.154 Goal=   None    Shift=    0.000
 RMSDP=5.01D-08 MaxDP=2.04D-06 DE=-2.46D-09 OVMax= 5.14D-06

 Cycle  15  Pass 1  IDiag  1:
 RMSU=  1.96D-08    CP:  1.00D+00  9.53D-01  6.92D-01  9.91D-01  1.67D+00
                    CP:  6.71D-01
 E= -308.283811145452     Delta-E=       -0.000000000258 Rises=F Damp=F
 DIIS: error= 2.41D-07 at cycle   7 NSaved=   7.
 NSaved= 7 IEnMin= 7 EnMin= -308.283811145452     IErMin= 7 ErrMin= 2.41D-07
 ErrMax= 2.41D-07  0.00D+00 EMaxC= 1.00D-01 BMatC= 3.15D-11 BMatP= 9.44D-10
 IDIUse=1 WtCom= 1.00D+00 WtEn= 0.00D+00
 Coeff-Com:  0.740D-03-0.279D-01-0.581D-01-0.379D-01 0.259D+00 0.241D+00
 Coeff-Com:  0.623D+00
 Coeff:      0.740D-03-0.279D-01-0.581D-01-0.379D-01 0.259D+00 0.241D+00
 Coeff:      0.623D+00
 Gap=     0.309 Goal=   None    Shift=    0.000
 Gap=     0.154 Goal=   None    Shift=    0.000
 RMSDP=7.38D-09 MaxDP=3.80D-07 DE=-2.58D-10 OVMax= 9.87D-07

 SCF Done:  E(UB3LYP) =  -308.283811145     A.U. after   15 cycles
            NFock= 15  Conv=0.74D-08     -V/T= 2.0073
 <Sx>= 0.0000 <Sy>= 0.0000 <Sz>= 0.5000 <S**2>= 0.7538 S= 0.5019
 <L.S>=  0.00000000000    
 KE= 3.060566236857D+02 PE=-1.242805454616D+03 EE= 3.670247741190D+02
 Annihilation of the first spin contaminant:
 S**2 before annihilation     0.7538,   after     0.7500
 Leave Link  502 at Mon Apr 11 19:35:33 2022, MaxMem=  1073741824 cpu:             239.5 elap:              30.0
 (Enter /home/saurabh/gaussian/g16/l801.exe)
 DoSCS=F DFT=T ScalE2(SS,OS)=  1.000000  1.000000
 Range of M.O.s used for correlation:     1   306
 NBasis=   306 NAE=    25 NBE=    24 NFC=     0 NFV=     0
 NROrb=    306 NOA=    25 NOB=    24 NVA=   281 NVB=   282

 **** Warning!!: The largest alpha MO coefficient is  0.13290144D+02


 **** Warning!!: The largest beta MO coefficient is  0.13463570D+02

 Leave Link  801 at Mon Apr 11 19:35:33 2022, MaxMem=  1073741824 cpu:               0.2 elap:               0.1
 (Enter /home/saurabh/gaussian/g16/l1101.exe)
 Using compressed storage, NAtomX=    15.
 Will process     16 centers per pass.
 Leave Link 1101 at Mon Apr 11 19:35:34 2022, MaxMem=  1073741824 cpu:               2.2 elap:               0.3
 (Enter /home/saurabh/gaussian/g16/l1102.exe)
 Symmetrizing basis deriv contribution to polar:
 IMax=3 JMax=2 DiffMx= 0.00D+00
 Leave Link 1102 at Mon Apr 11 19:35:34 2022, MaxMem=  1073741824 cpu:               0.3 elap:               0.1
 (Enter /home/saurabh/gaussian/g16/l1110.exe)
 Forming Gx(P) for the SCF density, NAtomX=    15.
 Integral derivatives from FoFJK, PRISM(SPDF).
 Do as many integral derivatives as possible in FoFJK.
 G2DrvN: MDV=    1073740143.
 G2DrvN: will do    16 centers at a time, making    1 passes.
 Calling FoFCou, ICntrl=  3107 FMM=F I1Cent=   0 AccDes= 0.00D+00.
 FoFJK:  IHMeth= 1 ICntrl=    3107 DoSepK=F KAlg= 0 I1Cent=           0 FoldK=F
 IRaf=         0 NMat=       1 IRICut=       1 DoRegI=T DoRafI=F ISym2E= 1 IDoP0=0 IntGTp=1.
 FoFCou: FMM=F IPFlag=           0 FMFlag=      100000 FMFlg1=           0
         NFxFlg=           0 DoJE=F BraDBF=F KetDBF=F FulRan=T
         wScrn=  0.000000 ICntrl=      3107 IOpCl=  1 I1Cent=           0 NGrid=           0
         NMat0=    1 NMatS0=      1 NMatT0=    0 NMatD0=    1 NMtDS0=    0 NMtDT0=    0
 Petite list used in FoFCou.
 End of G2Drv F.D. properties file   721 does not exist.
 End of G2Drv F.D. properties file   722 does not exist.
 End of G2Drv F.D. properties file   788 does not exist.
 Leave Link 1110 at Mon Apr 11 19:36:22 2022, MaxMem=  1073741824 cpu:             386.0 elap:              48.3
 (Enter /home/saurabh/gaussian/g16/l1002.exe)
 Minotr:  UHF open shell wavefunction.
          IDoAtm=111111111111111
          Direct CPHF calculation.
          Differentiating once with respect to nuclear coordinates.
          Using symmetry in CPHF.
          Requested convergence is 1.0D-08 RMS, and 1.0D-07 maximum.
          Secondary convergence is 1.0D-12 RMS, and 1.0D-12 maximum.
          NewPWx=T KeepS1=F KeepF1=F KeepIn=T MapXYZ=F SortEE=F KeepMc=T.
         4450 words used for storage of precomputed grid.
 Two-electron integrals replicated using symmetry.
          MDV=    1073741824 using IRadAn=       1.
          Solving linear equations simultaneously, MaxMat=     384.
 FoF2E skips out because all densities are zero.
 CalDSu exits because no D1Ps are significant.
 FoFJK:  IHMeth= 1 ICntrl=       0 DoSepK=F KAlg= 0 I1Cent=           0 FoldK=F
 IRaf= 980000000 NMat=      30 IRICut=      75 DoRegI=T DoRafI=T ISym2E= 2 IDoP0=3 IntGTp=3.
 FoFCou: FMM=F IPFlag=           0 FMFlag=      100000 FMFlg1=           0
         NFxFlg=           0 DoJE=F BraDBF=F KetDBF=F FulRan=T
         wScrn=  0.000000 ICntrl=         0 IOpCl=  1 I1Cent=           0 NGrid=           0
         NMat0=   30 NMatS0=     30 NMatT0=    0 NMatD0=   30 NMtDS0=    0 NMtDT0=    0
 Integrals replicated using symmetry in FoFCou.
 Raff kept on since  96.77% of shell-pairs survive, threshold=   0.20 IRatSp=97.
          There are    33 degrees of freedom in the 1st order CPHF.  IDoFFX=4 NUNeed=    33.
     30 vectors produced by pass  0 Test12= 4.18D-14 3.03D-09 XBig12= 2.51D-01 1.32D-01.
 AX will form    30 AO Fock derivatives at one time.
     30 vectors produced by pass  1 Test12= 4.18D-14 3.03D-09 XBig12= 9.60D-02 1.06D-01.
     30 vectors produced by pass  2 Test12= 4.18D-14 3.03D-09 XBig12= 2.93D-03 9.55D-03.
     30 vectors produced by pass  3 Test12= 4.18D-14 3.03D-09 XBig12= 3.11D-05 6.81D-04.
     30 vectors produced by pass  4 Test12= 4.18D-14 3.03D-09 XBig12= 3.75D-07 8.70D-05.
     30 vectors produced by pass  5 Test12= 4.18D-14 3.03D-09 XBig12= 3.99D-09 6.18D-06.
     25 vectors produced by pass  6 Test12= 4.18D-14 3.03D-09 XBig12= 2.67D-11 5.59D-07.
     11 vectors produced by pass  7 Test12= 4.18D-14 3.03D-09 XBig12= 1.10D-13 4.62D-08.
 InvSVY:  IOpt=1 It=  1 EMax= 4.44D-16
 Solved reduced A of dimension   216 with    33 vectors.
 FullF1:  Do perturbations      4 to      33.
 End of Minotr F.D. properties file   721 does not exist.
 End of Minotr F.D. properties file   722 does not exist.
 End of Minotr F.D. properties file   788 does not exist.
 Leave Link 1002 at Mon Apr 11 19:39:39 2022, MaxMem=  1073741824 cpu:            1578.1 elap:             197.3
 (Enter /home/saurabh/gaussian/g16/l601.exe)
 Copying SCF densities to generalized density rwf, IOpCl= 1 IROHF=0.

 **********************************************************************

            Population analysis using the SCF Density.

 **********************************************************************

 Orbital symmetries:
 Alpha Orbitals:
       Occupied  (A') (A') (A') (A') (A") (A') (A') (A') (A') (A")
                 (A') (A') (A") (A') (A') (A") (A') (A') (A') (A")
                 (A") (A") (A') (A') (A")
       Virtual   (A') (A') (A') (A") (A") (A') (A') (A') (A") (A')
                 (A") (A') (A") (A') (A') (A") (A') (A") (A') (A")
                 (A') (A') (A') (A") (A') (A") (A") (A') (A') (A')
                 (A") (A") (A') (A") (A') (A') (A') (A") (A') (A')
                 (A") (A') (A") (A') (A") (A') (A") (A') (A') (A")
                 (A') (A") (A') (A") (A') (A") (A") (A') (A') (A")
                 (A") (A') (A') (A") (A') (A') (A") (A') (A') (A")
                 (A') (A') (A") (A") (A') (A') (A") (A") (A') (A')
                 (A") (A') (A") (A') (A') (A") (A') (A") (A') (A")
                 (A") (A") (A') (A') (A') (A") (A') (A') (A") (A')
                 (A') (A") (A') (A') (A") (A') (A") (A") (A') (A")
                 (A') (A') (A') (A") (A') (A') (A") (A") (A') (A')
                 (A') (A") (A') (A") (A") (A') (A') (A") (A") (A')
                 (A') (A") (A') (A") (A') (A") (A') (A") (A') (A")
                 (A') (A") (A') (A") (A") (A') (A') (A") (A') (A')
                 (A") (A') (A") (A') (A") (A") (A') (A') (A') (A")
                 (A") (A') (A") (A') (A') (A") (A") (A') (A") (A')
                 (A') (A") (A') (A') (A") (A") (A') (A') (A') (A")
                 (A') (A") (A') (A") (A') (A") (A') (A") (A") (A')
                 (A') (A") (A") (A') (A') (A") (A') (A') (A") (A')
                 (A") (A') (A') (A") (A") (A') (A") (A') (A') (A")
                 (A") (A') (A') (A") (A') (A") (A") (A') (A') (A")
                 (A") (A') (A') (A") (A') (A') (A") (A') (A") (A')
                 (A") (A") (A') (A") (A') (A') (A") (A") (A') (A')
                 (A') (A") (A') (A') (A") (A') (A") (A') (A') (A")
                 (A") (A') (A") (A') (A") (A') (A") (A') (A') (A")
                 (A") (A') (A") (A') (A") (A') (A") (A') (A') (A')
                 (A") (A") (A') (A') (A') (A') (A') (A') (A") (A')
                 (A')
 Beta  Orbitals:
       Occupied  (A') (A') (A') (A') (A') (A") (A') (A') (A') (A")
                 (A') (A') (A') (A') (A") (A') (A") (A') (A') (A")
                 (A") (A') (A") (A')
       Virtual   (A") (A') (A') (A') (A") (A") (A') (A') (A') (A")
                 (A') (A") (A') (A") (A') (A') (A") (A') (A") (A')
                 (A") (A') (A') (A') (A") (A') (A") (A") (A') (A')
                 (A') (A") (A") (A') (A") (A') (A') (A') (A') (A')
                 (A") (A") (A') (A") (A') (A") (A') (A") (A') (A')
                 (A") (A') (A") (A') (A") (A') (A") (A') (A") (A')
                 (A") (A") (A') (A') (A") (A') (A') (A") (A') (A')
                 (A") (A') (A') (A") (A") (A') (A') (A") (A") (A')
                 (A') (A") (A') (A") (A') (A') (A") (A') (A") (A')
                 (A") (A") (A") (A') (A') (A') (A") (A') (A') (A")
                 (A') (A') (A") (A') (A') (A") (A') (A") (A") (A')
                 (A") (A') (A') (A') (A") (A') (A') (A") (A") (A')
                 (A') (A') (A") (A') (A") (A") (A') (A') (A") (A")
                 (A') (A') (A") (A') (A") (A') (A") (A') (A") (A')
                 (A") (A') (A") (A') (A") (A") (A') (A') (A") (A')
                 (A') (A") (A') (A") (A') (A") (A") (A') (A') (A')
                 (A") (A") (A') (A") (A') (A") (A') (A") (A') (A')
                 (A") (A') (A") (A') (A') (A") (A') (A") (A') (A')
                 (A") (A') (A") (A') (A") (A') (A") (A") (A') (A")
                 (A') (A') (A") (A") (A') (A') (A") (A') (A') (A")
                 (A') (A") (A') (A') (A") (A") (A') (A") (A') (A')
                 (A") (A") (A') (A') (A") (A') (A") (A") (A') (A')
                 (A") (A') (A") (A') (A") (A') (A') (A") (A') (A")
                 (A') (A") (A") (A') (A') (A") (A') (A") (A") (A')
                 (A') (A') (A") (A') (A") (A') (A') (A") (A') (A')
                 (A") (A") (A') (A") (A') (A") (A') (A") (A') (A')
                 (A") (A") (A') (A") (A') (A") (A') (A") (A') (A')
                 (A') (A") (A") (A') (A') (A') (A') (A') (A') (A")
                 (A') (A')
 The electronic state is 2-A".
 Alpha  occ. eigenvalues --  -19.24840 -19.19653 -10.25420 -10.18493 -10.18102
 Alpha  occ. eigenvalues --  -10.18102  -1.20011  -0.90022  -0.78536  -0.70150
 Alpha  occ. eigenvalues --   -0.69919  -0.58619  -0.51242  -0.50878  -0.49597
 Alpha  occ. eigenvalues --   -0.44391  -0.43494  -0.41340  -0.39488  -0.39228
 Alpha  occ. eigenvalues --   -0.37646  -0.35392  -0.34475  -0.28699  -0.28380
 Alpha virt. eigenvalues --    0.02496   0.05809   0.06947   0.07483   0.08959
 Alpha virt. eigenvalues --    0.09340   0.11702   0.13223   0.13361   0.13832
 Alpha virt. eigenvalues --    0.15426   0.16789   0.18336   0.18841   0.23708
 Alpha virt. eigenvalues --    0.24454   0.26022   0.30358   0.30931   0.33444
 Alpha virt. eigenvalues --    0.33902   0.36437   0.38817   0.39604   0.43245
 Alpha virt. eigenvalues --    0.43504   0.43926   0.44907   0.45195   0.45381
 Alpha virt. eigenvalues --    0.45559   0.46138   0.46895   0.48072   0.48344
 Alpha virt. eigenvalues --    0.48937   0.57752   0.58934   0.59228   0.60244
 Alpha virt. eigenvalues --    0.67294   0.70007   0.70245   0.74231   0.76341
 Alpha virt. eigenvalues --    0.76722   0.76773   0.81206   0.82094   0.84259
 Alpha virt. eigenvalues --    0.88229   0.89279   0.90975   0.92344   0.93204
 Alpha virt. eigenvalues --    0.93953   0.94787   0.94805   0.99541   1.01679
 Alpha virt. eigenvalues --    1.05320   1.06297   1.07080   1.09332   1.11582
 Alpha virt. eigenvalues --    1.13342   1.17345   1.18494   1.19262   1.20617
 Alpha virt. eigenvalues --    1.21716   1.23223   1.24740   1.25715   1.28057
 Alpha virt. eigenvalues --    1.28593   1.28775   1.30920   1.33042   1.33750
 Alpha virt. eigenvalues --    1.34722   1.39120   1.43206   1.44183   1.45030
 Alpha virt. eigenvalues --    1.45969   1.47312   1.50166   1.50299   1.50472
 Alpha virt. eigenvalues --    1.52755   1.53179   1.54165   1.61918   1.66975
 Alpha virt. eigenvalues --    1.68656   1.73082   1.80781   1.93675   2.03628
 Alpha virt. eigenvalues --    2.04306   2.11104   2.16169   2.20499   2.20946
 Alpha virt. eigenvalues --    2.24772   2.28890   2.32250   2.34096   2.41754
 Alpha virt. eigenvalues --    2.42256   2.45711   2.49658   2.52455   2.52972
 Alpha virt. eigenvalues --    2.54200   2.56062   2.57365   2.57689   2.66865
 Alpha virt. eigenvalues --    2.69335   2.70212   2.74899   2.75460   2.76250
 Alpha virt. eigenvalues --    2.76616   2.77417   2.78617   2.80942   2.82869
 Alpha virt. eigenvalues --    2.87427   2.90129   2.93349   2.93853   2.95962
 Alpha virt. eigenvalues --    2.98927   2.99411   3.01313   3.03399   3.04441
 Alpha virt. eigenvalues --    3.06274   3.08258   3.10020   3.10414   3.10718
 Alpha virt. eigenvalues --    3.12419   3.16737   3.18215   3.20059   3.22560
 Alpha virt. eigenvalues --    3.25083   3.26706   3.28414   3.30292   3.32852
 Alpha virt. eigenvalues --    3.37310   3.37684   3.39279   3.40920   3.40945
 Alpha virt. eigenvalues --    3.41387   3.42288   3.46298   3.47106   3.53443
 Alpha virt. eigenvalues --    3.53475   3.53552   3.58068   3.60923   3.61425
 Alpha virt. eigenvalues --    3.63126   3.64853   3.66222   3.66617   3.67491
 Alpha virt. eigenvalues --    3.71356   3.72665   3.76690   3.78029   3.80918
 Alpha virt. eigenvalues --    3.83078   3.86972   3.88796   3.90296   3.90960
 Alpha virt. eigenvalues --    3.94803   3.98436   3.98464   4.00865   4.01591
 Alpha virt. eigenvalues --    4.05016   4.05470   4.09715   4.09739   4.10624
 Alpha virt. eigenvalues --    4.10746   4.12280   4.13009   4.15948   4.18251
 Alpha virt. eigenvalues --    4.20207   4.22972   4.23661   4.24008   4.25281
 Alpha virt. eigenvalues --    4.27390   4.28967   4.33149   4.37215   4.37586
 Alpha virt. eigenvalues --    4.47485   4.52379   4.55566   4.58090   4.61982
 Alpha virt. eigenvalues --    4.67874   4.70489   4.71257   4.72399   4.74941
 Alpha virt. eigenvalues --    4.78323   4.78483   4.80916   4.81321   4.83679
 Alpha virt. eigenvalues --    4.87581   4.93525   4.95099   5.00669   5.02657
 Alpha virt. eigenvalues --    5.08272   5.08881   5.09312   5.09464   5.10085
 Alpha virt. eigenvalues --    5.12850   5.13250   5.15786   5.15800   5.20833
 Alpha virt. eigenvalues --    5.21993   5.22836   5.24374   5.25585   5.25658
 Alpha virt. eigenvalues --    5.28501   5.31487   5.33121   5.38737   5.40362
 Alpha virt. eigenvalues --    5.41974   5.51385   5.56167   5.66881   5.78767
 Alpha virt. eigenvalues --    5.81848   5.83492   5.83946   5.91156   5.92770
 Alpha virt. eigenvalues --    5.95316   5.97887   6.13095   6.25948   6.31516
 Alpha virt. eigenvalues --    6.32462   6.41389   6.47347   6.71165   6.75186
 Alpha virt. eigenvalues --    6.81154   7.04319   7.13949   7.26420   7.41629
 Alpha virt. eigenvalues --    9.47902   9.97542  11.33721  13.09959  13.22765
 Alpha virt. eigenvalues --   13.24371
  Beta  occ. eigenvalues --  -19.23887 -19.17711 -10.25456 -10.18495 -10.18072
  Beta  occ. eigenvalues --  -10.18072  -1.17453  -0.87436  -0.77091  -0.69993
  Beta  occ. eigenvalues --   -0.69842  -0.57602  -0.50223  -0.48809  -0.47530
  Beta  occ. eigenvalues --   -0.43227  -0.42359  -0.41128  -0.39353  -0.38031
  Beta  occ. eigenvalues --   -0.37543  -0.34319  -0.33540  -0.26995
  Beta virt. eigenvalues --   -0.11619   0.02536   0.06034   0.07157   0.07552
  Beta virt. eigenvalues --    0.08975   0.09423   0.12594   0.13267   0.13386
  Beta virt. eigenvalues --    0.14315   0.15438   0.16964   0.18619   0.19131
  Beta virt. eigenvalues --    0.23748   0.24755   0.26094   0.30619   0.31037
  Beta virt. eigenvalues --    0.33647   0.33978   0.36604   0.38937   0.39644
  Beta virt. eigenvalues --    0.43343   0.43613   0.44086   0.44957   0.45216
  Beta virt. eigenvalues --    0.45434   0.45600   0.46192   0.46984   0.48128
  Beta virt. eigenvalues --    0.48421   0.49070   0.58302   0.59398   0.60374
  Beta virt. eigenvalues --    0.60573   0.68125   0.70417   0.72439   0.74291
  Beta virt. eigenvalues --    0.76477   0.76846   0.76978   0.81357   0.82160
  Beta virt. eigenvalues --    0.85063   0.88274   0.89535   0.91036   0.92450
  Beta virt. eigenvalues --    0.93288   0.94064   0.94837   0.94882   0.99738
  Beta virt. eigenvalues --    1.01731   1.05370   1.06459   1.07135   1.09658
  Beta virt. eigenvalues --    1.11715   1.13381   1.17541   1.18537   1.19409
  Beta virt. eigenvalues --    1.20667   1.21766   1.23454   1.24824   1.25796
  Beta virt. eigenvalues --    1.28143   1.28704   1.28857   1.31405   1.33516
  Beta virt. eigenvalues --    1.34126   1.35215   1.39304   1.43359   1.44729
  Beta virt. eigenvalues --    1.46085   1.46799   1.47606   1.50360   1.50361
  Beta virt. eigenvalues --    1.50782   1.53293   1.54393   1.54668   1.62145
  Beta virt. eigenvalues --    1.67799   1.70096   1.73646   1.81364   1.94669
  Beta virt. eigenvalues --    2.04663   2.05816   2.13541   2.16407   2.20728
  Beta virt. eigenvalues --    2.21009   2.25505   2.28969   2.32523   2.34162
  Beta virt. eigenvalues --    2.41922   2.42427   2.45794   2.49736   2.52674
  Beta virt. eigenvalues --    2.53003   2.54253   2.56203   2.57396   2.57759
  Beta virt. eigenvalues --    2.66915   2.69473   2.70426   2.75007   2.75514
  Beta virt. eigenvalues --    2.76365   2.76648   2.77440   2.78626   2.81064
  Beta virt. eigenvalues --    2.82928   2.87561   2.90311   2.93409   2.93898
  Beta virt. eigenvalues --    2.96015   2.99001   2.99420   3.01519   3.03442
  Beta virt. eigenvalues --    3.04512   3.06277   3.08361   3.10059   3.10441
  Beta virt. eigenvalues --    3.10905   3.12501   3.16831   3.18376   3.20198
  Beta virt. eigenvalues --    3.22643   3.25199   3.26733   3.28449   3.30368
  Beta virt. eigenvalues --    3.32906   3.37499   3.37725   3.39323   3.40951
  Beta virt. eigenvalues --    3.41182   3.41443   3.42332   3.46330   3.47135
  Beta virt. eigenvalues --    3.53496   3.53597   3.54077   3.58159   3.61684
  Beta virt. eigenvalues --    3.61989   3.63184   3.65711   3.66323   3.66727
  Beta virt. eigenvalues --    3.69503   3.72982   3.74997   3.76716   3.78613
  Beta virt. eigenvalues --    3.81232   3.83116   3.87400   3.89032   3.90479
  Beta virt. eigenvalues --    3.90992   3.94915   3.98477   3.98557   4.00917
  Beta virt. eigenvalues --    4.01624   4.05131   4.05853   4.09833   4.09852
  Beta virt. eigenvalues --    4.10665   4.10873   4.12313   4.13112   4.15947
  Beta virt. eigenvalues --    4.18380   4.20528   4.23047   4.23698   4.24572
  Beta virt. eigenvalues --    4.25466   4.27465   4.29226   4.33279   4.37288
  Beta virt. eigenvalues --    4.37753   4.47726   4.52470   4.55654   4.58178
  Beta virt. eigenvalues --    4.62652   4.69052   4.71323   4.71780   4.73071
  Beta virt. eigenvalues --    4.75298   4.78670   4.79266   4.81505   4.81597
  Beta virt. eigenvalues --    4.84525   4.89541   4.94775   4.95411   5.01220
  Beta virt. eigenvalues --    5.03553   5.08383   5.08966   5.09865   5.10396
  Beta virt. eigenvalues --    5.11051   5.14370   5.15737   5.16576   5.17589
  Beta virt. eigenvalues --    5.21338   5.22533   5.22927   5.24487   5.25900
  Beta virt. eigenvalues --    5.26067   5.28565   5.31602   5.33313   5.39526
  Beta virt. eigenvalues --    5.40476   5.42272   5.52037   5.58073   5.68219
  Beta virt. eigenvalues --    5.79861   5.82015   5.83755   5.84001   5.91415
  Beta virt. eigenvalues --    5.92882   5.96354   6.00029   6.18132   6.26909
  Beta virt. eigenvalues --    6.37478   6.38286   6.46188   6.49429   6.72069
  Beta virt. eigenvalues --    6.77048   6.84358   7.07804   7.15474   7.26856
  Beta virt. eigenvalues --    7.42806   9.49521   9.99080  11.35249  13.09997
  Beta virt. eigenvalues --   13.22816  13.24375
          Condensed to atoms (all electrons):
               1          2          3          4          5          6
     1  C    4.928712   0.338044  -0.054327  -0.061253   0.390514   0.392053
     2  C    0.338044   4.842060   0.343535   0.338044  -0.031339  -0.032409
     3  C   -0.054327   0.343535   4.872677  -0.054327  -0.005129  -0.005059
     4  C   -0.061253   0.338044  -0.054327   4.928712  -0.000374   0.007959
     5  H    0.390514  -0.031339  -0.005129  -0.000374   0.611391  -0.026177
     6  H    0.392053  -0.032409  -0.005059   0.007959  -0.026177   0.588606
     7  H    0.398199  -0.030617   0.007493  -0.004947  -0.028994  -0.025488
     8  H   -0.001068  -0.040432   0.402471  -0.001068   0.000755   0.000081
     9  H    0.008696  -0.029261   0.394924  -0.007289  -0.000115  -0.000248
    10  H   -0.007289  -0.029261   0.394924   0.008696   0.000446   0.004686
    11  O   -0.046160   0.275394  -0.020290  -0.046160   0.003432   0.002764
    12  H    0.007959  -0.032409  -0.005059   0.392053  -0.000193  -0.000536
    13  H   -0.000374  -0.031339  -0.005129   0.390514  -0.001264  -0.000193
    14  H   -0.004947  -0.030617   0.007493   0.398199   0.000195  -0.000055
    15  O   -0.004834  -0.069292   0.005517  -0.004834   0.000542   0.000055
               7          8          9         10         11         12
     1  C    0.398199  -0.001068   0.008696  -0.007289  -0.046160   0.007959
     2  C   -0.030617  -0.040432  -0.029261  -0.029261   0.275394  -0.032409
     3  C    0.007493   0.402471   0.394924   0.394924  -0.020290  -0.005059
     4  C   -0.004947  -0.001068  -0.007289   0.008696  -0.046160   0.392053
     5  H   -0.028994   0.000755  -0.000115   0.000446   0.003432  -0.000193
     6  H   -0.025488   0.000081  -0.000248   0.004686   0.002764  -0.000536
     7  H    0.564786   0.000083  -0.000459  -0.000132  -0.004863  -0.000055
     8  H    0.000083   0.600546  -0.027566  -0.027566   0.002199   0.000081
     9  H   -0.000459  -0.027566   0.588516  -0.027035   0.001293   0.004686
    10  H   -0.000132  -0.027566  -0.027035   0.588516   0.001293  -0.000248
    11  O   -0.004863   0.002199   0.001293   0.001293   7.761283   0.002764
    12  H   -0.000055   0.000081   0.004686  -0.000248   0.002764   0.588606
    13  H    0.000195   0.000755   0.000446  -0.000115   0.003432  -0.026177
    14  H    0.003168   0.000083  -0.000132  -0.000459  -0.004863  -0.025488
    15  O    0.013062  -0.000229  -0.000093  -0.000093   0.122135   0.000055
              13         14         15
     1  C   -0.000374  -0.004947  -0.004834
     2  C   -0.031339  -0.030617  -0.069292
     3  C   -0.005129   0.007493   0.005517
     4  C    0.390514   0.398199  -0.004834
     5  H   -0.001264   0.000195   0.000542
     6  H   -0.000193  -0.000055   0.000055
     7  H    0.000195   0.003168   0.013062
     8  H    0.000755   0.000083  -0.000229
     9  H    0.000446  -0.000132  -0.000093
    10  H   -0.000115  -0.000459  -0.000093
    11  O    0.003432  -0.004863   0.122135
    12  H   -0.026177  -0.025488   0.000055
    13  H    0.611391  -0.028994   0.000542
    14  H   -0.028994   0.564786   0.013062
    15  O    0.000542   0.013062   8.098917
          Atomic-Atomic Spin Densities.
               1          2          3          4          5          6
     1  C    0.045972  -0.005585   0.001197  -0.013797   0.001527  -0.003445
     2  C   -0.005585  -0.034278   0.001377  -0.005585   0.001801   0.002176
     3  C    0.001197   0.001377  -0.000514   0.001197  -0.000072  -0.000245
     4  C   -0.013797  -0.005585   0.001197   0.045972  -0.000104   0.000568
     5  H    0.001527   0.001801  -0.000072  -0.000104  -0.005422  -0.000165
     6  H   -0.003445   0.002176  -0.000245   0.000568  -0.000165   0.000470
     7  H    0.001010   0.001210  -0.000114  -0.000406  -0.000039  -0.000067
     8  H   -0.000083   0.000864  -0.000128  -0.000083  -0.000051  -0.000008
     9  H    0.000733   0.000838  -0.000183  -0.001586   0.000044  -0.000036
    10  H   -0.001586   0.000838  -0.000183   0.000733  -0.000086   0.000143
    11  O   -0.015426   0.031421  -0.003452  -0.015426  -0.000218   0.001339
    12  H    0.000568   0.002176  -0.000245  -0.003445   0.000040  -0.000013
    13  H   -0.000104   0.001801  -0.000072   0.001527   0.000561   0.000040
    14  H   -0.000406   0.001210  -0.000114   0.001010   0.000023   0.000034
    15  O    0.007855  -0.011263   0.000238   0.007855  -0.000080  -0.001232
               7          8          9         10         11         12
     1  C    0.001010  -0.000083   0.000733  -0.001586  -0.015426   0.000568
     2  C    0.001210   0.000864   0.000838   0.000838   0.031421   0.002176
     3  C   -0.000114  -0.000128  -0.000183  -0.000183  -0.003452  -0.000245
     4  C   -0.000406  -0.000083  -0.001586   0.000733  -0.015426  -0.003445
     5  H   -0.000039  -0.000051   0.000044  -0.000086  -0.000218   0.000040
     6  H   -0.000067  -0.000008  -0.000036   0.000143   0.001339  -0.000013
     7  H   -0.001776  -0.000005   0.000019  -0.000037  -0.000302   0.000034
     8  H   -0.000005  -0.001573   0.000052   0.000052  -0.000031  -0.000008
     9  H    0.000019   0.000052  -0.000131  -0.000126   0.000572   0.000143
    10  H   -0.000037   0.000052  -0.000126  -0.000131   0.000572  -0.000036
    11  O   -0.000302  -0.000031   0.000572   0.000572   0.409201   0.001339
    12  H    0.000034  -0.000008   0.000143  -0.000036   0.001339   0.000470
    13  H    0.000023  -0.000051  -0.000086   0.000044  -0.000218  -0.000165
    14  H   -0.000095  -0.000005  -0.000037   0.000019  -0.000302  -0.000067
    15  O   -0.000331  -0.000002  -0.000131  -0.000131  -0.128418  -0.001232
              13         14         15
     1  C   -0.000104  -0.000406   0.007855
     2  C    0.001801   0.001210  -0.011263
     3  C   -0.000072  -0.000114   0.000238
     4  C    0.001527   0.001010   0.007855
     5  H    0.000561   0.000023  -0.000080
     6  H    0.000040   0.000034  -0.001232
     7  H    0.000023  -0.000095  -0.000331
     8  H   -0.000051  -0.000005  -0.000002
     9  H   -0.000086  -0.000037  -0.000131
    10  H    0.000044   0.000019  -0.000131
    11  O   -0.000218  -0.000302  -0.128418
    12  H   -0.000165  -0.000067  -0.001232
    13  H   -0.005422  -0.000039  -0.000080
    14  H   -0.000039  -0.001776  -0.000331
    15  O   -0.000080  -0.000331   0.830086
 Mulliken charges and spin densities:
               1          2
     1  C   -0.283926   0.018429
     2  C    0.219901  -0.010998
     3  C   -0.279716  -0.001313
     4  C   -0.283926   0.018429
     5  H    0.086311  -0.002240
     6  H    0.093960  -0.000440
     7  H    0.108569  -0.000875
     8  H    0.090873  -0.001062
     9  H    0.093638   0.000086
    10  H    0.093638   0.000086
    11  O   -0.053651   0.280652
    12  H    0.093960  -0.000440
    13  H    0.086311  -0.002240
    14  H    0.108569  -0.000875
    15  O   -0.174511   0.702803
 Sum of Mulliken charges =  -0.00000   1.00000
 Mulliken charges and spin densities with hydrogens summed into heavy atoms:
               1          2
     1  C    0.004914   0.014873
     2  C    0.219901  -0.010998
     3  C   -0.001567  -0.002202
     4  C    0.004914   0.014873
    11  O   -0.053651   0.280652
    15  O   -0.174511   0.702803
 APT charges:
               1
     1  C   -1.009157
     2  C    0.034783
     3  C   -1.041236
     4  C   -1.009157
     5  H    0.370372
     6  H    0.336018
     7  H    0.323868
     8  H    0.376326
     9  H    0.339948
    10  H    0.339948
    11  O    0.019225
    12  H    0.336018
    13  H    0.370372
    14  H    0.323868
    15  O   -0.111195
 Sum of APT charges =  -0.00000
 APT charges with hydrogens summed into heavy atoms:
               1
     1  C    0.021100
     2  C    0.034783
     3  C    0.014987
     4  C    0.021100
    11  O    0.019225
    15  O   -0.111195
 Electronic spatial extent (au):  <R**2>=            577.5665
 Charge=              0.0000 electrons
 Dipole moment (field-independent basis, Debye):
    X=              0.3172    Y=              2.5616    Z=             -0.0000  Tot=              2.5812
 Quadrupole moment (field-independent basis, Debye-Ang):
   XX=            -37.9876   YY=            -41.2665   ZZ=            -36.9672
   XY=             -0.4847   XZ=             -0.0000   YZ=             -0.0000
 Traceless Quadrupole moment (field-independent basis, Debye-Ang):
   XX=              0.7528   YY=             -2.5260   ZZ=              1.7732
   XY=             -0.4847   XZ=             -0.0000   YZ=             -0.0000
 Octapole moment (field-independent basis, Debye-Ang**2):
  XXX=             -1.3277  YYY=             -1.0043  ZZZ=             -0.0000  XYY=              0.4333
  XXY=             -3.5817  XXZ=             -0.0000  XZZ=              0.9401  YZZ=             -5.4039
  YYZ=             -0.0000  XYZ=             -0.0000
 Hexadecapole moment (field-independent basis, Debye-Ang**3):
 XXXX=           -231.7252 YYYY=           -307.7793 ZZZZ=           -222.0405 XXXY=            -26.9090
 XXXZ=             -0.0000 YYYX=            -32.9909 YYYZ=              0.0000 ZZZX=              0.0000
 ZZZY=              0.0000 XXYY=            -91.5468 XXZZ=            -74.3868 YYZZ=            -88.6817
 XXYZ=             -0.0000 YYXZ=             -0.0000 ZZXY=             -9.0624
 N-N= 2.614402456658D+02 E-N=-1.242805484866D+03  KE= 3.060566236857D+02
 Symmetry A'   KE= 2.553285903660D+02
 Symmetry A"   KE= 5.072803331971D+01
 Symmetry A'   SP= 1.834826614327D-15
 Symmetry A"   SP= 1.000000000000D+00
  Exact polarizability:       0.000       0.000       0.000       0.000       0.000       0.000
 Approx polarizability:      85.467       8.183      85.664      -0.000      -0.000      75.140
                          Isotropic Fermi Contact Couplings
        Atom                 a.u.       MegaHertz       Gauss      10(-4) cm-1
     1  C(13)              0.00320       3.59828       1.28396       1.20026
     2  C(13)             -0.01010     -11.35151      -4.05050      -3.78646
     3  C(13)             -0.00126      -1.41785      -0.50592      -0.47294
     4  C(13)              0.00320       3.59828       1.28396       1.20026
     5  H(1)              -0.00047      -2.10344      -0.75056      -0.70163
     6  H(1)              -0.00026      -1.18446      -0.42264      -0.39509
     7  H(1)               0.00013       0.57609       0.20556       0.19216
     8  H(1)              -0.00036      -1.61429      -0.57602      -0.53847
     9  H(1)              -0.00008      -0.35510      -0.12671      -0.11845
    10  H(1)              -0.00008      -0.35510      -0.12671      -0.11845
    11  O(17)              0.03551     -21.52363      -7.68017      -7.17951
    12  H(1)              -0.00026      -1.18446      -0.42264      -0.39509
    13  H(1)              -0.00047      -2.10344      -0.75056      -0.70163
    14  H(1)               0.00013       0.57609       0.20556       0.19216
    15  O(17)              0.04110     -24.91256      -8.88942      -8.30994
 --------------------------------------------------------
       Center         ----  Spin Dipole Couplings  ----
                      3XX-RR        3YY-RR        3ZZ-RR
 --------------------------------------------------------
     1   Atom        0.002442     -0.003003      0.000561
     2   Atom       -0.010137      0.023332     -0.013195
     3   Atom       -0.002080      0.005829     -0.003749
     4   Atom        0.002442     -0.003003      0.000561
     5   Atom       -0.002919      0.005499     -0.002580
     6   Atom       -0.004998      0.000795      0.004202
     7   Atom       -0.001613      0.005086     -0.003472
     8   Atom       -0.001504      0.003698     -0.002193
     9   Atom        0.001123      0.002087     -0.003209
    10   Atom        0.001123      0.002087     -0.003209
    11   Atom       -0.827381     -0.761192      1.588573
    12   Atom       -0.004998      0.000795      0.004202
    13   Atom       -0.002919      0.005499     -0.002580
    14   Atom       -0.001613      0.005086     -0.003472
    15   Atom       -1.540550     -1.543837      3.084387
 --------------------------------------------------------
                        XY            XZ            YZ
 --------------------------------------------------------
     1   Atom       -0.005712     -0.018974      0.010222
     2   Atom        0.000159      0.000000     -0.000000
     3   Atom        0.005351     -0.000000      0.000000
     4   Atom       -0.005712      0.018974     -0.010222
     5   Atom       -0.001723     -0.001160      0.002619
     6   Atom       -0.000004      0.000444      0.007291
     7   Atom       -0.006508     -0.005124      0.008723
     8   Atom        0.002455      0.000000      0.000000
     9   Atom        0.005703     -0.002048     -0.002370
    10   Atom        0.005703      0.002048      0.002370
    11   Atom       -0.008558      0.000000     -0.000000
    12   Atom       -0.000004     -0.000444     -0.007291
    13   Atom       -0.001723      0.001160     -0.002619
    14   Atom       -0.006508      0.005124     -0.008723
    15   Atom       -0.010729     -0.000000     -0.000000
 --------------------------------------------------------


 ---------------------------------------------------------------------------------
              Anisotropic Spin Dipole Couplings in Principal Axis System
 ---------------------------------------------------------------------------------

       Atom             a.u.   MegaHertz   Gauss  10(-4) cm-1        Axes

              Baa    -0.0185    -2.479    -0.885    -0.827  0.6050 -0.2712  0.7486
     1 C(13)  Bbb    -0.0065    -0.877    -0.313    -0.292  0.4592  0.8869 -0.0498
              Bcc     0.0250     3.356     1.198     1.119 -0.6505  0.3739  0.6611
 
              Baa    -0.0132    -1.771    -0.632    -0.591 -0.0000  0.0000  1.0000
     2 C(13)  Bbb    -0.0101    -1.360    -0.485    -0.454  1.0000 -0.0047  0.0000
              Bcc     0.0233     3.131     1.117     1.044  0.0047  1.0000 -0.0000
 
              Baa    -0.0048    -0.641    -0.229    -0.214  0.8928 -0.4504  0.0000
     3 C(13)  Bbb    -0.0037    -0.503    -0.180    -0.168 -0.0000  0.0000  1.0000
              Bcc     0.0085     1.144     0.408     0.382  0.4504  0.8928  0.0000
 
              Baa    -0.0185    -2.479    -0.885    -0.827 -0.6050  0.2712  0.7486
     4 C(13)  Bbb    -0.0065    -0.877    -0.313    -0.292  0.4592  0.8869  0.0498
              Bcc     0.0250     3.356     1.198     1.119  0.6505 -0.3739  0.6611
 
              Baa    -0.0040    -2.109    -0.753    -0.704  0.6860 -0.0754  0.7236
     5 H(1)   Bbb    -0.0027    -1.457    -0.520    -0.486  0.6987  0.3456 -0.6264
              Bcc     0.0067     3.566     1.273     1.190 -0.2029  0.9353  0.2898
 
              Baa    -0.0053    -2.815    -1.005    -0.939  0.7176  0.5354 -0.4454
     6 H(1)   Bbb    -0.0047    -2.517    -0.898    -0.840  0.6961 -0.5725  0.4333
              Bcc     0.0100     5.332     1.903     1.779  0.0230  0.6210  0.7835
 
              Baa    -0.0091    -4.862    -1.735    -1.622  0.2175 -0.4366  0.8729
     7 H(1)   Bbb    -0.0056    -2.976    -1.062    -0.993  0.8654  0.5000  0.0345
              Bcc     0.0147     7.838     2.797     2.614 -0.4515  0.7479  0.4866
 
              Baa    -0.0025    -1.323    -0.472    -0.441  0.9293 -0.3693 -0.0000
     8 H(1)   Bbb    -0.0022    -1.170    -0.418    -0.390  0.0000 -0.0000  1.0000
              Bcc     0.0047     2.493     0.890     0.832  0.3693  0.9293  0.0000
 
              Baa    -0.0042    -2.235    -0.798    -0.746 -0.4767  0.6547  0.5866
     9 H(1)   Bbb    -0.0040    -2.134    -0.761    -0.712  0.5907 -0.2556  0.7653
              Bcc     0.0082     4.369     1.559     1.457  0.6510  0.7114 -0.2649
 
              Baa    -0.0042    -2.235    -0.798    -0.746 -0.4767  0.6547 -0.5866
    10 H(1)   Bbb    -0.0040    -2.134    -0.761    -0.712 -0.5907  0.2556  0.7653
              Bcc     0.0082     4.369     1.559     1.457  0.6510  0.7114  0.2649
 
              Baa    -0.8285    59.947    21.391    19.996  0.9920  0.1262 -0.0000
    11 O(17)  Bbb    -0.7601    55.001    19.626    18.346 -0.1262  0.9920  0.0000
              Bcc     1.5886  -114.948   -41.016   -38.343  0.0000 -0.0000  1.0000
 
              Baa    -0.0053    -2.815    -1.005    -0.939  0.7176  0.5354  0.4454
    12 H(1)   Bbb    -0.0047    -2.517    -0.898    -0.840  0.6961 -0.5725 -0.4333
              Bcc     0.0100     5.332     1.903     1.779 -0.0230 -0.6210  0.7835
 
              Baa    -0.0040    -2.109    -0.753    -0.704 -0.6860  0.0754  0.7236
    13 H(1)   Bbb    -0.0027    -1.457    -0.520    -0.486  0.6987  0.3456  0.6264
              Bcc     0.0067     3.566     1.273     1.190 -0.2029  0.9353 -0.2898
 
              Baa    -0.0091    -4.862    -1.735    -1.622 -0.2175  0.4366  0.8729
    14 H(1)   Bbb    -0.0056    -2.976    -1.062    -0.993  0.8654  0.5000 -0.0345
              Bcc     0.0147     7.838     2.797     2.614 -0.4515  0.7479 -0.4866
 
              Baa    -1.5530   112.377    40.099    37.485  0.6514  0.7588  0.0000
    15 O(17)  Bbb    -1.5313   110.807    39.539    36.961  0.7588 -0.6514 -0.0000
              Bcc     3.0844  -223.184   -79.638   -74.446 -0.0000 -0.0000  1.0000
 

 ---------------------------------------------------------------------------------

 No NMR shielding tensors so no spin-rotation constants.
 Leave Link  601 at Mon Apr 11 19:39:40 2022, MaxMem=  1073741824 cpu:               3.0 elap:               0.4
 (Enter /home/saurabh/gaussian/g16/l701.exe)
 ... and contract with generalized density number  0.
 Compute integral second derivatives.
 Leave Link  701 at Mon Apr 11 19:39:40 2022, MaxMem=  1073741824 cpu:               1.9 elap:               0.3
 (Enter /home/saurabh/gaussian/g16/l702.exe)
 L702 exits ... SP integral derivatives will be done elsewhere.
 Leave Link  702 at Mon Apr 11 19:39:40 2022, MaxMem=  1073741824 cpu:               0.1 elap:               0.0
 (Enter /home/saurabh/gaussian/g16/l703.exe)
 Integral derivatives from FoFJK, PRISM(SPDF).
 Compute integral second derivatives, UseDBF=F ICtDFT=           0.
 Calling FoFJK, ICntrl=    100127 FMM=F ISym2X=1 I1Cent= 0 IOpClX= 1 NMat=1 NMatS=1 NMatT=0.
 FoFJK:  IHMeth= 1 ICntrl=  100127 DoSepK=F KAlg= 0 I1Cent=           0 FoldK=F
 IRaf=         0 NMat=       1 IRICut=       1 DoRegI=T DoRafI=F ISym2E= 1 IDoP0=0 IntGTp=1.
 FoFCou: FMM=F IPFlag=           0 FMFlag=      100000 FMFlg1=         800
         NFxFlg=           0 DoJE=F BraDBF=F KetDBF=F FulRan=T
         wScrn=  0.000000 ICntrl=    100127 IOpCl=  1 I1Cent=           0 NGrid=           0
         NMat0=    1 NMatS0=      1 NMatT0=    0 NMatD0=    1 NMtDS0=    0 NMtDT0=    0
 Petite list used in FoFCou.
 Leave Link  703 at Mon Apr 11 19:41:05 2022, MaxMem=  1073741824 cpu:             682.7 elap:              85.4
 (Enter /home/saurabh/gaussian/g16/l716.exe)
 Dipole        = 1.24778716D-01 1.00782358D+00-1.36393651D-15
 Polarizability= 0.00000000D+00 0.00000000D+00 0.00000000D+00
                 0.00000000D+00 0.00000000D+00 0.00000000D+00
 ***** Axes restored to original set *****
 -------------------------------------------------------------------
 Center     Atomic                   Forces (Hartrees/Bohr)
 Number     Number              X              Y              Z
 -------------------------------------------------------------------
      1        6          -0.011192705    0.001965225    0.002629451
      2        6           0.003581075    0.010290965   -0.056722838
      3        6           0.011034407    0.006434406    0.007445560
      4        6          -0.002118261   -0.011444370    0.000769506
      5        1           0.002348405   -0.001992611    0.013911563
      6        1           0.000739507   -0.010825562   -0.006145545
      7        1           0.011455704    0.007131454   -0.002577382
      8        1          -0.001573291   -0.003125942    0.014861114
      9        1          -0.010095020    0.006198488   -0.003995708
     10        1           0.001335509   -0.010692769   -0.006338569
     11        8          -0.007012483   -0.006587615    0.013281495
     12        1          -0.010418627    0.005663168   -0.003858516
     13        1           0.000834588    0.000244406    0.014221843
     14        1           0.010559403    0.008455947   -0.002393671
     15        8           0.000521789   -0.001715190    0.014911696
 -------------------------------------------------------------------
 Cartesian Forces:  Max     0.056722838 RMS     0.011510055
 FormGI is forming the generalized inverse of G from B-inverse, IUseBI=4.
 Leave Link  716 at Mon Apr 11 19:41:05 2022, MaxMem=  1073741824 cpu:               0.3 elap:               0.1
 (Enter /home/saurabh/gaussian/g16/l103.exe)

 GradGradGradGradGradGradGradGradGradGradGradGradGradGradGradGradGradGrad
 Berny optimization.
 Red2BG is reusing G-inverse.
 Internal  Forces:  Max     0.035495683 RMS     0.007629277
 Search for a local minimum.
 Step number   1 out of a maximum of  100
 All quantities printed in internal units (Hartrees-Bohrs-Radians)
 RMS Force = .76293D-02 SwitMx=.10000D-02 MixMth= 1
 Mixed Optimization -- RFO/linear search
 Second derivative matrix not updated -- analytic derivatives used.
 ITU=  0
     Eigenvalues ---    0.00125   0.00273   0.00281   0.01030   0.04320
[...]
 --------------------------------------------------------------------------------
 GradGradGradGradGradGradGradGradGradGradGradGradGradGradGradGradGradGrad

 Leave Link  103 at Mon Apr 11 19:49:21 2022, MaxMem=  1073741824 cpu:               0.2 elap:               0.1
 (Enter /home/saurabh/gaussian/g16/l9999.exe)

 ----------------------------------------------------------------------

 Electric dipole moment (input orientation):
 (Debye = 10**-18 statcoulomb cm , SI units = C m)
                  (au)            (Debye)         (10**-30 SI)
   Tot        0.114388D+01      0.290746D+01      0.969825D+01
   x          0.261036D+00      0.663487D+00      0.221316D+01
   y          0.324421D+00      0.824595D+00      0.275055D+01
   z         -0.106540D+01     -0.270798D+01     -0.903286D+01

 Dipole polarizability, Alpha (input orientation).
 (esu units = cm**3 , SI units = C**2 m**2 J**-1)
 Alpha(0;0):
               (au)            (10**-24 esu)      (10**-40 SI)
   iso        0.576487D+02      0.854266D+01      0.950499D+01
   aniso      0.100037D+02      0.148240D+01      0.164939D+01
   xx         0.580261D+02      0.859859D+01      0.956722D+01
   yx         0.271707D+01      0.402629D+00      0.447985D+00
   yy         0.571025D+02      0.846171D+01      0.941493D+01
   zx        -0.399998D+01     -0.592736D+00     -0.659507D+00
   zy        -0.312109D+01     -0.462498D+00     -0.514599D+00
   zz         0.578176D+02      0.856768D+01      0.953283D+01

 ----------------------------------------------------------------------

 Dipole orientation:
     6         -7.09100595         -3.67848806         -0.51249307
     6         -4.49590984         -2.50869239         -0.92232620
     6         -2.43624447         -3.84159186          0.57531626
     6         -4.49184379          0.33787207         -0.51249307
     1         -7.69406639         -3.37566207          1.43419635
     1         -7.04349725         -5.70651567         -0.87007441
     1         -8.47224514         -2.81755924         -1.76952584
     1         -2.78466415         -3.61611425          2.59272469
     1         -0.58563195         -3.04767022          0.14441969
     1         -2.40239707         -5.85502987          0.14441969
     8         -3.72882896         -3.00510394         -3.60286230
     1         -2.62232568          1.12530786         -0.87007441
     1         -5.01513689          0.76395868          1.43419635
     1         -5.84304147          1.24522258         -1.76952584
     8         -5.27190389         -2.00651272         -5.26808131

 Electric dipole moment (dipole orientation):
 (Debye = 10**-18 statcoulomb cm , SI units = C m)
                  (au)            (Debye)         (10**-30 SI)
   Tot        0.114388D+01      0.290746D+01      0.969825D+01
   x          0.000000D+00      0.000000D+00      0.000000D+00
   y          0.000000D+00      0.000000D+00      0.000000D+00
   z          0.114388D+01      0.290746D+01      0.969825D+01

 Dipole polarizability, Alpha (dipole orientation).
 (esu units = cm**3 , SI units = C**2 m**2 J**-1)
 Alpha(0;0):
               (au)            (10**-24 esu)      (10**-40 SI)
   iso        0.576487D+02      0.854266D+01      0.950499D+01
   aniso      0.100037D+02      0.148240D+01      0.164939D+01
   xx         0.561084D+02      0.831441D+01      0.925103D+01
   yx        -0.826737D+00     -0.122510D+00     -0.136311D+00
   yy         0.553659D+02      0.820438D+01      0.912861D+01
   zx         0.389953D+01      0.577851D+00      0.642946D+00
   zy        -0.252356D+01     -0.373952D+00     -0.416078D+00
   zz         0.614719D+02      0.910919D+01      0.101353D+02

 ----------------------------------------------------------------------
 Unable to Open any file for archive entry.
 1\1\GINC-MEDIAWIKI\Freq\UB3LYP\CC-pVTZ\C4H9O2(2)\SAURABH\11-Apr-2022\0
 \\#P Geom=AllCheck Guess=TCheck SCRF=Check GenChk UB3LYP/CC-pVTZ Freq\
 \Mol_02\\0,2\C,-3.7783409667,1.9143305743,-0.0516369161\C,-2.470849862
 5,1.2135554274,0.2881742089\C,-1.2530916437,2.07776529,-0.001202669\C,
 -2.3687877764,-0.1686110502,-0.3405463596\H,-3.8484119927,2.0636119862
 ,-1.1293762248\H,-3.8330219706,2.8883128735,0.4347110883\H,-4.62608494
 99,1.3135559947,0.2719107429\H,-1.1848774828,2.2723711961,-1.071438554
 5\H,-0.3381507577,1.5776508814,0.3154986637\H,-1.3234017372,3.03358762
 07,0.517440892\O,-2.4083746427,1.0494033238,1.7764654517\H,-1.43537376
 48,-0.654768213,-0.0567235121\H,-2.395600129,-0.0832543573,-1.42715219
 37\H,-3.2002399317,-0.7934605827,-0.0203379594\O,-3.3863003508,0.32042
 33685,2.26099233\\Version=ES64L-G16RevC.01\State=2-A"\HF=-308.2921507\
 S2=0.754012\S2-1=0.\S2A=0.75001\RMSD=4.782e-09\RMSF=1.841e-05\ZeroPoin
 t=0.126483\Thermal=0.1340654\ETot=-308.1580853\HTot=-308.1571411\GTot=
 -308.1970072\Dipole=0.2610361,0.3244205,-1.0654025\DipoleDeriv=-0.1042
 067,0.0208746,-0.0024917,0.0291322,0.0199079,0.0267729,0.0364468,0.025
 5308,0.0167116,0.4070848,-0.0008105,-0.0292051,0.0078159,0.4245774,-0.
 0361901,-0.0913987,-0.0782772,0.5326987,-0.0268486,-0.0544329,0.027003
 6,-0.052751,0.0093433,0.0217239,0.0148782,0.0135184,0.0231793,0.027075
 4,-0.022819,0.0184617,-0.0380161,-0.1029769,-0.0301908,0.0295545,0.004
 9082,0.0083143,0.0766951,0.0210167,-0.0042401,0.0098153,0.0635859,0.01
 45799,-0.0149409,0.0335816,-0.1223493,0.0445421,0.0016771,-0.0160817,0
 .0385524,-0.0997177,-0.0630944,0.0015897,-0.0912292,0.033303,-0.042760
 8,-0.0371423,0.0063495,-0.0748515,0.0148634,0.0195389,0.0476141,0.0190
 357,0.0736068,0.0575602,-0.00973,-0.0106102,-0.0139661,0.0620972,0.018
 4917,0.019931,0.0391593,-0.1109719,-0.0847645,0.0445464,-0.0281774,0.0
 829578,0.0134761,0.0315824,-0.0564739,0.0225569,0.0663127,0.0467512,0.
 0171726,0.0245808,-0.0137773,-0.0903136,-0.0663867,-0.000917,-0.093764
 5,0.0385868,-0.3248154,-0.0905051,0.0255262,-0.0961357,-0.2656147,0.03
 06662,0.0661205,0.0581368,-0.2928586,-0.0814033,0.0954789,-0.0322518,0
 .059821,0.0052651,-0.0054118,-0.0587001,0.0167836,0.0542657,0.0778914,
 0.0089582,-0.0123389,0.0194626,0.0645365,0.0242081,0.0033871,0.0086069
 ,-0.1244962,-0.0244008,-0.0784308,0.0185234,-0.0493892,-0.0018421,-0.0
 092307,0.0397488,0.0335603,0.0719523,-0.0483999,0.0841461,0.0149518,0.
 0913298,-0.1171878,0.0229405,-0.0368399,-0.0121077,-0.2682552\Polar=58
 .0261458,2.7170738,57.102478,-3.9999787,-3.1210945,57.8175597\Quadrupo
 le=0.8296146,1.023741,-1.8533556,-0.5403474,0.5823456,0.8604125\PG=CS 
 [SG(C2H1O2),X(C2H8)]\NImag=0\\0.49465268,0.04791424,0.55711158,-0.0250
 5143,0.01270895,0.56954939,-0.15633779,0.03931569,-0.00943681,0.521220
 75,0.04006335,-0.10167109,0.00790557,0.02332858,0.49884027,-0.01237029
 ,0.00628230,-0.07230917,0.00332246,0.02172159,0.34567073,-0.03187559,-
 0.01533944,0.00550785,-0.14896987,-0.04797273,0.01338345,0.50876773,0.
 01049545,0.00986717,-0.00481771,-0.04687758,-0.11366838,0.00810019,-0.
 05113635,0.54469226,-0.00623178,-0.00545864,0.00496950,0.00548788,0.00
 275716,-0.07392572,0.01634597,0.01215772,0.57308005,-0.00406672,0.0302
 2131,0.01230475,-0.08085545,0.00623078,0.00340029,0.00084314,-0.026462
 23,-0.01213030,0.58219684,0.00638341,-0.02004335,-0.00625163,0.0062018
 1,-0.16757235,-0.03309755,-0.00358636,-0.02433481,-0.00906114,0.007849
 19,0.48435296,0.00162265,0.00464771,0.00721691,0.00606623,-0.03093163,
 -0.08189025,-0.00253640,0.00473461,0.00645274,0.00204523,-0.04563640,0
 .55476385,-0.04721186,0.00257748,-0.01403515,-0.00091814,0.00311950,-0
 .02791758,0.00106279,-0.00046040,0.00021940,0.00098819,-0.00061657,0.0
 0021634,0.04952859,0.00308178,-0.05121753,0.03382233,-0.00154889,-0.00
 294572,0.01405136,-0.00057495,0.00007283,-0.00014318,-0.00048116,0.000
 25272,-0.00011828,-0.00443197,0.05173491,-0.01578489,0.03530996,-0.303
 47047,0.00110217,0.00017307,-0.00850520,0.00055667,-0.00006679,-0.0000
 7060,0.00049613,-0.00052162,-0.00015907,0.01697782,-0.03859938,0.33068
 721,-0.04871972,0.00673061,0.00337757,-0.00199134,0.02630917,0.0143870
 0,0.00162775,0.00091382,0.00062862,-0.00499109,0.00184706,-0.00219492,
 -0.00093097,-0.00205739,-0.00054374,0.05175598,0.00890256,-0.25559701,
 -0.10486887,0.00075943,-0.01554537,-0.00691238,-0.00126346,0.00049794,
 0.00014745,0.00330637,-0.00010834,0.00162074,-0.00057797,0.00562168,0.
 00218374,-0.01207213,0.27800085,0.00539933,-0.10622301,-0.10061753,-0.
 00087241,0.00804126,0.00179784,0.00018499,0.00005535,-0.00010477,-0.00
 107002,0.00077313,-0.00005781,0.00120079,-0.02890296,-0.01301489,-0.00
 404898,0.11630219,0.10485272,-0.20599577,-0.11386775,0.06131029,-0.024
 71904,-0.01718192,0.00855405,-0.00389017,0.00418815,-0.00226785,0.0011
 4975,-0.00130465,-0.00018741,0.00283911,0.00249821,-0.00056237,0.00207
 938,0.00133821,-0.00134651,0.22654869,-0.11666685,-0.13217985,0.043741
 84,0.01231418,0.00871892,-0.00651856,0.00226160,-0.00124441,0.00111162
 ,0.00009065,0.00121611,-0.00037283,-0.00174998,-0.00258795,0.00069666,
 -0.02148054,-0.01477780,0.00949773,0.12497105,0.14047465,0.06403439,0.
 04372459,-0.07028820,-0.00697700,-0.00474282,0.00141570,-0.00136429,0.
 00076493,-0.00055661,0.00044507,-0.00010254,-0.00022925,0.02523076,0.0
 1772097,-0.00827061,-0.01291404,-0.00830190,0.00472196,-0.06827200,-0.
 04896504,0.07266884,0.00101730,0.00051080,-0.00006939,-0.00015801,-0.0
 0246787,0.02614382,-0.04726786,-0.00306825,0.01361754,0.00073870,0.000
 80487,-0.00007929,-0.00069877,-0.00006526,-0.00026265,-0.00011146,-0.0
 0000402,0.00006736,0.00032395,-0.00003806,-0.00019008,0.04943856,0.000
 75754,0.00025916,-0.00011191,0.00130952,-0.00353905,0.01842432,-0.0033
 4922,-0.05399236,0.04470694,0.00066926,0.00056344,0.00000521,-0.000088
 80,0.00033584,-0.00018380,-0.00001838,0.00002811,-0.00016211,0.0001172
 0,-0.00016912,-0.00007714,0.00517358,0.05568178,-0.00057110,-0.0001944
 7,-0.00004410,-0.00108997,-0.00000514,-0.00715058,0.01564324,0.0460777
 5,-0.30140892,-0.00037885,-0.00045446,-0.00006977,0.00022848,-0.000105
 79,0.00058385,0.00002888,0.00008998,-0.00003999,0.00009642,0.00002063,
 0.00027303,-0.01655255,-0.05042920,0.32800614,-0.00319171,-0.00460726,
 0.00220013,-0.02414760,0.01351402,-0.00822756,-0.22915546,0.10112751,-
 0.06387145,0.00088044,0.00163782,0.00007828,0.00030256,-0.00002610,-0.
 00012094,0.00030900,-0.00007618,0.00005579,-0.00146125,0.00081682,-0.0
 0056330,0.00291658,-0.00182951,0.00045350,0.25175926,-0.00246229,-0.00
 201816,0.00114817,-0.01636854,0.00876249,-0.00692024,0.10384678,-0.106
 91910,0.03621032,-0.00050295,0.00142759,-0.00030482,0.00007141,-0.0001
 4537,-0.00001797,-0.00023613,0.00021315,0.00021932,-0.00103084,0.00076
 537,-0.00001234,0.00376561,-0.00326150,0.00100963,-0.11068891,0.112970
 45,0.00088560,0.00055410,-0.00019828,0.00661510,-0.00338127,0.00038691
 ,-0.06548762,0.03567016,-0.06945939,-0.00030004,-0.00006580,-0.0002286
 2,0.00028419,-0.00003553,0.00029059,-0.00017457,0.00024552,0.00000627,
 0.00038393,0.00011596,0.00051519,-0.02714192,0.01482480,-0.00799756,0.
 07078748,-0.04023990,0.07078143,0.00166308,-0.00077856,-0.00065316,0.0
 0160438,-0.02411580,-0.01452875,-0.05047924,0.01922309,0.01037505,-0.0
 0427224,-0.00217575,0.00205053,-0.00012256,0.00000033,-0.00001256,-0.0
 0049400,0.00037337,0.00023312,0.00021492,0.00023074,0.00020962,-0.0012
 1697,0.00163787,0.00055778,-0.00110841,0.02286811,0.01420772,0.0527219
 1,0.00134713,0.00055537,0.00015981,0.00175128,-0.01864135,-0.00912256,
 0.01694680,-0.24764519,-0.10981273,-0.00394249,-0.00106441,0.00199990,
 0.00002111,0.00006725,0.00011296,-0.00047474,0.00083435,0.00003772,0.0
 0005394,0.00021434,0.00027900,-0.00038492,0.00677442,0.00295823,0.0007
 1534,-0.01219846,-0.00686751,-0.01678293,0.27007087,-0.00016604,-0.000
 00559,-0.00013904,-0.00042121,0.00692945,0.00203878,0.00879746,-0.1114
 3382,-0.10740953,0.00063816,0.00074864,-0.00007151,-0.00004473,-0.0001
 3894,-0.00000592,-0.00027352,0.00006209,0.00027149,-0.00005611,0.00019
 584,0.00005742,0.00239792,-0.02828587,-0.01389992,0.00000637,0.0095777
 2,0.00491442,-0.01111717,0.12183092,0.11271836,-0.00036151,0.00462035,
 -0.03120671,-0.07173636,-0.01636103,-0.03416970,-0.00470879,-0.0083212
 6,0.03429918,-0.00025915,0.00070481,0.00125602,-0.00527548,0.00247086,
 -0.00100369,0.00111602,-0.00017569,0.00044633,0.00045251,-0.00176040,0
 .00094226,-0.00427518,-0.00322535,0.00171497,0.00163588,0.00049728,0.0
 0038680,0.00106001,0.00083820,0.00015388,0.32011209,0.00247191,-0.0039
 5686,0.01895655,-0.01471774,-0.04807954,-0.01756051,-0.00490064,-0.006
 35344,0.02591699,0.00029813,0.00481803,-0.02860010,0.00255476,-0.00121
 977,0.00143505,-0.00106919,0.00147108,-0.00000167,-0.00082814,0.000699
 08,-0.00021678,-0.00297754,-0.00202530,0.00108047,0.00079620,0.0005547
 4,-0.00011410,0.00089438,0.00116343,0.00038442,0.19330031,0.18206847,-
 0.01117820,0.00902543,-0.03503630,-0.04601723,-0.02557788,-0.08065977,
 0.00963783,0.00922832,-0.01895380,-0.00035091,-0.00620287,-0.04391355,
 -0.00396912,0.00290783,0.00034662,0.00136727,-0.00074035,0.00162773,0.
 00192568,-0.00025923,0.00038474,-0.00007170,-0.00012859,0.00071689,-0.
 00126535,-0.00040584,0.00066670,-0.00075432,-0.00105646,0.00063389,-0.
 04177476,-0.05934482,0.26707088,0.00110270,0.00054445,0.00062190,-0.00
 310040,0.00110361,-0.00003776,0.00059251,-0.00082698,0.00013352,-0.241
 93640,0.09810247,-0.05998002,0.00001111,-0.00015077,-0.00010168,0.0000
 4891,0.00023688,-0.00019403,0.00034535,-0.00019140,-0.00011470,-0.0000
 0470,-0.00005028,0.00008161,0.00060785,-0.00003746,-0.00009941,0.00016
 331,-0.00002704,0.00013715,0.00099013,-0.00004918,-0.00008933,0.260824
 95,-0.00098038,-0.00515574,-0.00350883,0.02695313,-0.01458375,0.009370
 67,0.00138860,0.00141199,0.00064904,0.09577950,-0.09707534,0.02947207,
 -0.00034940,0.00019297,0.00001736,0.00180845,-0.00078692,0.00024575,0.
 00003087,0.00008307,-0.00008670,-0.00003945,-0.00010555,-0.00001303,-0
 .00095554,-0.00025414,-0.00025654,-0.00022276,0.00043892,-0.00014096,-
 0.00084035,0.00122086,0.00158647,-0.10856944,0.10665304,-0.00003061,-0
 .00234155,-0.00110420,0.01306040,-0.00704551,0.00194527,0.00030100,0.0
 0055427,0.00001642,-0.06091303,0.03156298,-0.06592251,0.00011491,-0.00
 019615,0.00033306,0.00057374,-0.00056668,0.00058196,-0.00025612,0.0000
 4993,-0.00005994,-0.00013844,0.00011620,-0.00001310,-0.00010169,0.0001
 0913,0.00025814,0.00016464,0.00005974,-0.00007382,0.00009374,0.0003484
 6,0.00200384,0.06654351,-0.03155956,0.06713156,-0.00007002,0.00003102,
 -0.00003251,-0.00183460,-0.00118620,0.00122756,-0.00013398,0.00000414,
 -0.00004002,-0.04613329,0.00141096,-0.00696376,-0.00005114,0.00054171,
 0.00008081,-0.00002534,-0.00013330,-0.00011863,-0.00002844,0.00002050,
 0.00018010,0.00010146,-0.00042937,-0.00003023,0.00004034,-0.00004635,-
 0.00016312,-0.00005623,0.00008658,0.00013940,0.00023514,-0.00011726,0.
 00117890,0.00037775,0.00123997,-0.02822971,0.04548643,-0.00010215,0.00
 104645,0.00049227,-0.00032545,0.00361032,-0.02899052,0.00004266,0.0010
 8707,0.00047608,0.00105933,-0.04886035,0.02346056,0.00043219,-0.000466
 14,0.00007165,-0.00031322,0.00019329,0.00019329,0.00001894,-0.00006930
 ,0.00000678,-0.00035016,-0.00048734,0.00009253,-0.00006416,-0.00009349
 ,-0.00000010,0.00025541,0.00019969,0.00022941,-0.00040527,-0.00505459,
 -0.00577911,-0.00094211,-0.00157067,0.01396246,-0.00140693,0.05162131,
 -0.00032845,0.00088468,0.00010541,-0.00034033,0.00346480,-0.01414478,0
 .00017084,0.00077063,0.00011193,-0.00631475,0.02122804,-0.30690622,0.0
 0028959,-0.00025932,0.00077140,-0.00003696,-0.00011152,0.00036920,-0.0
 0008560,-0.00004999,-0.00004189,-0.00027995,-0.00033081,0.00060681,0.0
 0008296,-0.00006371,-0.00000807,0.00003041,-0.00013607,0.00030431,0.00
 089480,-0.00249184,-0.00132917,-0.00008697,0.00073976,-0.00713126,0.00
 725437,-0.02362646,0.33484296,0.00071763,0.00039690,-0.00047086,0.0008
 4327,0.00109322,-0.00250941,0.00067325,0.00017506,0.00003423,-0.205861
 02,-0.11621184,0.06035103,-0.00004970,0.00006361,-0.00006714,0.0000405
 5,-0.00006987,-0.00007954,0.00025101,0.00019852,0.00015822,-0.00007434
 ,0.00008430,0.00011861,0.00037370,0.00017256,0.00015434,0.00036873,-0.
 00005727,0.00026694,-0.00015971,-0.00141812,0.00030503,-0.01959083,-0.
 01547710,0.00859757,0.00170004,0.00228098,-0.00042521,0.22082770,-0.00
 111517,0.00142717,0.00042408,-0.02494361,-0.01904999,0.00972442,0.0019
 2580,-0.00478303,-0.00360359,-0.11399504,-0.13295840,0.04457092,0.0000
 0498,-0.00006595,-0.00006765,0.00013742,0.00041161,-0.00018609,0.00095
 101,-0.00023870,-0.00009966,0.00030175,0.00024709,0.00003884,-0.000060
 11,0.00012212,-0.00010363,-0.00166262,-0.00100547,0.00024277,-0.000330
 86,0.00079533,0.00202809,0.01118161,0.00912585,-0.00532800,-0.00058878
 ,-0.00149549,0.00060098,0.12723622,0.14627289,-0.00026140,0.00072355,-
 0.00000820,-0.01191857,-0.00892868,0.00362229,0.00039817,-0.00239916,-
 0.00158141,0.06182503,0.04742908,-0.06964440,0.00007862,0.00015402,-0.
 00002399,-0.00011293,0.00002365,-0.00008369,0.00016327,0.00004711,0.00
 034237,-0.00004322,-0.00016678,0.00025511,0.00029139,0.00008577,-0.000
 00914,-0.00053285,-0.00081116,0.00045605,0.00017094,0.00122939,0.00090
 073,-0.00751977,-0.00626307,0.00248851,0.02509967,0.01830422,-0.008224
 00,-0.06749725,-0.04884139,0.07259159,-0.00132268,0.00173016,-0.004366
 48,-0.00889979,-0.00547670,0.02934242,0.00291378,0.00102585,0.00340002
 ,0.00157832,-0.00104723,-0.00174453,0.00052626,0.00068000,-0.00075394,
 0.00028635,-0.00054419,0.00014239,0.00189000,0.00098316,-0.00080504,-0
 .00072927,-0.00075837,-0.00030080,0.00023883,0.00015174,-0.00033848,-0
 .00004669,-0.00009098,-0.00045852,-0.23882560,-0.17423787,0.09105620,-
 0.00043224,0.00023389,0.00022008,0.00039188,-0.00018007,-0.00082475,-0
 .00006029,0.00095740,-0.00014111,0.24249115,-0.00009054,0.00157267,0.0
 0019939,-0.00715179,-0.01463541,0.02144748,0.00171092,0.00131145,0.003
 94597,-0.00012067,-0.00061351,-0.00454765,-0.00050633,0.00037025,-0.00
 054326,-0.00002480,-0.00045662,0.00011008,0.00004572,-0.00090442,0.000
 10865,-0.00116107,-0.00030964,-0.00016598,-0.00029993,0.00007432,-0.00
 034615,0.00025511,0.00023623,-0.00019608,-0.17101161,-0.12610154,0.074
 71901,-0.00032435,0.00040541,0.00027429,0.00057330,0.00033926,-0.00061
 918,0.00153283,0.00119495,-0.00058655,0.17657320,0.13751659,0.00003222
 ,0.00036201,0.00137429,0.04141928,0.02962004,-0.01829204,-0.00153916,0
 .00060356,-0.01115988,0.00030324,-0.00034787,0.00065946,0.00112566,-0.
 00015698,0.00050800,-0.00006342,0.00082634,-0.00031048,0.00060030,0.00
 068832,-0.00093275,0.00260254,0.00179875,0.00018213,0.00019438,-0.0003
 9523,0.00008143,-0.00023006,0.00036820,0.00020503,0.06779592,0.0589784
 8,-0.09445944,0.00070596,-0.00025244,-0.00045392,0.00041718,0.00110694
 ,0.00067337,0.00106344,0.00059991,-0.00108183,-0.11442748,-0.09380003,
 0.12300663\\0.00000255,-0.00000919,0.00001386,0.00001617,0.00000682,0.
 00002977,0.00000793,0.00000123,0.00002983,-0.00000569,0.00000298,0.000
 01555,-0.00000376,0.00000146,-0.00000476,-0.00000349,0.00000505,0.0000
 0174,-0.00000446,-0.00000825,0.00000287,0.00000236,0.00000190,-0.00000
 223,0.00000603,-0.00000236,0.00000123,0.00000029,0.00000613,0.00000241
 ,-0.00000637,0.00001058,-0.00010733,0.00000352,-0.00000532,0.00000031,
 -0.00000069,-0.00000306,-0.00000539,-0.00000888,-0.00000170,0.00000378
 ,-0.00000551,-0.00000628,0.00001836\\\@
 The archive entry for this job was punched.


 WE MIGHT AS WELL ATTEMPT TO INTRODUCE A NEW PLANET 
 INTO THE SOLAR SYSTEM, OR TO ANNIHILATE ONE ALREADYIN EXISTENCE, 
 AS TO CREATE OR DESTROY A PARTICLE OF HYDROGEN.
 ALL THE CHANGES WE CAN PRODUCE CONSIST IN SEPARATING PARTICLES
 THAT ARE IN A STATE OF ... COMBINATION, AND JOINING 
 THOSE THAT WERE PREVIOUSLY AT A DISTANCE.

                                    -- JOHN DALTON, 1810
 Job cpu time:       0 days  0 hours 47 minutes  0.7 seconds.
 Elapsed time:       0 days  0 hours  5 minutes 53.0 seconds.
 File lengths (MBytes):  RWF=    166 Int=      0 D2E=      0 Chk=     12 Scr=      1
 Normal termination of Gaussian 16 at Mon Apr 11 19:49:21 2022.
