 Entering Gaussian System, Link 0=g16
 Input=Mol_04.com
 Output=Mol_04.log
 Initial command:
 /home/saurabh/gaussian/g16/l1.exe "/home/saurabh/gaussian/gauss_scr/Gau-1960.inp" -scrdir="/home/saurabh/gaussian/gauss_scr/"
 Entering Link 1 = /home/saurabh/gaussian/g16/l1.exe PID=      1961.
  
 Copyright (c) 1988-2019, Gaussian, Inc.  All Rights Reserved.
  
 This is part of the Gaussian(R) 16 program.  It is based on
 the Gaussian(R) 09 system (copyright 2009, Gaussian, Inc.),
 the Gaussian(R) 03 system (copyright 2003, Gaussian, Inc.),
 the Gaussian(R) 98 system (copyright 1998, Gaussian, Inc.),
 the Gaussian(R) 94 system (copyright 1995, Gaussian, Inc.),
 the Gaussian 92(TM) system (copyright 1992, Gaussian, Inc.),
 the Gaussian 90(TM) system (copyright 1990, Gaussian, Inc.),
 the Gaussian 88(TM) system (copyright 1988, Gaussian, Inc.),
 the Gaussian 86(TM) system (copyright 1986, Carnegie Mellon
 University), and the Gaussian 82(TM) system (copyright 1983,
 Carnegie Mellon University). Gaussian is a federally registered
 trademark of Gaussian, Inc.
  
 This software contains proprietary and confidential information,
 including trade secrets, belonging to Gaussian, Inc.
  
 This software is provided under written license and may be
 used, copied, transmitted, or stored only in accord with that
 written license.
  
 The following legend is applicable only to US Government
 contracts under FAR:
  
                    RESTRICTED RIGHTS LEGEND
  
 Use, reproduction and disclosure by the US Government is
 subject to restrictions as set forth in subparagraphs (a)
 and (c) of the Commercial Computer Software - Restricted
 Rights clause in FAR 52.227-19.
  
 Gaussian, Inc.
 340 Quinnipiac St., Bldg. 40, Wallingford CT 06492
  
  
 ---------------------------------------------------------------
 Warning -- This program may not be used in any manner that
 competes with the business of Gaussian, Inc. or will provide
 assistance to any competitor of Gaussian, Inc.  The licensee
 of this program is prohibited from giving any competitor of
 Gaussian, Inc. access to this program.  By using this program,
 the user acknowledges that Gaussian, Inc. is engaged in the
 business of creating and licensing software in the field of
 computational chemistry and represents and warrants to the
 licensee that it is not a competitor of Gaussian, Inc. and that
 it will not use this program in any manner prohibited above.
 ---------------------------------------------------------------
  

 Cite this work as:
 Gaussian 16, Revision C.01,
 M. J. Frisch, G. W. Trucks, H. B. Schlegel, G. E. Scuseria, 
 M. A. Robb, J. R. Cheeseman, G. Scalmani, V. Barone, 
 G. A. Petersson, H. Nakatsuji, X. Li, M. Caricato, A. V. Marenich, 
 J. Bloino, B. G. Janesko, R. Gomperts, B. Mennucci, H. P. Hratchian, 
 J. V. Ortiz, A. F. Izmaylov, J. L. Sonnenberg, D. Williams-Young, 
 F. Ding, F. Lipparini, F. Egidi, J. Goings, B. Peng, A. Petrone, 
 T. Henderson, D. Ranasinghe, V. G. Zakrzewski, J. Gao, N. Rega, 
 G. Zheng, W. Liang, M. Hada, M. Ehara, K. Toyota, R. Fukuda, 
 J. Hasegawa, M. Ishida, T. Nakajima, Y. Honda, O. Kitao, H. Nakai, 
 T. Vreven, K. Throssell, J. A. Montgomery, Jr., J. E. Peralta, 
 F. Ogliaro, M. J. Bearpark, J. J. Heyd, E. N. Brothers, K. N. Kudin, 
 V. N. Staroverov, T. A. Keith, R. Kobayashi, J. Normand, 
 K. Raghavachari, A. P. Rendell, J. C. Burant, S. S. Iyengar, 
 J. Tomasi, M. Cossi, J. M. Millam, M. Klene, C. Adamo, R. Cammi, 
 J. W. Ochterski, R. L. Martin, K. Morokuma, O. Farkas, 
 J. B. Foresman, and D. J. Fox, Gaussian, Inc., Wallingford CT, 2019.
 
 ******************************************
 Gaussian 16:  ES64L-G16RevC.01  3-Jul-2019
                 7-Apr-2022 
 ******************************************
 %mem=8gb
 %nproc=8
 Will use up to    8 processors via shared memory.
 %chk=Mol_04.chk
 ----------------------------------------------------------------------
 #p B3LYP/cc-PVTZ scf(verytight, maxcycles=1000) opt(calcfc, maxcyc=100
 0) freq(hpmodes) int(grid=ultrafine)
 ----------------------------------------------------------------------
 1/6=1000,10=4,18=20,19=15,26=4,38=1/1,3;
 2/9=110,12=2,17=6,18=5,40=1/2;
 3/5=16,6=1,11=2,25=1,30=1,71=2,74=-5,75=-5,140=1/1,2,3;
 4//1;
 5/5=2,7=1000,17=3,38=5/2;
 8/6=4,10=90,11=11/1;
 11/6=1,8=1,9=11,15=111,16=1/1,2,10;
 10/6=1,13=1/2;
 6/7=2,8=2,9=2,10=2,28=1/1;
 7/10=1,25=1/1,2,3,16;
 1/6=1000,10=4,18=20,19=15,26=4/3(2);
 2/9=110/2;
 99//99;
 2/9=110/2;
 3/5=16,6=1,11=2,25=1,30=1,71=1,74=-5,75=-5/1,2,3;
 4/5=5,16=3,69=1/1;
 5/5=2,7=1000,17=3,38=5/2;
 7//1,2,3,16;
 1/6=1000,18=20,19=15,26=4/3(-5);
 2/9=110/2;
 6/7=2,8=2,9=2,10=2,19=2,28=1/1;
 99/9=1/99;
 Leave Link    1 at Thu Apr  7 20:10:28 2022, MaxMem=  1073741824 cpu:               0.5 elap:               0.1
 (Enter /home/saurabh/gaussian/g16/l101.exe)
 ------
 Mol_04
 ------
 Symbolic Z-matrix:
 Charge =  0 Multiplicity = 1
 C                    -3.2218    2.04786  -0.01458 
 C                    -2.09978   1.02068  -0.14355 
 C                    -0.76116   1.50528  -0.54031 
 C                    -2.18216  -0.28385   0.64515 
 H                    -3.05602   2.92145  -0.68126 
 H                    -3.27701   2.40489   1.03492 
 H                    -4.18937   1.57645  -0.28639 
 H                    -2.17831  -0.05928   1.73214 
 H                    -1.32724  -0.95586   0.41579 
 H                    -3.124    -0.81297   0.38968 
 O                    -1.64608   0.85298  -1.45122 
 H                     0.11941   0.84113  -0.41331 
 H                    -0.64253   2.54999  -0.89682 
 
 ITRead=  0  0  0  0  0  0  0  0  0  0  0  0  0
 MicOpt= -1 -1 -1 -1 -1 -1 -1 -1 -1 -1 -1 -1 -1
 NAtoms=     13 NQM=       13 NQMF=       0 NMMI=      0 NMMIF=      0
                NMic=       0 NMicF=      0.
                    Isotopes and Nuclear Properties:
 (Nuclear quadrupole moments (NQMom) in fm**2, nuclear magnetic moments (NMagM)
  in nuclear magnetons)

  Atom         1           2           3           4           5           6           7           8           9          10
 IAtWgt=          12          12          12          12           1           1           1           1           1           1
 AtmWgt=  12.0000000  12.0000000  12.0000000  12.0000000   1.0078250   1.0078250   1.0078250   1.0078250   1.0078250   1.0078250
 NucSpn=           0           0           0           0           1           1           1           1           1           1
 AtZEff=  -0.0000000  -0.0000000  -0.0000000  -0.0000000  -0.0000000  -0.0000000  -0.0000000  -0.0000000  -0.0000000  -0.0000000
 NQMom=    0.0000000   0.0000000   0.0000000   0.0000000   0.0000000   0.0000000   0.0000000   0.0000000   0.0000000   0.0000000
 NMagM=    0.0000000   0.0000000   0.0000000   0.0000000   2.7928460   2.7928460   2.7928460   2.7928460   2.7928460   2.7928460
 AtZNuc=   6.0000000   6.0000000   6.0000000   6.0000000   1.0000000   1.0000000   1.0000000   1.0000000   1.0000000   1.0000000

  Atom        11          12          13
 IAtWgt=          16           1           1
 AtmWgt=  15.9949146   1.0078250   1.0078250
 NucSpn=           0           1           1
 AtZEff=  -0.0000000  -0.0000000  -0.0000000
 NQMom=    0.0000000   0.0000000   0.0000000
 NMagM=    0.0000000   2.7928460   2.7928460
 AtZNuc=   8.0000000   1.0000000   1.0000000
 Leave Link  101 at Thu Apr  7 20:10:28 2022, MaxMem=  1073741824 cpu:               1.4 elap:               0.2
 (Enter /home/saurabh/gaussian/g16/l103.exe)

 GradGradGradGradGradGradGradGradGradGradGradGradGradGradGradGradGradGrad
 Berny optimization.
 Initialization pass.
                           ----------------------------
                           !    Initial Parameters    !
                           ! (Angstroms and Degrees)  !
 --------------------------                            --------------------------
 ! Name  Definition              Value          Derivative Info.                !
 --------------------------------------------------------------------------------
 ! R1    R(1,2)                  1.5266         calculate D2E/DX2 analytically  !
 ! R2    R(1,5)                  1.1113         calculate D2E/DX2 analytically  !
 ! R3    R(1,6)                  1.1099         calculate D2E/DX2 analytically  !
 ! R4    R(1,7)                  1.1101         calculate D2E/DX2 analytically  !
 ! R5    R(2,3)                  1.4779         calculate D2E/DX2 analytically  !
 ! R6    R(2,4)                  1.5266         calculate D2E/DX2 analytically  !
 ! R7    R(2,11)                 1.3943         calculate D2E/DX2 analytically  !
 ! R8    R(3,11)                 1.4277         calculate D2E/DX2 analytically  !
 ! R9    R(3,12)                 1.1102         calculate D2E/DX2 analytically  !
 ! R10   R(3,13)                 1.1102         calculate D2E/DX2 analytically  !
 ! R11   R(4,8)                  1.1099         calculate D2E/DX2 analytically  !
 ! R12   R(4,9)                  1.1113         calculate D2E/DX2 analytically  !
 ! R13   R(4,10)                 1.1101         calculate D2E/DX2 analytically  !
 ! A1    A(2,1,5)              111.6276         calculate D2E/DX2 analytically  !
 ! A2    A(2,1,6)              109.4427         calculate D2E/DX2 analytically  !
 ! A3    A(2,1,7)              109.5233         calculate D2E/DX2 analytically  !
 ! A4    A(5,1,6)              108.7706         calculate D2E/DX2 analytically  !
 ! A5    A(5,1,7)              108.4784         calculate D2E/DX2 analytically  !
 ! A6    A(6,1,7)              108.9514         calculate D2E/DX2 analytically  !
 ! A7    A(1,2,3)              117.8892         calculate D2E/DX2 analytically  !
 ! A8    A(1,2,4)              119.448          calculate D2E/DX2 analytically  !
 ! A9    A(1,2,11)             113.5356         calculate D2E/DX2 analytically  !
 ! A10   A(3,2,4)              117.8892         calculate D2E/DX2 analytically  !
 ! A11   A(4,2,11)             113.5356         calculate D2E/DX2 analytically  !
 ! A12   A(2,3,12)             119.4419         calculate D2E/DX2 analytically  !
 ! A13   A(2,3,13)             119.4419         calculate D2E/DX2 analytically  !
 ! A14   A(11,3,12)            106.9343         calculate D2E/DX2 analytically  !
 ! A15   A(11,3,13)            106.9342         calculate D2E/DX2 analytically  !
 ! A16   A(12,3,13)            120.9898         calculate D2E/DX2 analytically  !
 ! A17   A(2,4,8)              109.4427         calculate D2E/DX2 analytically  !
 ! A18   A(2,4,9)              111.6276         calculate D2E/DX2 analytically  !
 ! A19   A(2,4,10)             109.5233         calculate D2E/DX2 analytically  !
 ! A20   A(8,4,9)              108.7706         calculate D2E/DX2 analytically  !
 ! A21   A(8,4,10)             108.9514         calculate D2E/DX2 analytically  !
 ! A22   A(9,4,10)             108.4784         calculate D2E/DX2 analytically  !
 ! D1    D(5,1,2,3)             27.8727         calculate D2E/DX2 analytically  !
 ! D2    D(5,1,2,4)           -177.0956         calculate D2E/DX2 analytically  !
 ! D3    D(5,1,2,11)           -38.8441         calculate D2E/DX2 analytically  !
 ! D4    D(6,1,2,3)            -92.5942         calculate D2E/DX2 analytically  !
 ! D5    D(6,1,2,4)             62.4375         calculate D2E/DX2 analytically  !
 ! D6    D(6,1,2,11)          -159.311          calculate D2E/DX2 analytically  !
 ! D7    D(7,1,2,3)            148.0273         calculate D2E/DX2 analytically  !
 ! D8    D(7,1,2,4)            -56.941          calculate D2E/DX2 analytically  !
 ! D9    D(7,1,2,11)            81.3104         calculate D2E/DX2 analytically  !
 ! D10   D(1,2,3,12)           165.6898         calculate D2E/DX2 analytically  !
 ! D11   D(1,2,3,13)           -10.2648         calculate D2E/DX2 analytically  !
 ! D12   D(4,2,3,12)            10.2648         calculate D2E/DX2 analytically  !
 ! D13   D(4,2,3,13)          -165.6898         calculate D2E/DX2 analytically  !
 ! D14   D(1,2,4,8)            -62.4378         calculate D2E/DX2 analytically  !
 ! D15   D(1,2,4,9)            177.0953         calculate D2E/DX2 analytically  !
 ! D16   D(1,2,4,10)            56.9408         calculate D2E/DX2 analytically  !
 ! D17   D(3,2,4,8)             92.5939         calculate D2E/DX2 analytically  !
 ! D18   D(3,2,4,9)            -27.873          calculate D2E/DX2 analytically  !
 ! D19   D(3,2,4,10)          -148.0275         calculate D2E/DX2 analytically  !
 ! D20   D(11,2,4,8)           159.3107         calculate D2E/DX2 analytically  !
 ! D21   D(11,2,4,9)            38.8439         calculate D2E/DX2 analytically  !
 ! D22   D(11,2,4,10)          -81.3107         calculate D2E/DX2 analytically  !
 --------------------------------------------------------------------------------
 Trust Radius=3.00D-01 FncErr=1.00D-07 GrdErr=1.00D-06 EigMax=2.50D+02 EigMin=1.00D-04
 Number of steps in this run=    100 maximum allowed number of steps=    100.
 GradGradGradGradGradGradGradGradGradGradGradGradGradGradGradGradGradGrad

 Leave Link  103 at Thu Apr  7 20:10:28 2022, MaxMem=  1073741824 cpu:               0.1 elap:               0.0
 (Enter /home/saurabh/gaussian/g16/l202.exe)
                          Input orientation:                          
 ---------------------------------------------------------------------
 Center     Atomic      Atomic             Coordinates (Angstroms)
 Number     Number       Type             X           Y           Z
 ---------------------------------------------------------------------
      1          6           0       -3.221801    2.047855   -0.014582
      2          6           0       -2.099779    1.020684   -0.143550
      3          6           0       -0.761161    1.505275   -0.540307
      4          6           0       -2.182163   -0.283848    0.645155
      5          1           0       -3.056018    2.921445   -0.681256
      6          1           0       -3.277011    2.404888    1.034920
      7          1           0       -4.189365    1.576445   -0.286392
      8          1           0       -2.178306   -0.059280    1.732136
      9          1           0       -1.327244   -0.955863    0.415793
     10          1           0       -3.123996   -0.812971    0.389679
     11          8           0       -1.646083    0.852981   -1.451215
     12          1           0        0.119406    0.841130   -0.413315
     13          1           0       -0.642526    2.549993   -0.896824
 ---------------------------------------------------------------------
                    Distance matrix (angstroms):
                    1          2          3          4          5
     1  C    0.000000
     2  C    1.526646   0.000000
     3  C    2.574011   1.477885   0.000000
     4  C    2.636843   1.526646   2.574010   0.000000
     5  H    1.111350   2.194633   2.700329   3.577275   0.000000
     6  H    1.109943   2.165800   3.101636   2.929149   1.805804
     7  H    1.110085   2.166944   3.438332   2.890905   1.802615
     8  H    2.929151   2.165800   3.101634   1.109943   3.934408
     9  H    3.577274   2.194633   2.700330   1.111350   4.384712
    10  H    2.890903   2.166944   3.438333   1.110085   3.885536
    11  O    2.444285   1.394257   1.427700   2.444285   2.619027
    12  H    3.574750   2.242720   1.110231   2.771850   3.805630
    13  H    2.771850   2.242720   1.110231   3.574750   2.451406
                    6          7          8          9         10
     6  H    0.000000
     7  H    1.806813   0.000000
     8  H    2.786645   3.285485   0.000000
     9  H    3.934407   3.885535   1.805804   0.000000
    10  H    3.285478   2.702109   1.806813   1.802615   0.000000
    11  O    3.353985   2.889377   3.353984   2.619025   2.889380
    12  H    4.009785   4.372906   3.270042   2.451407   3.728338
    13  H    3.270046   3.728336   4.009783   3.805631   4.372907
                   11         12         13
    11  O    0.000000
    12  H    2.048005   0.000000
    13  H    2.048005   1.932494   0.000000
 Stoichiometry    C4H8O
 Framework group  C1[X(C4H8O)]
 Deg. of freedom    33
 Full point group                 C1      NOp   1
 Largest Abelian subgroup         C1      NOp   1
 Largest concise Abelian subgroup C1      NOp   1
                         Standard orientation:                         
 ---------------------------------------------------------------------
 Center     Atomic      Atomic             Coordinates (Angstroms)
 Number     Number       Type             X           Y           Z
 ---------------------------------------------------------------------
      1          6           0       -0.912716   -1.318421   -0.055158
      2          6           0       -0.143054    0.000000   -0.049341
      3          6           0        1.232248   -0.000000   -0.590348
      4          6           0       -0.912715    1.318422   -0.055157
      5          1           0       -0.228590   -2.192356    0.002361
      6          1           0       -1.510201   -1.393321   -0.987560
      7          1           0       -1.599250   -1.351055    0.816562
      8          1           0       -1.510197    1.393324   -0.987562
      9          1           0       -0.228590    2.192356    0.002366
     10          1           0       -1.599254    1.351054    0.816559
     11          8           0        0.954788   -0.000000    0.810132
     12          1           0        1.727600    0.966247   -0.821877
     13          1           0        1.727600   -0.966247   -0.821877
 ---------------------------------------------------------------------
 Rotational constants (GHZ):           6.3040461           5.7316408           3.8945417
 Leave Link  202 at Thu Apr  7 20:10:28 2022, MaxMem=  1073741824 cpu:               0.1 elap:               0.0
 (Enter /home/saurabh/gaussian/g16/l301.exe)
 Standard basis: CC-pVTZ (5D, 7F)
 Ernie: Thresh=  0.10000D-02 Tol=  0.10000D-05 Strict=F.
 Ernie:  15 primitive shells out of 194 were deleted.
 There are   295 symmetry adapted cartesian basis functions of A   symmetry.
 There are   262 symmetry adapted basis functions of A   symmetry.
   262 basis functions,   396 primitive gaussians,   295 cartesian basis functions
    20 alpha electrons       20 beta electrons
       nuclear repulsion energy       185.6300045619 Hartrees.
 IExCor=  402 DFT=T Ex+Corr=B3LYP ExCW=0 ScaHFX=  0.200000
 ScaDFX=  0.800000  0.720000  1.000000  0.810000 ScalE2=  1.000000  1.000000
 IRadAn=      5 IRanWt=     -1 IRanGd=            0 ICorTp=0 IEmpDi=  4
 NAtoms=   13 NActive=   13 NUniq=   13 SFac= 1.00D+00 NAtFMM=   60 NAOKFM=F Big=F
 Integral buffers will be    131072 words long.
 Raffenetti 2 integral format.
 Two-electron integral symmetry is turned on.
 Leave Link  301 at Thu Apr  7 20:10:28 2022, MaxMem=  1073741824 cpu:               0.4 elap:               0.1
 (Enter /home/saurabh/gaussian/g16/l302.exe)
 NPDir=0 NMtPBC=     1 NCelOv=     1 NCel=       1 NClECP=     1 NCelD=      1
         NCelK=      1 NCelE2=     1 NClLst=     1 CellRange=     0.0.
 One-electron integrals computed using PRISM.
 One-electron integral symmetry used in STVInt
 NBasis=   262 RedAO= T EigKep=  3.92D-04  NBF=   262
 NBsUse=   262 1.00D-06 EigRej= -1.00D+00 NBFU=   262
 Precomputing XC quadrature grid using
 IXCGrd= 4 IRadAn=           5 IRanWt=          -1 IRanGd=           0 AccXCQ= 0.00D+00.
 Generated NRdTot=       0 NPtTot=           0 NUsed=           0 NTot=          32
 NSgBfM=   295   295   295   295   295 MxSgAt=    13 MxSgA2=    13.
 Leave Link  302 at Thu Apr  7 20:10:29 2022, MaxMem=  1073741824 cpu:               1.6 elap:               0.2
 (Enter /home/saurabh/gaussian/g16/l303.exe)
 DipDrv:  MaxL=1.
 Leave Link  303 at Thu Apr  7 20:10:29 2022, MaxMem=  1073741824 cpu:               0.3 elap:               0.1
 (Enter /home/saurabh/gaussian/g16/l401.exe)
 ExpMin= 1.03D-01 ExpMax= 1.53D+04 ExpMxC= 5.22D+02 IAcc=3 IRadAn=         5 AccDes= 0.00D+00
 Harris functional with IExCor=  402 and IRadAn=       5 diagonalized for initial guess.
 HarFok:  IExCor=  402 AccDes= 0.00D+00 IRadAn=         5 IDoV= 1 UseB2=F ITyADJ=14
 ICtDFT=  3500011 ScaDFX=  1.000000  1.000000  1.000000  1.000000
 FoFCou: FMM=F IPFlag=           0 FMFlag=      100000 FMFlg1=           0
         NFxFlg=           0 DoJE=T BraDBF=F KetDBF=T FulRan=T
         wScrn=  0.000000 ICntrl=       500 IOpCl=  0 I1Cent=   200000004 NGrid=           0
         NMat0=    1 NMatS0=      1 NMatT0=    0 NMatD0=    1 NMtDS0=    0 NMtDT0=    0
 Petite list used in FoFCou.
 Harris En= -232.540821152771    
 JPrj=0 DoOrth=F DoCkMO=F.
 Leave Link  401 at Thu Apr  7 20:10:29 2022, MaxMem=  1073741824 cpu:               5.9 elap:               0.8
 (Enter /home/saurabh/gaussian/g16/l502.exe)
 Integral symmetry usage will be decided dynamically.
 Closed shell SCF:
 Using DIIS extrapolation, IDIIS=  1040.
 NGot=  1073741824 LenX=  1073562416 LenY=  1073474950
 Requested convergence on RMS density matrix=1.00D-08 within1000 cycles.
 Requested convergence on MAX density matrix=1.00D-06.
 Requested convergence on             energy=1.00D-06.
 No special actions if energy rises.
 Fock matrices will be formed incrementally for  20 cycles.
 Integral accuracy reduced to 1.0D-05 until final iterations.

 Cycle   1  Pass 0  IDiag  1:
 FoFJK:  IHMeth= 1 ICntrl=       0 DoSepK=F KAlg= 0 I1Cent=           0 FoldK=F
 IRaf= 990000000 NMat=       1 IRICut=       1 DoRegI=T DoRafI=F ISym2E= 0 IDoP0=0 IntGTp=1.
 FoFCou: FMM=F IPFlag=           0 FMFlag=      100000 FMFlg1=           0
         NFxFlg=           0 DoJE=F BraDBF=F KetDBF=F FulRan=T
         wScrn=  0.000000 ICntrl=         0 IOpCl=  0 I1Cent=           0 NGrid=           0
         NMat0=    1 NMatS0=      1 NMatT0=    0 NMatD0=    1 NMtDS0=    0 NMtDT0=    0
 Symmetry not used in FoFCou.
 E= -232.339812696084    
 DIIS: error= 2.91D-02 at cycle   1 NSaved=   1.
 NSaved= 1 IEnMin= 1 EnMin= -232.339812696084     IErMin= 1 ErrMin= 2.91D-02
 ErrMax= 2.91D-02  0.00D+00 EMaxC= 1.00D-01 BMatC= 1.85D-01 BMatP= 1.85D-01
 IDIUse=3 WtCom= 7.09D-01 WtEn= 2.91D-01
 Coeff-Com:  0.100D+01
 Coeff-En:   0.100D+01
 Coeff:      0.100D+01
 Gap=     0.292 Goal=   None    Shift=    0.000
 GapD=    0.292 DampG=1.000 DampE=0.500 DampFc=0.5000 IDamp=-1.
 Damping current iteration by 5.00D-01
 RMSDP=2.96D-03 MaxDP=9.23D-02              OVMax= 1.68D-01

 Cycle   2  Pass 0  IDiag  1:
 RMSU=  1.47D-03    CP:  9.89D-01
 E= -232.412862699002     Delta-E=       -0.073050002919 Rises=F Damp=T
 DIIS: error= 4.57D-03 at cycle   2 NSaved=   2.
 NSaved= 2 IEnMin= 2 EnMin= -232.412862699002     IErMin= 2 ErrMin= 4.57D-03
 ErrMax= 4.57D-03  0.00D+00 EMaxC= 1.00D-01 BMatC= 1.01D-02 BMatP= 1.85D-01
 IDIUse=3 WtCom= 9.54D-01 WtEn= 4.57D-02
 Coeff-Com:  0.787D-01 0.921D+00
 Coeff-En:   0.151D+00 0.849D+00
 Coeff:      0.820D-01 0.918D+00
 Gap=     0.315 Goal=   None    Shift=    0.000
 RMSDP=6.59D-04 MaxDP=2.72D-02 DE=-7.31D-02 OVMax= 1.07D-01

 Cycle   3  Pass 0  IDiag  1:
 RMSU=  4.47D-04    CP:  9.92D-01  6.72D-01
 E= -232.504826105083     Delta-E=       -0.091963406081 Rises=F Damp=F
 DIIS: error= 4.59D-03 at cycle   3 NSaved=   3.
 NSaved= 3 IEnMin= 3 EnMin= -232.504826105083     IErMin= 2 ErrMin= 4.57D-03
 ErrMax= 4.59D-03  0.00D+00 EMaxC= 1.00D-01 BMatC= 5.95D-03 BMatP= 1.01D-02
 IDIUse=3 WtCom= 9.54D-01 WtEn= 4.59D-02
 Coeff-Com: -0.305D-02 0.416D+00 0.587D+00
 Coeff-En:   0.000D+00 0.000D+00 0.100D+01
 Coeff:     -0.291D-02 0.397D+00 0.606D+00
 Gap=     0.289 Goal=   None    Shift=    0.000
 RMSDP=2.69D-04 MaxDP=9.35D-03 DE=-9.20D-02 OVMax= 2.73D-02

 Cycle   4  Pass 0  IDiag  1:
 RMSU=  1.86D-04    CP:  9.91D-01  7.64D-01  6.91D-01
 E= -232.507396012944     Delta-E=       -0.002569907861 Rises=F Damp=F
 DIIS: error= 3.40D-03 at cycle   4 NSaved=   4.
 NSaved= 4 IEnMin= 4 EnMin= -232.507396012944     IErMin= 4 ErrMin= 3.40D-03
 ErrMax= 3.40D-03  0.00D+00 EMaxC= 1.00D-01 BMatC= 2.45D-03 BMatP= 5.95D-03
 IDIUse=3 WtCom= 9.66D-01 WtEn= 3.40D-02
 Coeff-Com: -0.154D-01 0.763D-01 0.400D+00 0.539D+00
 Coeff-En:   0.000D+00 0.000D+00 0.321D+00 0.679D+00
 Coeff:     -0.149D-01 0.737D-01 0.397D+00 0.544D+00
 Gap=     0.296 Goal=   None    Shift=    0.000
 RMSDP=1.03D-04 MaxDP=3.51D-03 DE=-2.57D-03 OVMax= 1.02D-02

 Cycle   5  Pass 0  IDiag  1:
 RMSU=  4.07D-05    CP:  9.91D-01  7.46D-01  8.00D-01  5.92D-01
 E= -232.509176690023     Delta-E=       -0.001780677078 Rises=F Damp=F
 DIIS: error= 4.24D-04 at cycle   5 NSaved=   5.
 NSaved= 5 IEnMin= 5 EnMin= -232.509176690023     IErMin= 5 ErrMin= 4.24D-04
 ErrMax= 4.24D-04  0.00D+00 EMaxC= 1.00D-01 BMatC= 3.89D-05 BMatP= 2.45D-03
 IDIUse=3 WtCom= 9.96D-01 WtEn= 4.24D-03
 Coeff-Com: -0.604D-02 0.182D-01 0.152D+00 0.236D+00 0.600D+00
 Coeff-En:   0.000D+00 0.000D+00 0.000D+00 0.000D+00 0.100D+01
 Coeff:     -0.602D-02 0.181D-01 0.151D+00 0.235D+00 0.601D+00
 Gap=     0.296 Goal=   None    Shift=    0.000
 RMSDP=1.89D-05 MaxDP=7.51D-04 DE=-1.78D-03 OVMax= 2.01D-03

 Cycle   6  Pass 0  IDiag  1:
 RMSU=  1.17D-05    CP:  9.91D-01  7.42D-01  8.07D-01  6.04D-01  6.88D-01
 E= -232.509202956909     Delta-E=       -0.000026266886 Rises=F Damp=F
 DIIS: error= 1.87D-04 at cycle   6 NSaved=   6.
 NSaved= 6 IEnMin= 6 EnMin= -232.509202956909     IErMin= 6 ErrMin= 1.87D-04
 ErrMax= 1.87D-04  0.00D+00 EMaxC= 1.00D-01 BMatC= 7.30D-06 BMatP= 3.89D-05
 IDIUse=3 WtCom= 9.98D-01 WtEn= 1.87D-03
 Coeff-Com: -0.153D-02 0.140D-02 0.436D-01 0.766D-01 0.340D+00 0.539D+00
 Coeff-En:   0.000D+00 0.000D+00 0.000D+00 0.000D+00 0.143D+00 0.857D+00
 Coeff:     -0.153D-02 0.140D-02 0.435D-01 0.765D-01 0.340D+00 0.540D+00
 Gap=     0.296 Goal=   None    Shift=    0.000
 RMSDP=5.85D-06 MaxDP=2.91D-04 DE=-2.63D-05 OVMax= 8.29D-04

 Initial convergence to 1.0D-05 achieved.  Increase integral accuracy.
 Cycle   7  Pass 1  IDiag  1:
 E= -232.509212971829     Delta-E=       -0.000010014920 Rises=F Damp=F
 DIIS: error= 1.75D-05 at cycle   1 NSaved=   1.
 NSaved= 1 IEnMin= 1 EnMin= -232.509212971829     IErMin= 1 ErrMin= 1.75D-05
 ErrMax= 1.75D-05  0.00D+00 EMaxC= 1.00D-01 BMatC= 1.17D-07 BMatP= 1.17D-07
 IDIUse=1 WtCom= 1.00D+00 WtEn= 0.00D+00
 Coeff-Com:  0.100D+01
 Coeff:      0.100D+01
 Gap=     0.296 Goal=   None    Shift=    0.000
 RMSDP=5.85D-06 MaxDP=2.91D-04 DE=-1.00D-05 OVMax= 1.56D-04

 Cycle   8  Pass 1  IDiag  1:
 RMSU=  3.10D-06    CP:  1.00D+00
 E= -232.509212947939     Delta-E=        0.000000023890 Rises=F Damp=F
 DIIS: error= 1.81D-05 at cycle   2 NSaved=   2.
 NSaved= 2 IEnMin= 1 EnMin= -232.509212971829     IErMin= 1 ErrMin= 1.75D-05
 ErrMax= 1.81D-05  0.00D+00 EMaxC= 1.00D-01 BMatC= 9.19D-08 BMatP= 1.17D-07
 IDIUse=1 WtCom= 1.00D+00 WtEn= 0.00D+00
 Coeff-Com:  0.462D+00 0.538D+00
 Coeff:      0.462D+00 0.538D+00
 Gap=     0.296 Goal=   None    Shift=    0.000
 RMSDP=9.05D-07 MaxDP=2.99D-05 DE= 2.39D-08 OVMax= 1.24D-04

 Cycle   9  Pass 1  IDiag  1:
 RMSU=  8.40D-07    CP:  1.00D+00  8.92D-01
 E= -232.509213026466     Delta-E=       -0.000000078527 Rises=F Damp=F
 DIIS: error= 5.73D-06 at cycle   3 NSaved=   3.
 NSaved= 3 IEnMin= 3 EnMin= -232.509213026466     IErMin= 3 ErrMin= 5.73D-06
 ErrMax= 5.73D-06  0.00D+00 EMaxC= 1.00D-01 BMatC= 1.01D-08 BMatP= 9.19D-08
 IDIUse=1 WtCom= 1.00D+00 WtEn= 0.00D+00
 Coeff-Com:  0.125D-01 0.249D+00 0.738D+00
 Coeff:      0.125D-01 0.249D+00 0.738D+00
 Gap=     0.296 Goal=   None    Shift=    0.000
 RMSDP=2.36D-07 MaxDP=9.39D-06 DE=-7.85D-08 OVMax= 3.32D-05

 Cycle  10  Pass 1  IDiag  1:
 RMSU=  7.98D-08    CP:  1.00D+00  9.24D-01  7.65D-01
 E= -232.509213035507     Delta-E=       -0.000000009041 Rises=F Damp=F
 DIIS: error= 1.37D-06 at cycle   4 NSaved=   4.
 NSaved= 4 IEnMin= 4 EnMin= -232.509213035507     IErMin= 4 ErrMin= 1.37D-06
 ErrMax= 1.37D-06  0.00D+00 EMaxC= 1.00D-01 BMatC= 5.13D-10 BMatP= 1.01D-08
 IDIUse=1 WtCom= 1.00D+00 WtEn= 0.00D+00
 Coeff-Com: -0.835D-03 0.129D+00 0.406D+00 0.466D+00
 Coeff:     -0.835D-03 0.129D+00 0.406D+00 0.466D+00
 Gap=     0.296 Goal=   None    Shift=    0.000
 RMSDP=4.46D-08 MaxDP=2.09D-06 DE=-9.04D-09 OVMax= 4.11D-06

 Cycle  11  Pass 1  IDiag  1:
 RMSU=  2.97D-08    CP:  1.00D+00  9.26D-01  7.74D-01  5.98D-01
 E= -232.509213035885     Delta-E=       -0.000000000378 Rises=F Damp=F
 DIIS: error= 2.60D-07 at cycle   5 NSaved=   5.
 NSaved= 5 IEnMin= 5 EnMin= -232.509213035885     IErMin= 5 ErrMin= 2.60D-07
 ErrMax= 2.60D-07  0.00D+00 EMaxC= 1.00D-01 BMatC= 2.03D-11 BMatP= 5.13D-10
 IDIUse=1 WtCom= 1.00D+00 WtEn= 0.00D+00
 Coeff-Com: -0.125D-02 0.512D-01 0.163D+00 0.242D+00 0.545D+00
 Coeff:     -0.125D-02 0.512D-01 0.163D+00 0.242D+00 0.545D+00
 Gap=     0.296 Goal=   None    Shift=    0.000
 RMSDP=1.12D-08 MaxDP=4.32D-07 DE=-3.78D-10 OVMax= 1.31D-06

 Cycle  12  Pass 1  IDiag  1:
 RMSU=  8.78D-09    CP:  1.00D+00  9.26D-01  7.74D-01  6.08D-01  7.67D-01
 E= -232.509213035897     Delta-E=       -0.000000000013 Rises=F Damp=F
 DIIS: error= 1.03D-07 at cycle   6 NSaved=   6.
 NSaved= 6 IEnMin= 6 EnMin= -232.509213035897     IErMin= 6 ErrMin= 1.03D-07
 ErrMax= 1.03D-07  0.00D+00 EMaxC= 1.00D-01 BMatC= 3.03D-12 BMatP= 2.03D-11
 IDIUse=1 WtCom= 1.00D+00 WtEn= 0.00D+00
 Coeff-Com: -0.599D-03 0.173D-01 0.549D-01 0.959D-01 0.326D+00 0.506D+00
 Coeff:     -0.599D-03 0.173D-01 0.549D-01 0.959D-01 0.326D+00 0.506D+00
 Gap=     0.296 Goal=   None    Shift=    0.000
 RMSDP=5.21D-09 MaxDP=1.53D-07 DE=-1.27D-11 OVMax= 4.05D-07

 SCF Done:  E(RB3LYP) =  -232.509213036     A.U. after   12 cycles
            NFock= 12  Conv=0.52D-08     -V/T= 2.0076
 KE= 2.307522191217D+02 PE=-9.124784929826D+02 EE= 2.635870562631D+02
 Leave Link  502 at Thu Apr  7 20:10:51 2022, MaxMem=  1073741824 cpu:             169.5 elap:              21.2
 (Enter /home/saurabh/gaussian/g16/l801.exe)
 DoSCS=F DFT=T ScalE2(SS,OS)=  1.000000  1.000000
 Range of M.O.s used for correlation:     1   262
 NBasis=   262 NAE=    20 NBE=    20 NFC=     0 NFV=     0
 NROrb=    262 NOA=    20 NOB=    20 NVA=   242 NVB=   242

 **** Warning!!: The largest alpha MO coefficient is  0.13955728D+02

 Leave Link  801 at Thu Apr  7 20:10:51 2022, MaxMem=  1073741824 cpu:               0.2 elap:               0.0
 (Enter /home/saurabh/gaussian/g16/l1101.exe)
 Using compressed storage, NAtomX=    13.
 Will process     14 centers per pass.
 Leave Link 1101 at Thu Apr  7 20:10:51 2022, MaxMem=  1073741824 cpu:               1.7 elap:               0.2
 (Enter /home/saurabh/gaussian/g16/l1102.exe)
 Symmetrizing basis deriv contribution to polar:
 IMax=3 JMax=2 DiffMx= 0.00D+00
 Leave Link 1102 at Thu Apr  7 20:10:51 2022, MaxMem=  1073741824 cpu:               0.2 elap:               0.1
 (Enter /home/saurabh/gaussian/g16/l1110.exe)
 Forming Gx(P) for the SCF density, NAtomX=    13.
 Integral derivatives from FoFJK, PRISM(SPDF).
 Do as many integral derivatives as possible in FoFJK.
 G2DrvN: MDV=    1073740349.
 G2DrvN: will do    14 centers at a time, making    1 passes.
 Calling FoFCou, ICntrl=  3107 FMM=F I1Cent=   0 AccDes= 0.00D+00.
 FoFJK:  IHMeth= 1 ICntrl=    3107 DoSepK=F KAlg= 0 I1Cent=           0 FoldK=F
 IRaf=         0 NMat=       1 IRICut=       1 DoRegI=T DoRafI=F ISym2E= 0 IDoP0=0 IntGTp=1.
 FoFCou: FMM=F IPFlag=           0 FMFlag=      100000 FMFlg1=           0
         NFxFlg=           0 DoJE=F BraDBF=F KetDBF=F FulRan=T
         wScrn=  0.000000 ICntrl=      3107 IOpCl=  0 I1Cent=           0 NGrid=           0
         NMat0=    1 NMatS0=      1 NMatT0=    0 NMatD0=    1 NMtDS0=    0 NMtDT0=    0
 Symmetry not used in FoFCou.
 End of G2Drv F.D. properties file   721 does not exist.
 End of G2Drv F.D. properties file   722 does not exist.
 End of G2Drv F.D. properties file   788 does not exist.
 Leave Link 1110 at Thu Apr  7 20:11:26 2022, MaxMem=  1073741824 cpu:             278.2 elap:              34.8
 (Enter /home/saurabh/gaussian/g16/l1002.exe)
 Minotr:  Closed shell wavefunction.
          IDoAtm=1111111111111
          Direct CPHF calculation.
          Differentiating once with respect to nuclear coordinates.
          Requested convergence is 1.0D-08 RMS, and 1.0D-07 maximum.
          Secondary convergence is 1.0D-12 RMS, and 1.0D-12 maximum.
          NewPWx=T KeepS1=F KeepF1=F KeepIn=T MapXYZ=F SortEE=F KeepMc=T.
         3847 words used for storage of precomputed grid.
 Keep R1 ints in memory in canonical form, NReq=606496514.
 FoFCou: FMM=F IPFlag=           0 FMFlag=           0 FMFlg1=           0
         NFxFlg=           0 DoJE=F BraDBF=F KetDBF=F FulRan=T
         wScrn=  0.000000 ICntrl=       600 IOpCl=  0 I1Cent=           0 NGrid=           0
         NMat0=    1 NMatS0=  34453 NMatT0=    0 NMatD0=    1 NMtDS0=    0 NMtDT0=    0
 Symmetry not used in FoFCou.
 Two-electron integral symmetry not used.
          MDV=    1073741824 using IRadAn=       1.
          Solving linear equations simultaneously, MaxMat=       0.
          There are    42 degrees of freedom in the 1st order CPHF.  IDoFFX=6 NUNeed=     0.
     36 vectors produced by pass  0 Test12= 1.15D-14 2.38D-09 XBig12= 1.22D-01 8.48D-02.
 AX will form    36 AO Fock derivatives at one time.
     36 vectors produced by pass  1 Test12= 1.15D-14 2.38D-09 XBig12= 2.30D-02 4.10D-02.
     36 vectors produced by pass  2 Test12= 1.15D-14 2.38D-09 XBig12= 2.99D-04 3.31D-03.
     36 vectors produced by pass  3 Test12= 1.15D-14 2.38D-09 XBig12= 2.09D-06 4.11D-04.
     36 vectors produced by pass  4 Test12= 1.15D-14 2.38D-09 XBig12= 4.46D-09 1.02D-05.
     22 vectors produced by pass  5 Test12= 1.15D-14 2.38D-09 XBig12= 7.45D-12 3.71D-07.
      8 vectors produced by pass  6 Test12= 1.15D-14 2.38D-09 XBig12= 7.07D-15 1.16D-08.
 InvSVY:  IOpt=1 It=  1 EMax= 1.55D-15
 Solved reduced A of dimension   210 with    36 vectors.
 End of Minotr F.D. properties file   721 does not exist.
 End of Minotr F.D. properties file   722 does not exist.
 End of Minotr F.D. properties file   788 does not exist.
 Leave Link 1002 at Thu Apr  7 20:12:02 2022, MaxMem=  1073741824 cpu:             287.8 elap:              36.0
 (Enter /home/saurabh/gaussian/g16/l601.exe)
 Copying SCF densities to generalized density rwf, IOpCl= 0 IROHF=0.

 **********************************************************************

            Population analysis using the SCF Density.

 **********************************************************************

 Orbital symmetries:
       Occupied  (A) (A) (A) (A) (A) (A) (A) (A) (A) (A) (A) (A)
                 (A) (A) (A) (A) (A) (A) (A) (A)
       Virtual   (A) (A) (A) (A) (A) (A) (A) (A) (A) (A) (A) (A)
                 (A) (A) (A) (A) (A) (A) (A) (A) (A) (A) (A) (A)
                 (A) (A) (A) (A) (A) (A) (A) (A) (A) (A) (A) (A)
                 (A) (A) (A) (A) (A) (A) (A) (A) (A) (A) (A) (A)
                 (A) (A) (A) (A) (A) (A) (A) (A) (A) (A) (A) (A)
                 (A) (A) (A) (A) (A) (A) (A) (A) (A) (A) (A) (A)
                 (A) (A) (A) (A) (A) (A) (A) (A) (A) (A) (A) (A)
                 (A) (A) (A) (A) (A) (A) (A) (A) (A) (A) (A) (A)
                 (A) (A) (A) (A) (A) (A) (A) (A) (A) (A) (A) (A)
                 (A) (A) (A) (A) (A) (A) (A) (A) (A) (A) (A) (A)
                 (A) (A) (A) (A) (A) (A) (A) (A) (A) (A) (A) (A)
                 (A) (A) (A) (A) (A) (A) (A) (A) (A) (A) (A) (A)
                 (A) (A) (A) (A) (A) (A) (A) (A) (A) (A) (A) (A)
                 (A) (A) (A) (A) (A) (A) (A) (A) (A) (A) (A) (A)
                 (A) (A) (A) (A) (A) (A) (A) (A) (A) (A) (A) (A)
                 (A) (A) (A) (A) (A) (A) (A) (A) (A) (A) (A) (A)
                 (A) (A) (A) (A) (A) (A) (A) (A) (A) (A) (A) (A)
                 (A) (A) (A) (A) (A) (A) (A) (A) (A) (A) (A) (A)
                 (A) (A) (A) (A) (A) (A) (A) (A) (A) (A) (A) (A)
                 (A) (A) (A) (A) (A) (A) (A) (A) (A) (A) (A) (A)
                 (A) (A)
 The electronic state is 1-A.
 Alpha  occ. eigenvalues --  -19.12686 -10.24111 -10.22232 -10.17812 -10.17812
 Alpha  occ. eigenvalues --   -1.08300  -0.76213  -0.70116  -0.65263  -0.56519
 Alpha  occ. eigenvalues --   -0.49671  -0.46839  -0.44205  -0.41207  -0.39822
 Alpha  occ. eigenvalues --   -0.38558  -0.36729  -0.36068  -0.29690  -0.26444
 Alpha virt. eigenvalues --    0.03195   0.06371   0.07120   0.07683   0.09340
 Alpha virt. eigenvalues --    0.09918   0.10346   0.13129   0.13468   0.15004
 Alpha virt. eigenvalues --    0.15542   0.20666   0.20681   0.24269   0.25250
 Alpha virt. eigenvalues --    0.28907   0.30975   0.33539   0.34176   0.34827
 Alpha virt. eigenvalues --    0.39770   0.40704   0.43030   0.44463   0.44820
 Alpha virt. eigenvalues --    0.45072   0.45137   0.45899   0.46022   0.47285
 Alpha virt. eigenvalues --    0.48384   0.49212   0.52319   0.55048   0.55681
 Alpha virt. eigenvalues --    0.59257   0.62750   0.67650   0.70646   0.73056
 Alpha virt. eigenvalues --    0.73115   0.79273   0.80196   0.81691   0.82931
 Alpha virt. eigenvalues --    0.86625   0.89131   0.90965   0.92106   0.93816
 Alpha virt. eigenvalues --    0.93952   0.95277   0.96977   0.99811   1.03983
 Alpha virt. eigenvalues --    1.04120   1.06456   1.10646   1.13038   1.15168
 Alpha virt. eigenvalues --    1.15857   1.18402   1.19005   1.21328   1.23015
 Alpha virt. eigenvalues --    1.24528   1.25968   1.26263   1.30182   1.30572
 Alpha virt. eigenvalues --    1.31994   1.33162   1.35686   1.40454   1.42015
 Alpha virt. eigenvalues --    1.42263   1.46283   1.46386   1.48225   1.51290
 Alpha virt. eigenvalues --    1.52734   1.56516   1.68528   1.70149   1.73602
 Alpha virt. eigenvalues --    1.81541   1.93180   2.01757   2.04317   2.09792
 Alpha virt. eigenvalues --    2.16094   2.19406   2.23896   2.28443   2.33945
 Alpha virt. eigenvalues --    2.36185   2.38996   2.42660   2.46491   2.49062
 Alpha virt. eigenvalues --    2.51327   2.53494   2.56672   2.57584   2.62238
 Alpha virt. eigenvalues --    2.63229   2.70342   2.72635   2.73504   2.77424
 Alpha virt. eigenvalues --    2.77880   2.78516   2.78854   2.81806   2.85211
 Alpha virt. eigenvalues --    2.86767   2.87620   2.91503   2.92860   2.94192
 Alpha virt. eigenvalues --    2.96923   2.98205   2.98823   2.99861   3.03429
 Alpha virt. eigenvalues --    3.04350   3.07018   3.09365   3.10126   3.11285
 Alpha virt. eigenvalues --    3.12031   3.15023   3.17822   3.19823   3.22744
 Alpha virt. eigenvalues --    3.26829   3.27097   3.28014   3.30383   3.34899
 Alpha virt. eigenvalues --    3.35405   3.36220   3.38551   3.38778   3.41221
 Alpha virt. eigenvalues --    3.41648   3.47033   3.48102   3.49135   3.52826
 Alpha virt. eigenvalues --    3.54003   3.57508   3.59564   3.62272   3.67342
 Alpha virt. eigenvalues --    3.67965   3.72241   3.72864   3.74952   3.80969
 Alpha virt. eigenvalues --    3.81824   3.82696   3.84215   3.86597   3.87508
 Alpha virt. eigenvalues --    3.91050   3.91398   3.95550   3.95972   3.96529
 Alpha virt. eigenvalues --    3.98629   4.01889   4.02379   4.05809   4.07546
 Alpha virt. eigenvalues --    4.10156   4.11059   4.12252   4.13599   4.17302
 Alpha virt. eigenvalues --    4.19439   4.23666   4.25413   4.28455   4.31629
 Alpha virt. eigenvalues --    4.32222   4.33162   4.39046   4.40183   4.45047
 Alpha virt. eigenvalues --    4.58925   4.62238   4.70290   4.73470   4.74387
 Alpha virt. eigenvalues --    4.76061   4.77834   4.82778   4.86011   4.87069
 Alpha virt. eigenvalues --    4.90444   5.00868   5.03113   5.03667   5.07581
 Alpha virt. eigenvalues --    5.07702   5.09849   5.12210   5.12370   5.14503
 Alpha virt. eigenvalues --    5.17419   5.21622   5.25390   5.28543   5.28964
 Alpha virt. eigenvalues --    5.30627   5.30830   5.46762   5.48030   5.49756
 Alpha virt. eigenvalues --    5.61004   5.64252   5.79531   5.80336   5.82680
 Alpha virt. eigenvalues --    5.84535   5.88354   5.93076   5.96490   6.00009
 Alpha virt. eigenvalues --    6.08155   6.40326   6.71422   6.88280   6.94255
 Alpha virt. eigenvalues --    7.01646   7.26473   9.74446  11.22031  12.63908
 Alpha virt. eigenvalues --   13.11707  13.39858
          Condensed to atoms (all electrons):
               1          2          3          4          5          6
     1  C    4.876667   0.366305  -0.034705  -0.067307   0.389434   0.373735
     2  C    0.366305   4.718191   0.326289   0.366305  -0.029698  -0.037913
     3  C   -0.034705   0.326289   4.800942  -0.034705  -0.003616  -0.002769
     4  C   -0.067307   0.366305  -0.034705   4.876667   0.006397   0.004636
     5  H    0.389434  -0.029698  -0.003616   0.006397   0.589856  -0.023353
     6  H    0.373735  -0.037913  -0.002769   0.004636  -0.023353   0.630641
     7  H    0.396002  -0.036126   0.008429  -0.003421  -0.027677  -0.030943
     8  H    0.004636  -0.037913  -0.002769   0.373735  -0.000475  -0.001603
     9  H    0.006397  -0.029698  -0.003616   0.389434  -0.000486  -0.000475
    10  H   -0.003421  -0.036126   0.008429   0.396001  -0.000105   0.000349
    11  O   -0.039665   0.245337   0.212508  -0.039665   0.007447   0.005824
    12  H    0.000450  -0.031554   0.409817   0.005237   0.000529   0.000817
    13  H    0.005236  -0.031553   0.409817   0.000450  -0.001596  -0.001385
               7          8          9         10         11         12
     1  C    0.396002   0.004636   0.006397  -0.003421  -0.039665   0.000450
     2  C   -0.036126  -0.037913  -0.029698  -0.036126   0.245337  -0.031554
     3  C    0.008429  -0.002769  -0.003616   0.008429   0.212508   0.409817
     4  C   -0.003421   0.373735   0.389434   0.396001  -0.039665   0.005237
     5  H   -0.027677  -0.000475  -0.000486  -0.000105   0.007447   0.000529
     6  H   -0.030943  -0.001603  -0.000475   0.000349   0.005824   0.000817
     7  H    0.602557   0.000349  -0.000105   0.004286  -0.003862  -0.000435
     8  H    0.000349   0.630640  -0.023353  -0.030943   0.005824  -0.001385
     9  H   -0.000105  -0.023353   0.589856  -0.027676   0.007447  -0.001596
    10  H    0.004286  -0.030943  -0.027676   0.602557  -0.003862   0.000207
    11  O   -0.003862   0.005824   0.007447  -0.003862   7.995027  -0.036920
    12  H   -0.000435  -0.001385  -0.001596   0.000207  -0.036920   0.610107
    13  H    0.000207   0.000817   0.000529  -0.000435  -0.036920  -0.044728
              13
     1  C    0.005236
     2  C   -0.031553
     3  C    0.409817
     4  C    0.000450
     5  H   -0.001596
     6  H   -0.001385
     7  H    0.000207
     8  H    0.000817
     9  H    0.000529
    10  H   -0.000435
    11  O   -0.036920
    12  H   -0.044728
    13  H    0.610107
 Mulliken charges:
               1
     1  C   -0.273764
     2  C    0.248156
     3  C   -0.094053
     4  C   -0.273764
     5  H    0.093341
     6  H    0.082439
     7  H    0.090738
     8  H    0.082439
     9  H    0.093341
    10  H    0.090738
    11  O   -0.318520
    12  H    0.089454
    13  H    0.089454
 Sum of Mulliken charges =  -0.00000
 Mulliken charges with hydrogens summed into heavy atoms:
               1
     1  C   -0.007246
     2  C    0.248156
     3  C    0.084856
     4  C   -0.007246
    11  O   -0.318520
 APT charges:
               1
     1  C   -0.970380
     2  C    0.043823
     3  C   -0.612536
     4  C   -0.970380
     5  H    0.333220
     6  H    0.314001
     7  H    0.333803
     8  H    0.314001
     9  H    0.333220
    10  H    0.333803
    11  O   -0.152318
    12  H    0.349871
    13  H    0.349871
 Sum of APT charges =  -0.00000
 APT charges with hydrogens summed into heavy atoms:
               1
     1  C    0.010644
     2  C    0.043823
     3  C    0.087207
     4  C    0.010644
    11  O   -0.152318
 Electronic spatial extent (au):  <R**2>=            407.6105
 Charge=             -0.0000 electrons
 Dipole moment (field-independent basis, Debye):
    X=             -0.7711    Y=              0.0000    Z=             -1.4473  Tot=              1.6399
 Quadrupole moment (field-independent basis, Debye-Ang):
   XX=            -31.5093   YY=            -30.5701   ZZ=            -33.8367
   XY=              0.0000   XZ=             -2.3584   YZ=              0.0000
 Traceless Quadrupole moment (field-independent basis, Debye-Ang):
   XX=              0.4627   YY=              1.4019   ZZ=             -1.8647
   XY=              0.0000   XZ=             -2.3584   YZ=              0.0000
 Octapole moment (field-independent basis, Debye-Ang**2):
  XXX=              6.0416  YYY=             -0.0000  ZZZ=              2.6241  XYY=              4.0670
  XXY=             -0.0000  XXZ=             -1.3442  XZZ=             -2.0617  YZZ=              0.0000
  YYZ=              0.6710  XYZ=              0.0000
 Hexadecapole moment (field-independent basis, Debye-Ang**3):
 XXXX=           -235.8655 YYYY=           -228.1395 ZZZZ=            -89.1132 XXXY=             -0.0000
 XXXZ=             -0.8137 YYYX=             -0.0000 YYYZ=              0.0000 ZZZX=              2.1794
 ZZZY=             -0.0000 XXYY=            -76.8091 XXZZ=            -52.6239 YYZZ=            -54.0946
 XXYZ=              0.0000 YYXZ=             -0.7539 ZZXY=              0.0000
 N-N= 1.856300045619D+02 E-N=-9.124785029718D+02  KE= 2.307522191217D+02
  Exact polarizability:       0.000       0.000       0.000       0.000       0.000       0.000
 Approx polarizability:      75.849       0.000      67.707      -3.203      -0.000      69.707
 No NMR shielding tensors so no spin-rotation constants.
 Leave Link  601 at Thu Apr  7 20:12:02 2022, MaxMem=  1073741824 cpu:               1.3 elap:               0.2
 (Enter /home/saurabh/gaussian/g16/l701.exe)
 ... and contract with generalized density number  0.
 Compute integral second derivatives.
 Leave Link  701 at Thu Apr  7 20:12:02 2022, MaxMem=  1073741824 cpu:               1.7 elap:               0.2
 (Enter /home/saurabh/gaussian/g16/l702.exe)
 L702 exits ... SP integral derivatives will be done elsewhere.
 Leave Link  702 at Thu Apr  7 20:12:02 2022, MaxMem=  1073741824 cpu:               0.1 elap:               0.0
 (Enter /home/saurabh/gaussian/g16/l703.exe)
 Integral derivatives from FoFJK, PRISM(SPDF).
 Compute integral second derivatives, UseDBF=F ICtDFT=           0.
 Calling FoFJK, ICntrl=    100127 FMM=F ISym2X=0 I1Cent= 0 IOpClX= 0 NMat=1 NMatS=1 NMatT=0.
 FoFJK:  IHMeth= 1 ICntrl=  100127 DoSepK=F KAlg= 0 I1Cent=           0 FoldK=F
 IRaf=         0 NMat=       1 IRICut=       1 DoRegI=T DoRafI=F ISym2E= 0 IDoP0=0 IntGTp=1.
 FoFCou: FMM=F IPFlag=           0 FMFlag=      100000 FMFlg1=         800
         NFxFlg=           0 DoJE=F BraDBF=F KetDBF=F FulRan=T
         wScrn=  0.000000 ICntrl=    100127 IOpCl=  0 I1Cent=           0 NGrid=           0
         NMat0=    1 NMatS0=      1 NMatT0=    0 NMatD0=    1 NMtDS0=    0 NMtDT0=    0
 Symmetry not used in FoFCou.
 Leave Link  703 at Thu Apr  7 20:13:30 2022, MaxMem=  1073741824 cpu:             703.9 elap:              88.0
 (Enter /home/saurabh/gaussian/g16/l716.exe)
 Dipole        =-3.03380134D-01 1.65330022D-07-5.69429626D-01
 Polarizability= 0.00000000D+00 0.00000000D+00 0.00000000D+00
                 0.00000000D+00 0.00000000D+00 0.00000000D+00
 ***** Axes restored to original set *****
 -------------------------------------------------------------------
 Center     Atomic                   Forces (Hartrees/Bohr)
 Number     Number              X              Y              Z
 -------------------------------------------------------------------
      1        6          -0.003363006   -0.001914330    0.007681936
      2        6           0.001535623    0.003749958    0.010833502
      3        6           0.011909240   -0.000845211   -0.021754188
      4        6          -0.005167871    0.002133677    0.006536621
      5        1          -0.000361050   -0.012531756    0.007948675
      6        1          -0.002566677   -0.002486134   -0.010911986
      7        1           0.009004633    0.006070151    0.003585393
      8        1          -0.001349465   -0.005216278   -0.010139512
      9        1          -0.010555331    0.010332119    0.001479580
     10        1           0.009730407    0.004442419    0.004045886
     11        8          -0.009703555   -0.011905734   -0.026787207
     12        1          -0.006663744    0.020025781    0.009230487
     13        1           0.007550797   -0.011854662    0.018250814
 -------------------------------------------------------------------
 Cartesian Forces:  Max     0.026787207 RMS     0.009972078
 Force constants in Cartesian coordinates: 
                1             2             3             4             5 
      1  0.478932D+00
      2  0.415410D-01  0.493759D+00
      3 -0.564040D-03 -0.126332D-01  0.529637D+00
      4 -0.132569D+00  0.495433D-01 -0.486936D-02  0.531202D+00
      5  0.503275D-01 -0.127066D+00  0.726587D-02 -0.185019D-01  0.456889D+00
      6  0.282427D-02  0.284158D-02 -0.708158D-01 -0.136419D+00 -0.741882D-01
      7 -0.247807D-01 -0.975336D-02 -0.580061D-02 -0.223606D+00 -0.472851D-01
      8  0.194196D-01  0.923621D-02  0.437292D-02 -0.597738D-01 -0.696461D-01
      9  0.529185D-02 -0.226622D-02 -0.419320D-02  0.489548D-01  0.350477D-01
     10  0.288245D-02  0.193176D-01 -0.127547D-01 -0.806137D-01  0.193719D-03
     11 -0.117408D-02 -0.168710D-01  0.990384D-02 -0.165173D-02 -0.161150D+00
     12 -0.224728D-02 -0.658635D-03  0.593425D-02  0.581674D-03  0.371719D-01
     13 -0.569234D-01 -0.298926D-01  0.237803D-01  0.255274D-02  0.189445D-01
     14 -0.270766D-01 -0.185479D+00  0.104147D+00 -0.470363D-02 -0.176279D-01
     15  0.213137D-01  0.106763D+00 -0.131285D+00  0.161668D-04 -0.322114D-02
     16 -0.498996D-01  0.343495D-02  0.780853D-02  0.608573D-04  0.509425D-02
     17  0.358162D-02 -0.742062D-01 -0.654021D-01 -0.182625D-02 -0.542823D-02
     18  0.921902D-02 -0.666665D-01 -0.248990D+00  0.809273D-04 -0.334704D-03
     19 -0.215675D+00 -0.837532D-01 -0.474623D-01 -0.254079D-01 -0.106935D-01
     20 -0.844629D-01 -0.931572D-01 -0.234574D-01  0.207866D-01  0.974127D-02
     21 -0.477258D-01 -0.230534D-01 -0.635821D-01  0.283379D-02  0.149314D-02
     22 -0.336582D-04 -0.556450D-04 -0.329439D-04 -0.153876D-02  0.444708D-03
     23  0.175435D-03  0.446413D-03 -0.791709D-03  0.900416D-04  0.874852D-02
     24  0.835185D-04 -0.389037D-03  0.900832D-04  0.313079D-03 -0.608268D-02
     25  0.798931D-03 -0.569266D-03  0.203287D-04  0.191850D-03 -0.244998D-02
     26 -0.231674D-02 -0.309431D-02  0.355159D-02  0.218842D-01 -0.174004D-01
     27  0.810378D-03  0.235786D-02 -0.186061D-02 -0.134847D-01  0.101220D-01
     28  0.571192D-03  0.274523D-03  0.256161D-03 -0.309134D-02 -0.195156D-02
     29 -0.925618D-03  0.115338D-02 -0.564904D-03 -0.265622D-01 -0.159272D-01
     30  0.309868D-03 -0.707459D-03  0.142587D-03  0.161540D-01  0.892795D-02
     31 -0.360387D-02  0.128371D-01  0.394368D-01 -0.567762D-01  0.151804D-01
     32  0.440235D-03 -0.467951D-02 -0.267206D-01  0.264801D-01 -0.616270D-01
     33  0.910824D-02 -0.829292D-02 -0.164666D-01  0.816991D-01 -0.144002D-01
     34 -0.759740D-03 -0.187621D-02 -0.842269D-03 -0.983919D-02  0.882257D-02
     35  0.175466D-03 -0.223506D-03  0.174751D-03 -0.612241D-02  0.619866D-03
     36  0.293319D-02  0.297511D-02  0.129982D-02  0.104206D-01 -0.176798D-01
     37  0.106005D-02 -0.104822D-02  0.102415D-02 -0.564822D-03 -0.181256D-01
     38  0.295022D-03  0.181098D-03  0.153678D-03  0.357643D-03 -0.125698D-03
     39 -0.135685D-02 -0.269885D-03  0.894163D-04 -0.628132D-02  0.158781D-01
                6             7             8             9            10 
      6  0.438900D+00
      7  0.930938D-01  0.587978D+00
      8  0.547280D-01 -0.121209D-02  0.563502D+00
      9 -0.117553D-01  0.173979D-02 -0.981055D-01  0.242325D+00
     10  0.218203D-02 -0.301561D-02 -0.252624D-01  0.154059D-01  0.531666D+00
     11  0.457401D-01 -0.334029D-02 -0.144164D-01  0.100967D-01 -0.115982D-01
     12 -0.886866D-01  0.871538D-03 -0.796868D-02 -0.230569D-02 -0.419009D-02
     13 -0.156291D-01  0.693872D-03  0.125082D-02 -0.150803D-02 -0.351022D-02
     14  0.133833D-01 -0.535274D-03  0.694455D-03  0.111780D-02  0.375339D-02
     15 -0.427347D-03  0.426506D-03  0.714920D-04  0.364499D-03  0.247186D-03
     16  0.235870D-01  0.187821D-02 -0.967173D-03  0.314235D-03  0.417709D-03
     17 -0.205704D-01 -0.263379D-03  0.491112D-03  0.322852D-04 -0.472918D-03
     18 -0.402923D-02  0.470498D-03 -0.403840D-03 -0.588370D-03  0.687795D-04
     19 -0.570732D-02 -0.218691D-02  0.389814D-02 -0.227466D-02  0.622801D-03
     20  0.580745D-02  0.333316D-02 -0.276981D-02  0.544480D-03  0.797704D-04
     21  0.306654D-04  0.201192D-02 -0.273085D-03  0.137204D-03 -0.251868D-03
     22  0.252012D-02  0.460920D-03  0.100464D-02  0.174064D-05 -0.502421D-01
     23  0.256177D-01  0.372056D-03  0.177289D-02 -0.880810D-03  0.110728D-02
     24 -0.166064D-01  0.971741D-04 -0.332455D-03 -0.452820D-03 -0.161472D-02
     25 -0.264682D-03  0.100858D-02 -0.883425D-03  0.295202D-03 -0.184843D+00
     26 -0.756392D-02  0.132862D-02 -0.282250D-03 -0.129579D-02  0.100783D+00
     27  0.170599D-02 -0.133833D-03  0.421772D-03  0.102648D-02  0.388320D-01
     28  0.416345D-03  0.109320D-02 -0.700535D-03 -0.787842D-03 -0.211673D+00
     29 -0.621140D-02  0.152918D-02 -0.490936D-02  0.733459D-03 -0.870997D-01
     30  0.338257D-02  0.809260D-03  0.417436D-02 -0.100335D-02 -0.453116D-01
     31  0.417625D-01 -0.965548D-01 -0.366872D-01 -0.634230D-01 -0.307619D-04
     32 -0.322067D-01 -0.494481D-01 -0.892800D-01 -0.449305D-01 -0.563157D-03
     33 -0.243960D+00 -0.108524D+00 -0.650397D-01 -0.113373D+00  0.455612D-02
     34 -0.875672D-02 -0.184665D+00  0.106904D+00 -0.129944D-01  0.294213D-03
     35 -0.208697D-02  0.114819D+00 -0.146569D+00  0.241378D-01 -0.814755D-03
     36  0.395095D-03 -0.185350D-02  0.213015D-01 -0.425378D-01 -0.825634D-03
     37  0.390490D-03 -0.583033D-01 -0.699036D-02  0.898436D-02 -0.195366D-02
     38 -0.529055D-02 -0.954469D-02 -0.247824D+00  0.757686D-01  0.576582D-03
     39 -0.813371D-02  0.167915D-01  0.870532D-01 -0.676440D-01  0.365656D-02
               11            12            13            14            15 
     11  0.466863D+00
     12  0.368305D-01  0.503800D+00
     13  0.211065D-02  0.140732D-02  0.604636D-01
     14 -0.104320D-02 -0.184011D-02  0.298880D-01  0.201818D+00
     15 -0.811373D-03  0.397439D-03 -0.250171D-01 -0.117358D+00  0.140092D+00
     16 -0.401742D-03 -0.379913D-03 -0.130949D-02  0.200312D-02  0.466485D-02
     17  0.406353D-03  0.217456D-03 -0.116967D-02  0.946856D-02  0.224937D-01
     18  0.667720D-04 -0.321203D-03  0.562981D-03 -0.609406D-02 -0.160823D-01
     19 -0.965751D-03  0.348313D-03 -0.377705D-02 -0.196807D-02 -0.857177D-03
     20  0.142053D-02 -0.601028D-04 -0.200694D-01 -0.996264D-02 -0.680575D-02
     21 -0.161200D-03 -0.176196D-03  0.170729D-01  0.736794D-02  0.503378D-02
     22  0.860919D-03 -0.159333D-02 -0.353497D-04 -0.219500D-04  0.847525D-04
     23 -0.611618D-01 -0.463754D-01 -0.247879D-03  0.199006D-03 -0.196755D-03
     24 -0.444916D-01 -0.261692D+00  0.808674D-04  0.132716D-03  0.265210D-03
     25  0.103822D+00  0.371531D-01  0.303928D-03  0.712535D-04  0.116534D-03
     26 -0.128674D+00 -0.267701D-01  0.132843D-02 -0.987027D-03  0.195203D-04
     27 -0.297368D-01 -0.601694D-01 -0.574627D-03  0.771870D-03  0.348413D-03
     28 -0.876837D-01 -0.451307D-01  0.113446D-03 -0.164603D-04  0.117011D-03
     29 -0.985582D-01 -0.246625D-01  0.199775D-03  0.378056D-03  0.133115D-03
     30 -0.252646D-01 -0.621824D-01  0.109862D-03 -0.136303D-03 -0.342140D-04
     31 -0.162347D-02  0.142943D-01  0.197909D-02 -0.194703D-02 -0.643748D-03
     32  0.120299D-01  0.341177D-01 -0.184131D-02  0.188471D-02 -0.792130D-03
     33 -0.217453D-02 -0.367491D-01 -0.486519D-03 -0.100857D-02  0.942993D-03
     34  0.149744D-02  0.217986D-03  0.263509D-04  0.560005D-04 -0.121088D-03
     35  0.813014D-03  0.167515D-03 -0.285543D-03  0.305364D-03 -0.230975D-03
     36 -0.935847D-03  0.223344D-03  0.322481D-04  0.356901D-04 -0.226160D-04
     37  0.148285D-03 -0.133293D-02 -0.577525D-03  0.497273D-03 -0.347574D-03
     38  0.341965D-03 -0.169470D-03 -0.215748D-03  0.351063D-03 -0.646840D-04
     39  0.938199D-03  0.192826D-02  0.168811D-03 -0.519766D-03  0.406470D-03
               16            17            18            19            20 
     16  0.520461D-01
     17 -0.640479D-02  0.768100D-01
     18 -0.120491D-01  0.759511D-01  0.273295D+00
     19  0.285252D-02  0.140644D-02  0.112452D-03  0.240360D+00
     20 -0.817857D-02 -0.506437D-02 -0.160417D-02  0.908936D-01  0.983146D-01
     21 -0.260865D-01 -0.121364D-01 -0.616507D-02  0.532225D-01  0.260635D-01
     22  0.129386D-03  0.255084D-03 -0.292873D-04  0.511327D-04 -0.110755D-04
     23  0.400855D-03 -0.487619D-03  0.141502D-04  0.152671D-04 -0.889710D-04
     24 -0.301341D-03  0.531800D-03  0.514202D-03  0.235677D-04 -0.144173D-04
     25 -0.530632D-04  0.000000D+00  0.980527D-04  0.294034D-03 -0.186632D-03
     26 -0.261611D-03  0.271200D-03 -0.831193D-04  0.588508D-04  0.167389D-03
     27 -0.295240D-04  0.191197D-03  0.210731D-03  0.242538D-03 -0.136606D-03
     28  0.213490D-05  0.667179D-04 -0.209691D-04  0.439291D-03 -0.294913D-03
     29  0.208578D-04 -0.295331D-04  0.359995D-04  0.912711D-03 -0.186467D-03
     30 -0.127811D-03 -0.612607D-04 -0.336101D-04 -0.251047D-03 -0.699348D-04
     31 -0.592964D-02  0.438391D-02  0.128605D-02  0.265759D-02 -0.276287D-02
     32  0.538747D-02 -0.238910D-02 -0.102456D-02  0.293300D-03  0.103391D-02
     33  0.261814D-02 -0.137085D-02  0.232023D-02  0.146791D-02  0.854152D-03
     34  0.000000D+00  0.182926D-03  0.158137D-03 -0.436094D-03  0.647955D-03
     35 -0.145049D-04  0.529473D-04  0.126761D-03 -0.903024D-05  0.393965D-03
     36 -0.121144D-03  0.502271D-04 -0.309301D-04  0.139643D-02 -0.917863D-03
     37 -0.195687D-03  0.261003D-03  0.424637D-04  0.204914D-03  0.225231D-03
     38 -0.113107D-03  0.104899D-03  0.161639D-04 -0.887808D-04  0.157751D-03
     39  0.102554D-03  0.732425D-04 -0.992704D-04 -0.261197D-03 -0.203345D-03
               21            22            23            24            25 
     21  0.633721D-01
     22 -0.124793D-03  0.489226D-01
     23 -0.309408D-04  0.190351D-03  0.629396D-01
     24 -0.231619D-04  0.350818D-03  0.478826D-01  0.290289D+00
     25  0.146328D-03  0.789695D-03 -0.136779D-02  0.828519D-04  0.200107D+00
     26  0.867286D-04  0.331196D-02 -0.358151D-02 -0.119923D-02 -0.113068D+00
     27 -0.413570D-05  0.237339D-01 -0.174128D-01 -0.513141D-02 -0.425243D-01
     28 -0.378588D-04  0.819599D-03  0.115489D-02 -0.199044D-03 -0.193127D-01
     29  0.218273D-03 -0.413084D-02 -0.335337D-02 -0.123013D-02  0.153447D-01
     30  0.144580D-03 -0.265579D-01 -0.141318D-01 -0.584315D-02  0.606920D-02
     31 -0.946158D-03  0.606894D-03 -0.163304D-02  0.635991D-03  0.473948D-03
     32  0.731270D-03 -0.198984D-02 -0.522829D-02  0.505496D-02 -0.562740D-03
     33  0.127174D-02  0.158979D-02  0.642044D-02 -0.137711D-02 -0.100830D-02
     34  0.134230D-03 -0.673619D-05 -0.271049D-03  0.204308D-03  0.152255D-03
     35 -0.204924D-03  0.940750D-04 -0.116944D-03  0.535828D-04 -0.193688D-03
     36 -0.207512D-03  0.112450D-03 -0.176571D-04 -0.663814D-04 -0.240686D-03
     37 -0.248744D-03  0.763367D-04  0.135846D-04  0.242929D-03  0.887525D-04
     38 -0.100872D-03  0.476179D-04 -0.879366D-04  0.839131D-04  0.445589D-04
     39  0.168128D-03 -0.552882D-04 -0.970418D-04  0.341413D-04  0.564273D-04
               26            27            28            29            30 
     26  0.140627D+00
     27  0.299379D-01  0.616395D-01
     28 -0.112206D-01 -0.591512D-02  0.230113D+00
     29  0.950944D-02  0.490048D-02  0.100027D+00  0.108895D+00
     30  0.406485D-02  0.109731D-02  0.497078D-01  0.251544D-01  0.630387D-01
     31 -0.497114D-03 -0.992829D-03  0.338493D-03  0.180582D-02 -0.128632D-02
     32  0.333639D-02 -0.134005D-02  0.224739D-03  0.260636D-02 -0.184993D-02
     33 -0.106041D-02  0.996481D-03  0.151299D-02  0.351666D-03  0.201834D-02
     34 -0.956147D-03  0.100952D-03  0.357294D-03 -0.202592D-03 -0.131207D-03
     35 -0.109610D-03 -0.179938D-04  0.463802D-04  0.476282D-04 -0.618388D-04
     36  0.514999D-03  0.137360D-03 -0.348628D-03 -0.618617D-04  0.125868D-03
     37 -0.374686D-03 -0.648514D-04  0.229767D-03 -0.919035D-03  0.505874D-03
     38  0.217056D-03 -0.588138D-04  0.735506D-04  0.373816D-03 -0.383750D-04
     39 -0.203035D-03  0.328737D-05  0.429785D-03  0.120342D-02 -0.853222D-03
               31            32            33            34            35 
     31  0.190979D+00
     32  0.448706D-01  0.149001D+00
     33  0.188742D-01  0.942729D-01  0.405767D+00
     34 -0.240445D-01 -0.212010D-02 -0.983761D-02  0.212541D+00
     35 -0.170600D-01  0.105910D-01 -0.499228D-02 -0.109408D+00  0.142001D+00
     36 -0.357599D-01  0.871850D-02 -0.765588D-02  0.296051D-01 -0.180562D-01
     37 -0.100956D-01 -0.211711D-01 -0.157003D-02  0.637969D-02  0.187724D-01
     38 -0.168670D-01 -0.172793D-01 -0.355974D-02 -0.327692D-02 -0.780584D-02
     39 -0.132379D-01 -0.340309D-01  0.626555D-02  0.226254D-02  0.990803D-03
               36            37            38            39 
     36  0.489344D-01
     37 -0.535048D-02  0.636511D-01
     38  0.407319D-02  0.287113D-01  0.271395D+00
     39 -0.594854D-03 -0.227566D-02 -0.708130D-01  0.684298D-01
 FormGI is forming the generalized inverse of G from B-inverse, IUseBI=4.
 Leave Link  716 at Thu Apr  7 20:13:30 2022, MaxMem=  1073741824 cpu:               0.2 elap:               0.0
 (Enter /home/saurabh/gaussian/g16/l103.exe)

 GradGradGradGradGradGradGradGradGradGradGradGradGradGradGradGradGradGrad
 Berny optimization.
 Red2BG is reusing G-inverse.
 Internal  Forces:  Max     0.018649981 RMS     0.007467140
 Search for a local minimum.
 Step number   1 out of a maximum of  100
 All quantities printed in internal units (Hartrees-Bohrs-Radians)
 RMS Force = .74671D-02 SwitMx=.10000D-02 MixMth= 1
 Mixed Optimization -- RFO/linear search
 Second derivative matrix not updated -- analytic derivatives used.
 ITU=  0
     Eigenvalues ---    0.00149   0.00192   0.01807   0.03060   0.03976
     Eigenvalues ---    0.04305   0.04412   0.04425   0.04509   0.09074
     Eigenvalues ---    0.09777   0.10506   0.11934   0.12273   0.12690
     Eigenvalues ---    0.13291   0.14281   0.14944   0.15186   0.22192
     Eigenvalues ---    0.24636   0.26682   0.27350   0.29267   0.29572
     Eigenvalues ---    0.29787   0.29803   0.29852   0.29932   0.30669
     Eigenvalues ---    0.30706   0.32240   0.34300
 RFO step:  Lambda=-1.65021759D-02 EMin= 1.48626001D-03
 Linear search not attempted -- first point.
 Iteration  1 RMS(Cart)=  0.04898653 RMS(Int)=  0.00435848
 Iteration  2 RMS(Cart)=  0.00338818 RMS(Int)=  0.00288084
 Iteration  3 RMS(Cart)=  0.00001204 RMS(Int)=  0.00288082
 Iteration  4 RMS(Cart)=  0.00000003 RMS(Int)=  0.00288082
 ITry= 1 IFail=0 DXMaxC= 1.28D-01 DCOld= 1.00D+10 DXMaxT= 3.00D-01 DXLimC= 3.00D+00 Rises=F
 Variable       Old X    -DE/DX   Delta X   Delta X   Delta X     New X
                                 (Linear)    (Quad)   (Total)
    R1        2.88494  -0.00860   0.00000  -0.03229  -0.03229   2.85265
    R2        2.10015  -0.01467   0.00000  -0.04322  -0.04322   2.05693
    R3        2.09749  -0.01099   0.00000  -0.03421  -0.03421   2.06328
    R4        2.09776  -0.01130   0.00000  -0.03456  -0.03456   2.06320
    R5        2.79280   0.00229   0.00000  -0.01953  -0.01894   2.77386
    R6        2.88494  -0.00860   0.00000  -0.03229  -0.03229   2.85265
    R7        2.63476   0.01865   0.00000   0.06703   0.06617   2.70093
    R8        2.69796   0.01516   0.00000   0.01714   0.01740   2.71536
    R9        2.09803  -0.01621   0.00000  -0.05068  -0.05068   2.04735
   R10        2.09803  -0.01621   0.00000  -0.05068  -0.05068   2.04735
   R11        2.09749  -0.01099   0.00000  -0.03421  -0.03421   2.06328
   R12        2.10015  -0.01467   0.00000  -0.04322  -0.04322   2.05693
   R13        2.09776  -0.01130   0.00000  -0.03456  -0.03456   2.06320
    A1        1.94827  -0.00455   0.00000  -0.01597  -0.01590   1.93237
    A2        1.91014   0.00498   0.00000   0.02285   0.02281   1.93294
    A3        1.91154   0.00219   0.00000   0.01360   0.01353   1.92507
    A4        1.89841  -0.00014   0.00000  -0.00121  -0.00112   1.89729
    A5        1.89331   0.00048   0.00000  -0.00298  -0.00292   1.89038
    A6        1.90156  -0.00304   0.00000  -0.01689  -0.01707   1.88449
    A7        2.05755   0.00413   0.00000   0.02790   0.02795   2.08551
    A8        2.08476  -0.00949   0.00000  -0.05805  -0.05804   2.02672
    A9        1.98157   0.00303   0.00000   0.01951   0.01938   2.00095
   A10        2.05755   0.00413   0.00000   0.02790   0.02795   2.08551
   A11        1.98157   0.00303   0.00000   0.01951   0.01938   2.00095
   A12        2.08465   0.00320   0.00000   0.01412   0.00263   2.08728
   A13        2.08466   0.00320   0.00000   0.01412   0.00262   2.08728
   A14        1.86635   0.00764   0.00000   0.10840   0.10531   1.97166
   A15        1.86635   0.00764   0.00000   0.10840   0.10531   1.97166
   A16        2.11167  -0.00768   0.00000  -0.04669  -0.06030   2.05137
   A17        1.91014   0.00498   0.00000   0.02285   0.02281   1.93294
   A18        1.94827  -0.00455   0.00000  -0.01597  -0.01590   1.93237
   A19        1.91154   0.00219   0.00000   0.01360   0.01353   1.92507
   A20        1.89841  -0.00014   0.00000  -0.00121  -0.00112   1.89729
   A21        1.90156  -0.00304   0.00000  -0.01689  -0.01707   1.88449
   A22        1.89331   0.00048   0.00000  -0.00298  -0.00292   1.89038
    D1        0.48647   0.00256   0.00000   0.00360   0.00368   0.49015
    D2       -3.09090   0.00059   0.00000   0.00538   0.00534  -3.08556
    D3       -0.67796  -0.00235   0.00000  -0.00959  -0.00966  -0.68762
    D4       -1.61607   0.00233   0.00000   0.00012   0.00029  -1.61579
    D5        1.08974   0.00037   0.00000   0.00190   0.00195   1.09169
    D6       -2.78050  -0.00257   0.00000  -0.01307  -0.01305  -2.79355
    D7        2.58356   0.00170   0.00000  -0.00133  -0.00130   2.58227
    D8       -0.99381  -0.00026   0.00000   0.00046   0.00036  -0.99345
    D9        1.41913  -0.00320   0.00000  -0.01451  -0.01464   1.40450
   D10        2.89183  -0.01307   0.00000  -0.15836  -0.15745   2.73438
   D11       -0.17915   0.00770   0.00000   0.13837   0.13759  -0.04157
   D12        0.17915  -0.00770   0.00000  -0.13837  -0.13759   0.04157
   D13       -2.89183   0.01307   0.00000   0.15836   0.15745  -2.73438
   D14       -1.08975  -0.00037   0.00000  -0.00190  -0.00195  -1.09169
   D15        3.09090  -0.00059   0.00000  -0.00538  -0.00534   3.08556
   D16        0.99380   0.00026   0.00000  -0.00046  -0.00036   0.99344
   D17        1.61607  -0.00233   0.00000  -0.00012  -0.00029   1.61578
   D18       -0.48647  -0.00256   0.00000  -0.00360  -0.00368  -0.49016
   D19       -2.58357  -0.00170   0.00000   0.00133   0.00130  -2.58227
   D20        2.78050   0.00257   0.00000   0.01307   0.01305   2.79355
   D21        0.67795   0.00235   0.00000   0.00959   0.00966   0.68761
   D22       -1.41914   0.00320   0.00000   0.01451   0.01464  -1.40450
         Item               Value     Threshold  Converged?
 Maximum Force            0.018650     0.000450     NO 
 RMS     Force            0.007467     0.000300     NO 
 Maximum Displacement     0.128273     0.001800     NO 
 RMS     Displacement     0.049544     0.001200     NO 
 Predicted change in Energy=-9.428890D-03
 Lowest energy point so far.  Saving SCF results.
 GradGradGradGradGradGradGradGradGradGradGradGradGradGradGradGradGradGrad

 Leave Link  103 at Thu Apr  7 20:13:30 2022, MaxMem=  1073741824 cpu:               0.1 elap:               0.0
 (Enter /home/saurabh/gaussian/g16/l202.exe)
                          Input orientation:                          
 ---------------------------------------------------------------------
 Center     Atomic      Atomic             Coordinates (Angstroms)
 Number     Number       Type             X           Y           Z
 ---------------------------------------------------------------------
      1          6           0       -3.207867    2.014849   -0.003763
      2          6           0       -2.085229    1.019539   -0.170527
      3          6           0       -0.762079    1.487968   -0.600029
      4          6           0       -2.197711   -0.250733    0.637265
      5          1           0       -3.067461    2.867995   -0.664985
      6          1           0       -3.256396    2.374239    1.026092
      7          1           0       -4.165759    1.549040   -0.243524
      8          1           0       -2.183731   -0.031529    1.706784
      9          1           0       -1.375609   -0.926502    0.408633
     10          1           0       -3.135296   -0.762088    0.410396
     11          8           0       -1.650576    0.831771   -1.519095
     12          1           0        0.116085    0.897903   -0.366720
     13          1           0       -0.614420    2.536281   -0.830285
 ---------------------------------------------------------------------
                    Distance matrix (angstroms):
                    1          2          3          4          5
     1  C    0.000000
     2  C    1.509559   0.000000
     3  C    2.571967   1.467864   0.000000
     4  C    2.562068   1.509559   2.571967   0.000000
     5  H    1.088479   2.150828   2.687653   3.489811   0.000000
     6  H    1.091841   2.153774   3.106664   2.857005   1.771788
     7  H    1.091797   2.148093   3.422844   2.808591   1.767351
     8  H    2.857007   2.153774   3.106662   1.091841   3.848832
     9  H    3.489811   2.150828   2.687654   1.088479   4.291064
    10  H    2.808589   2.148093   3.422845   1.091797   3.786628
    11  O    2.474077   1.429271   1.436907   2.474077   2.623599
    12  H    3.525331   2.213384   1.083412   2.771461   3.755687
    13  H    2.771461   2.213384   1.083412   3.525331   2.480881
                    6          7          8          9         10
     6  H    0.000000
     7  H    1.766300   0.000000
     8  H    2.720601   3.198489   0.000000
     9  H    3.848831   3.786628   1.771788   0.000000
    10  H    3.198483   2.613576   1.766300   1.767351   0.000000
    11  O    3.381691   2.909931   3.381691   2.623598   2.909933
    12  H    3.936130   4.332821   3.233019   2.480882   3.732419
    13  H    3.233022   3.732418   3.936128   3.755688   4.332821
                   11         12         13
    11  O    0.000000
    12  H    2.110316   0.000000
    13  H    2.110316   1.852784   0.000000
 Stoichiometry    C4H8O
 Framework group  C1[X(C4H8O)]
 Deg. of freedom    33
 Full point group                 C1      NOp   1
 RotChk:  IX=0 Diff= 3.87D-02
 Largest Abelian subgroup         C1      NOp   1
 Largest concise Abelian subgroup C1      NOp   1
                         Standard orientation:                         
 ---------------------------------------------------------------------
 Center     Atomic      Atomic             Coordinates (Angstroms)
 Number     Number       Type             X           Y           Z
 ---------------------------------------------------------------------
      1          6           0       -0.928574   -1.281034   -0.049912
      2          6           0       -0.130000    0.000000   -0.050926
      3          6           0        1.235265    0.000000   -0.590069
      4          6           0       -0.928573    1.281034   -0.049912
      5          1           0       -0.269579   -2.145532    0.006268
      6          1           0       -1.533783   -1.360299   -0.955205
      7          1           0       -1.602143   -1.306789    0.808960
      8          1           0       -1.533779    1.360302   -0.955207
      9          1           0       -0.269579    2.145532    0.006273
     10          1           0       -1.602146    1.306787    0.808958
     11          8           0        0.997794   -0.000000    0.827079
     12          1           0        1.669976    0.926392   -0.945884
     13          1           0        1.669976   -0.926392   -0.945885
 ---------------------------------------------------------------------
 Rotational constants (GHZ):           6.5184741           5.5683524           3.9371995
 Leave Link  202 at Thu Apr  7 20:13:31 2022, MaxMem=  1073741824 cpu:               0.1 elap:               0.0
 (Enter /home/saurabh/gaussian/g16/l301.exe)
 Standard basis: CC-pVTZ (5D, 7F)
 Ernie: Thresh=  0.10000D-02 Tol=  0.10000D-05 Strict=F.
 Ernie:  15 primitive shells out of 194 were deleted.
 There are   295 symmetry adapted cartesian basis functions of A   symmetry.
 There are   262 symmetry adapted basis functions of A   symmetry.
   262 basis functions,   396 primitive gaussians,   295 cartesian basis functions
    20 alpha electrons       20 beta electrons
       nuclear repulsion energy       186.1323574646 Hartrees.
 IExCor=  402 DFT=T Ex+Corr=B3LYP ExCW=0 ScaHFX=  0.200000
 ScaDFX=  0.800000  0.720000  1.000000  0.810000 ScalE2=  1.000000  1.000000
 IRadAn=      5 IRanWt=     -1 IRanGd=            0 ICorTp=0 IEmpDi=  4
 NAtoms=   13 NActive=   13 NUniq=   13 SFac= 1.00D+00 NAtFMM=   60 NAOKFM=F Big=F
 Integral buffers will be    131072 words long.
 Raffenetti 2 integral format.
 Two-electron integral symmetry is turned on.
 Leave Link  301 at Thu Apr  7 20:13:31 2022, MaxMem=  1073741824 cpu:               0.4 elap:               0.1
 (Enter /home/saurabh/gaussian/g16/l302.exe)
 NPDir=0 NMtPBC=     1 NCelOv=     1 NCel=       1 NClECP=     1 NCelD=      1
         NCelK=      1 NCelE2=     1 NClLst=     1 CellRange=     0.0.
 One-electron integrals computed using PRISM.
 One-electron integral symmetry used in STVInt
 NBasis=   262 RedAO= T EigKep=  3.83D-04  NBF=   262
 NBsUse=   262 1.00D-06 EigRej= -1.00D+00 NBFU=   262
 Precomputing XC quadrature grid using
 IXCGrd= 4 IRadAn=           5 IRanWt=          -1 IRanGd=           0 AccXCQ= 0.00D+00.
 Generated NRdTot=       0 NPtTot=           0 NUsed=           0 NTot=          32
 NSgBfM=   295   295   295   295   295 MxSgAt=    13 MxSgA2=    13.
 Leave Link  302 at Thu Apr  7 20:13:31 2022, MaxMem=  1073741824 cpu:               1.4 elap:               0.2
 (Enter /home/saurabh/gaussian/g16/l303.exe)
 DipDrv:  MaxL=1.
 Leave Link  303 at Thu Apr  7 20:13:31 2022, MaxMem=  1073741824 cpu:               0.2 elap:               0.1
 (Enter /home/saurabh/gaussian/g16/l401.exe)
 Initial guess from the checkpoint file:  "Mol_04.chk"
 B after Tr=    -0.000000   -0.000000   -0.000000
         Rot=    0.999971   -0.000000   -0.007637   -0.000000 Ang=  -0.88 deg.
 Guess basis will be translated and rotated to current coordinates.
 JPrj=2 DoOrth=T DoCkMO=T.
 Generating alternative initial guess.
 ExpMin= 1.03D-01 ExpMax= 1.53D+04 ExpMxC= 5.22D+02 IAcc=3 IRadAn=         5 AccDes= 0.00D+00
 Harris functional with IExCor=  402 and IRadAn=       5 diagonalized for initial guess.
 HarFok:  IExCor=  402 AccDes= 0.00D+00 IRadAn=         5 IDoV= 1 UseB2=F ITyADJ=14
 ICtDFT=  3500011 ScaDFX=  1.000000  1.000000  1.000000  1.000000
 FoFCou: FMM=F IPFlag=           0 FMFlag=      100000 FMFlg1=           0
         NFxFlg=           0 DoJE=T BraDBF=F KetDBF=T FulRan=T
         wScrn=  0.000000 ICntrl=       500 IOpCl=  0 I1Cent=   200000004 NGrid=           0
         NMat0=    1 NMatS0=      1 NMatT0=    0 NMatD0=    1 NMtDS0=    0 NMtDT0=    0
 Petite list used in FoFCou.
 Harris En= -232.563879748875    
 Leave Link  401 at Thu Apr  7 20:13:32 2022, MaxMem=  1073741824 cpu:               6.1 elap:               0.8
 (Enter /home/saurabh/gaussian/g16/l502.exe)
 Integral symmetry usage will be decided dynamically.
 Closed shell SCF:
 Using DIIS extrapolation, IDIIS=  1040.
 NGot=  1073741824 LenX=  1073562416 LenY=  1073474950
 Requested convergence on RMS density matrix=1.00D-08 within1000 cycles.
 Requested convergence on MAX density matrix=1.00D-06.
 Requested convergence on             energy=1.00D-06.
 No special actions if energy rises.
 Fock matrices will be formed incrementally for  20 cycles.
 Integral accuracy reduced to 1.0D-05 until final iterations.

 Cycle   1  Pass 0  IDiag  1:
 FoFJK:  IHMeth= 1 ICntrl=       0 DoSepK=F KAlg= 0 I1Cent=           0 FoldK=F
 IRaf= 990000000 NMat=       1 IRICut=       1 DoRegI=T DoRafI=F ISym2E= 0 IDoP0=0 IntGTp=1.
 FoFCou: FMM=F IPFlag=           0 FMFlag=      100000 FMFlg1=           0
         NFxFlg=           0 DoJE=F BraDBF=F KetDBF=F FulRan=T
         wScrn=  0.000000 ICntrl=         0 IOpCl=  0 I1Cent=           0 NGrid=           0
         NMat0=    1 NMatS0=      1 NMatT0=    0 NMatD0=    1 NMtDS0=    0 NMtDT0=    0
 Symmetry not used in FoFCou.
 E= -232.514991427847    
 DIIS: error= 3.71D-03 at cycle   1 NSaved=   1.
 NSaved= 1 IEnMin= 1 EnMin= -232.514991427847     IErMin= 1 ErrMin= 3.71D-03
 ErrMax= 3.71D-03  0.00D+00 EMaxC= 1.00D-01 BMatC= 4.18D-03 BMatP= 4.18D-03
 IDIUse=3 WtCom= 9.63D-01 WtEn= 3.71D-02
 Coeff-Com:  0.100D+01
 Coeff-En:   0.100D+01
 Coeff:      0.100D+01
 Gap=     0.777 Goal=   None    Shift=    0.000
 GapD=    0.777 DampG=2.000 DampE=1.000 DampFc=2.0000 IDamp=-1.
 RMSDP=3.54D-04 MaxDP=1.58D-02              OVMax= 1.75D-02

 Cycle   2  Pass 0  IDiag  1:
 RMSU=  3.54D-04    CP:  1.00D+00
 E= -232.518411561995     Delta-E=       -0.003420134148 Rises=F Damp=F
 DIIS: error= 1.15D-03 at cycle   2 NSaved=   2.
 NSaved= 2 IEnMin= 2 EnMin= -232.518411561995     IErMin= 2 ErrMin= 1.15D-03
 ErrMax= 1.15D-03  0.00D+00 EMaxC= 1.00D-01 BMatC= 1.93D-04 BMatP= 4.18D-03
 IDIUse=3 WtCom= 9.88D-01 WtEn= 1.15D-02
 Coeff-Com:  0.511D-01 0.949D+00
 Coeff-En:   0.000D+00 0.100D+01
 Coeff:      0.505D-01 0.949D+00
 Gap=     0.305 Goal=   None    Shift=    0.000
 RMSDP=7.04D-05 MaxDP=2.12D-03 DE=-3.42D-03 OVMax= 5.55D-03

 Cycle   3  Pass 0  IDiag  1:
 RMSU=  6.99D-05    CP:  1.00D+00  1.02D+00
 E= -232.518348448265     Delta-E=        0.000063113729 Rises=F Damp=F
 DIIS: error= 1.24D-03 at cycle   3 NSaved=   3.
 NSaved= 3 IEnMin= 2 EnMin= -232.518411561995     IErMin= 2 ErrMin= 1.15D-03
 ErrMax= 1.24D-03  0.00D+00 EMaxC= 1.00D-01 BMatC= 3.04D-04 BMatP= 1.93D-04
 IDIUse=3 WtCom= 2.21D-01 WtEn= 7.79D-01
 Coeff-Com: -0.117D-01 0.563D+00 0.449D+00
 Coeff-En:   0.000D+00 0.565D+00 0.435D+00
 Coeff:     -0.260D-02 0.565D+00 0.438D+00
 Gap=     0.303 Goal=   None    Shift=    0.000
 RMSDP=3.63D-05 MaxDP=1.12D-03 DE= 6.31D-05 OVMax= 3.66D-03

 Cycle   4  Pass 0  IDiag  1:
 RMSU=  1.81D-05    CP:  1.00D+00  1.05D+00  5.65D-01
 E= -232.518600392692     Delta-E=       -0.000251944427 Rises=F Damp=F
 DIIS: error= 1.87D-04 at cycle   4 NSaved=   4.
 NSaved= 4 IEnMin= 4 EnMin= -232.518600392692     IErMin= 4 ErrMin= 1.87D-04
 ErrMax= 1.87D-04  0.00D+00 EMaxC= 1.00D-01 BMatC= 1.46D-05 BMatP= 1.93D-04
 IDIUse=3 WtCom= 9.98D-01 WtEn= 1.87D-03
 Coeff-Com: -0.924D-02 0.286D+00 0.256D+00 0.468D+00
 Coeff-En:   0.000D+00 0.000D+00 0.000D+00 0.100D+01
 Coeff:     -0.922D-02 0.285D+00 0.255D+00 0.469D+00
 Gap=     0.304 Goal=   None    Shift=    0.000
 RMSDP=1.09D-05 MaxDP=3.41D-04 DE=-2.52D-04 OVMax= 9.64D-04

 Cycle   5  Pass 0  IDiag  1:
 RMSU=  6.29D-06    CP:  1.00D+00  1.05D+00  5.52D-01  5.11D-01
 E= -232.518610360066     Delta-E=       -0.000009967374 Rises=F Damp=F
 DIIS: error= 3.84D-05 at cycle   5 NSaved=   5.
 NSaved= 5 IEnMin= 5 EnMin= -232.518610360066     IErMin= 5 ErrMin= 3.84D-05
 ErrMax= 3.84D-05  0.00D+00 EMaxC= 1.00D-01 BMatC= 6.12D-07 BMatP= 1.46D-05
 IDIUse=1 WtCom= 1.00D+00 WtEn= 0.00D+00
 Coeff-Com: -0.212D-02 0.229D-01 0.269D-01 0.183D+00 0.769D+00
 Coeff:     -0.212D-02 0.229D-01 0.269D-01 0.183D+00 0.769D+00
 Gap=     0.304 Goal=   None    Shift=    0.000
 RMSDP=2.17D-06 MaxDP=6.77D-05 DE=-9.97D-06 OVMax= 1.77D-04

 Initial convergence to 1.0D-05 achieved.  Increase integral accuracy.
 Cycle   6  Pass 1  IDiag  1:
 E= -232.518609596592     Delta-E=        0.000000763474 Rises=F Damp=F
 DIIS: error= 2.54D-05 at cycle   1 NSaved=   1.
[...]
 ! R12   R(4,9)                  1.0889         -DE/DX =    0.0                 !
 ! R13   R(4,10)                 1.0918         -DE/DX =    0.0                 !
 ! A1    A(2,1,5)              110.7626         -DE/DX =    0.0                 !
 ! A2    A(2,1,6)              110.8325         -DE/DX =    0.0                 !
 ! A3    A(2,1,7)              110.3726         -DE/DX =    0.0                 !
 ! A4    A(5,1,6)              108.6708         -DE/DX =    0.0                 !
 ! A5    A(5,1,7)              108.2428         -DE/DX =    0.0                 !
 ! A6    A(6,1,7)              107.8657         -DE/DX =    0.0                 !
 ! A7    A(1,2,3)              119.7164         -DE/DX =    0.0                 !
 ! A8    A(1,2,4)              116.0162         -DE/DX =    0.0                 !
 ! A9    A(1,2,11)             114.5459         -DE/DX =    0.0                 !
 ! A10   A(3,2,4)              119.7164         -DE/DX =    0.0                 !
 ! A11   A(4,2,11)             114.5459         -DE/DX =    0.0                 !
 ! A12   A(2,3,12)             119.765          -DE/DX =    0.0                 !
 ! A13   A(2,3,13)             119.765          -DE/DX =    0.0                 !
 ! A14   A(11,3,12)            115.2307         -DE/DX =    0.0                 !
 ! A15   A(11,3,13)            115.2307         -DE/DX =    0.0                 !
 ! A16   A(12,3,13)            115.1501         -DE/DX =    0.0                 !
 ! A17   A(2,4,8)              110.8325         -DE/DX =    0.0                 !
 ! A18   A(2,4,9)              110.7626         -DE/DX =    0.0                 !
 ! A19   A(2,4,10)             110.3726         -DE/DX =    0.0                 !
 ! A20   A(8,4,9)              108.6708         -DE/DX =    0.0                 !
 ! A21   A(8,4,10)             107.8657         -DE/DX =    0.0                 !
 ! A22   A(9,4,10)             108.2428         -DE/DX =    0.0                 !
 ! D1    D(5,1,2,3)             26.2186         -DE/DX =    0.0                 !
 ! D2    D(5,1,2,4)           -177.7583         -DE/DX =    0.0                 !
 ! D3    D(5,1,2,11)           -40.7799         -DE/DX =    0.0                 !
 ! D4    D(6,1,2,3)            -94.4834         -DE/DX =    0.0                 !
 ! D5    D(6,1,2,4)             61.5397         -DE/DX =    0.0                 !
 ! D6    D(6,1,2,11)          -161.4819         -DE/DX =    0.0                 !
 ! D7    D(7,1,2,3)            146.0805         -DE/DX =    0.0                 !
 ! D8    D(7,1,2,4)            -57.8963         -DE/DX =    0.0                 !
 ! D9    D(7,1,2,11)            79.082          -DE/DX =    0.0                 !
 ! D10   D(1,2,3,12)           154.0703         -DE/DX =    0.0                 !
 ! D11   D(1,2,3,13)             1.0643         -DE/DX =    0.0                 !
 ! D12   D(4,2,3,12)            -1.0643         -DE/DX =    0.0                 !
 ! D13   D(4,2,3,13)          -154.0703         -DE/DX =    0.0                 !
 ! D14   D(1,2,4,8)            -61.5397         -DE/DX =    0.0                 !
 ! D15   D(1,2,4,9)            177.7583         -DE/DX =    0.0                 !
 ! D16   D(1,2,4,10)            57.8963         -DE/DX =    0.0                 !
 ! D17   D(3,2,4,8)             94.4834         -DE/DX =    0.0                 !
 ! D18   D(3,2,4,9)            -26.2186         -DE/DX =    0.0                 !
 ! D19   D(3,2,4,10)          -146.0805         -DE/DX =    0.0                 !
 ! D20   D(11,2,4,8)           161.4819         -DE/DX =    0.0                 !
 ! D21   D(11,2,4,9)            40.7799         -DE/DX =    0.0                 !
 ! D22   D(11,2,4,10)          -79.082          -DE/DX =    0.0                 !
 --------------------------------------------------------------------------------
 GradGradGradGradGradGradGradGradGradGradGradGradGradGradGradGradGradGrad

 Leave Link  103 at Thu Apr  7 20:18:12 2022, MaxMem=  1073741824 cpu:               0.1 elap:               0.0
 (Enter /home/saurabh/gaussian/g16/l9999.exe)

 ----------------------------------------------------------------------

 Electric dipole moment (input orientation):
 (Debye = 10**-18 statcoulomb cm , SI units = C m)
                  (au)            (Debye)         (10**-30 SI)
   Tot        0.770875D+00      0.195937D+01      0.653575D+01
   x          0.501759D-01      0.127534D+00      0.425409D+00
   y          0.230060D+00      0.584755D+00      0.195053D+01
   z          0.734032D+00      0.186572D+01      0.622338D+01

 Dipole polarizability, Alpha (input orientation).
 (esu units = cm**3 , SI units = C**2 m**2 J**-1)
 Alpha(0;0):
               (au)            (10**-24 esu)      (10**-40 SI)
   iso        0.502737D+02      0.744979D+01      0.828901D+01
   aniso      0.112261D+02      0.166354D+01      0.185094D+01
   xx         0.545441D+02      0.808261D+01      0.899311D+01
   yx         0.555638D+00      0.823371D-01      0.916124D-01
   yy         0.503134D+02      0.745567D+01      0.829555D+01
   zx        -0.372593D+01     -0.552126D+00     -0.614323D+00
   zy        -0.306750D+01     -0.454557D+00     -0.505762D+00
   zz         0.459636D+02      0.681110D+01      0.757837D+01

 ----------------------------------------------------------------------

 Dipole orientation:
     6         -6.08442775          3.69487308          0.74079526
     6         -3.93102066          1.97376846          0.00973393
     6         -1.40022024          3.03250746         -0.38899238
     6         -4.21741900         -0.76800819          0.74079524
     1         -5.74542607          5.61142334          0.07298084
     1         -6.32311309          3.74185997          2.78964449
     1         -7.85177354          3.02552332         -0.08717321
     1         -4.35154553         -0.97095780          2.78964447
     1         -2.61469312         -1.87225309          0.07298082
     1         -5.93491707         -1.55651348         -0.08717325
     8         -2.96214047          2.37909131         -2.50061814
     1          0.25321218          1.84690091         -0.12412950
     1         -1.08355158          5.04228923         -0.12412949

 Electric dipole moment (dipole orientation):
 (Debye = 10**-18 statcoulomb cm , SI units = C m)
                  (au)            (Debye)         (10**-30 SI)
   Tot        0.770875D+00      0.195937D+01      0.653575D+01
   x          0.000000D+00      0.000000D+00      0.000000D+00
   y          0.000000D+00      0.000000D+00      0.000000D+00
   z          0.770875D+00      0.195937D+01      0.653575D+01

 Dipole polarizability, Alpha (dipole orientation).
 (esu units = cm**3 , SI units = C**2 m**2 J**-1)
 Alpha(0;0):
               (au)            (10**-24 esu)      (10**-40 SI)
   iso        0.502737D+02      0.744979D+01      0.828901D+01
   aniso      0.112261D+02      0.166354D+01      0.185094D+01
   xx         0.549763D+02      0.814665D+01      0.906438D+01
   yx         0.169127D+01      0.250621D+00      0.278854D+00
   yy         0.516411D+02      0.765242D+01      0.851446D+01
   zx        -0.272624D+01     -0.403987D+00     -0.449496D+00
   zy        -0.114050D+01     -0.169004D+00     -0.188043D+00
   zz         0.442036D+02      0.655030D+01      0.728819D+01

 ----------------------------------------------------------------------
 Unable to Open any file for archive entry.
 1\1\GINC-MEDIAWIKI\Freq\RB3LYP\CC-pVTZ\C4H8O1\SAURABH\07-Apr-2022\0\\#
 P Geom=AllCheck Guess=TCheck SCRF=Check GenChk RB3LYP/CC-pVTZ Freq\\Mo
 l_04\\0,1\C,-3.2066927409,2.0150675542,-0.0006753862\C,-2.0857498242,1
 .0190569705,-0.1714083663\C,-0.7687228643,1.477460408,-0.6266958875\C,
 -2.1973588079,-0.2486712453,0.6398304774\H,-3.0607839373,2.875739622,-
 0.6515307082\H,-3.2624025053,2.3636245815,1.0325114764\H,-4.1648961903
 ,1.5555698199,-0.2512937559\H,-2.1965424557,-0.026891278,1.7088878433\
 H,-1.3682610691,-0.9202584551,0.4225150468\H,-3.1286138057,-0.76860908
 51,0.4063131173\O,-1.6627537802,0.8222028599,-1.5337230242\H,0.1197028
 579,0.9118114443,-0.3629456908\H,-0.6029723987,2.5326308381,-0.8215429
 167\\Version=ES64L-G16RevC.01\State=1-A\HF=-232.5190354\RMSD=3.834e-09
 \RMSF=5.547e-06\ZeroPoint=0.1127093\Thermal=0.1184787\ETot=-232.400556
 7\HTot=-232.3996125\GTot=-232.4346192\Dipole=0.0501759,0.2300602,0.734
 032\DipoleDeriv=0.0238675,0.0856849,0.0533134,0.0666055,-0.0379284,0.0
 234542,0.0092277,0.0585778,0.0869698,0.3431598,-0.0826268,-0.0818466,-
 0.1039121,0.4171314,-0.0462093,-0.1570748,-0.0797514,0.4421966,0.23728
 35,0.0085169,0.0796832,0.0295585,0.2868463,0.0173875,0.1540506,0.05054
 58,0.2046322,0.0496654,0.0466195,0.0286967,0.0507324,-0.0444798,0.1053
 085,0.0198859,0.0466,0.0677233,0.0430656,-0.0260306,0.035972,0.00914,-
 0.0687886,0.0724936,0.0083646,0.1066158,0.00288,0.0355456,0.0066891,-0
 .0069839,0.033359,0.0475762,-0.049354,0.0313892,-0.0710572,-0.1216937,
 -0.1207523,-0.0384267,-0.0084603,-0.0847788,0.0099945,-0.0380525,-0.04
 69024,-0.0222557,0.0586005,0.0677651,-0.006964,0.0014102,-0.017597,0.0
 30412,-0.0546599,0.0197163,-0.0076851,-0.136749,-0.0516687,0.1060955,0
 .0201522,0.0698444,-0.0247401,0.0116663,0.0439403,-0.0241587,0.0535658
 ,-0.0935764,-0.1037014,-0.0188619,-0.0770462,0.0023506,0.0288612,-0.05
 00346,-0.0179748,0.0390686,-0.4319521,-0.0122689,-0.0409721,0.0037076,
 -0.4651663,-0.1285915,0.0154937,-0.1034151,-0.8203509,-0.1111986,0.033
 8394,-0.0473687,0.092316,-0.0164835,0.0321674,-0.0459786,0.0120853,0.0
 61455,0.0087956,-0.017427,-0.0147342,-0.0719293,-0.1367244,0.0255286,-
 0.0020781,0.0518735,0.0617017\Polar=54.5441424,0.5556384,50.313361,-3.
 7259333,-3.0674994,45.9635532\Quadrupole=1.548826,0.743046,-2.291872,0
 .356288,0.1097924,-0.831359\PG=C01 [X(C4H8O1)]\NImag=0\\0.51013119,0.0
 4389014,0.53488433,0.00116052,-0.02050665,0.56709916,-0.14723606,0.059
 26115,-0.00163939,0.55574670,0.06204345,-0.13637031,0.00265105,-0.0210
 7707,0.48691067,0.00643719,0.00079730,-0.07081730,-0.12669433,-0.09299
 478,0.39359891,-0.02457210,-0.00988757,-0.00470087,-0.23425941,-0.0490
 1562,0.10299566,0.63050147,0.02005082,0.01020002,0.00368576,-0.0628316
 6,-0.07113777,0.05599988,0.00440029,0.61897679,0.00536160,-0.00208952,
 -0.00548048,0.05416563,0.03422802,-0.02335196,0.03633443,-0.09427665,0
 .25323062,0.00199339,0.02204510,-0.01364996,-0.08181765,-0.00350939,0.
 00500042,-0.00234798,-0.02589120,0.01636066,0.57188966,0.00037399,-0.0
 2135299,0.01241577,-0.00428351,-0.17589568,0.05680176,-0.00301422,-0.0
 1396779,0.00923384,-0.01883539,0.50559078,-0.00207327,0.00020364,0.006
 55274,0.00050753,0.04934365,-0.09671034,0.00146604,-0.00766906,-0.0035
 3681,-0.00482379,0.04100787,0.53463425,-0.05315739,-0.03191401,0.02485
 790,0.00220567,0.02067789,-0.01652630,0.00088717,0.00121135,-0.0014773
 7,-0.00362788,0.00255237,0.00147238,0.05652529,-0.02910743,-0.21044637
 ,0.12451365,-0.00382436,-0.01906316,0.01418174,-0.00062771,0.00074317,
 0.00110577,0.00412293,-0.00156305,-0.00187897,0.03072886,0.22872448,0.
 02238397,0.12721594,-0.14252514,0.00008283,-0.00383815,0.00015307,0.00
 044759,0.00013224,0.00054872,0.00023554,-0.00072994,0.00044852,-0.0258
 9406,-0.13860971,0.15103775,-0.04677086,0.00452183,0.00946645,0.000471
 68,0.00515397,0.02404975,0.00190746,-0.00088755,0.00063277,0.00049024,
 -0.00052047,-0.00035521,-0.00133624,0.00178645,0.00427472,0.04880050,0
 .00454739,-0.07380068,-0.07600381,-0.00218809,-0.00560362,-0.02015099,
 -0.00037711,0.00043055,-0.00015495,-0.00050760,0.00049926,0.00026307,-
 0.00079822,0.01006588,0.02404653,-0.00638653,0.07582790,0.01028653,-0.
 07688268,-0.27850796,0.00012836,0.00000801,-0.00414291,0.00041735,-0.0
 0043683,-0.00063943,-0.00007491,0.00026071,-0.00034888,0.00027389,-0.0
 0643827,-0.01660872,-0.01226756,0.08586196,0.30378138,-0.24146206,-0.0
 9688602,-0.05246433,-0.02632127,-0.01105520,-0.00470032,-0.00197950,0.
 00386491,-0.00249560,0.00071343,-0.00112888,0.00040133,-0.00325536,-0.
 00164319,-0.00065346,0.00226974,0.00097363,-0.00007845,0.26663879,-0.0
 9760441,-0.09644282,-0.02543971,0.02182289,0.01018702,0.00569103,0.003
 25622,-0.00291800,0.00051146,0.00019990,0.00140345,-0.00013505,-0.0214
 5291,-0.01058138,-0.00723163,-0.00845587,-0.00513024,-0.00175544,0.104
 60708,0.10192881,-0.05298560,-0.02497328,-0.06064543,0.00428918,0.0017
 0460,-0.00004595,0.00226500,-0.00045423,0.00029249,-0.00029814,-0.0000
 9776,-0.00024267,0.01790531,0.00775273,0.00512019,-0.02762897,-0.01334
 242,-0.00668621,0.05762452,0.02866989,0.06089668,-0.00004561,0.0000373
 1,-0.00002060,-0.00175277,0.00082399,0.00300453,0.00042118,0.00100372,
 0.00010644,-0.04622846,0.00078013,-0.00113361,-0.00005855,-0.00004681,
 0.00008145,0.00014894,0.00031051,-0.00007243,0.00004292,-0.00000953,-0
 .00016325,0.04544061,0.00014962,0.00046964,-0.00083299,0.00063907,0.00
 895630,0.02567746,0.00040625,0.00190809,-0.00059271,0.00094725,-0.0600
 6276,-0.05374255,-0.00028377,0.00025341,-0.00019693,0.00042480,-0.0005
 4397,0.00008470,0.00002605,-0.00009745,-0.00002742,0.00048108,0.061923
 27,0.00014152,-0.00063337,0.00021659,0.00032330,-0.00634286,-0.0164783
 7,0.00001427,-0.00044798,-0.00063070,-0.00127269,-0.05256004,-0.292788
 29,0.00011827,0.00012551,0.00032788,-0.00030492,0.00053361,0.00059460,
 0.00002168,-0.00000394,-0.00002788,0.00026942,0.05732009,0.32104589,0.
 00086898,-0.00039932,-0.00004107,0.00069519,-0.00245419,-0.00035030,0.
 00105411,-0.00084591,0.00025951,-0.20348797,0.12496872,0.04186907,0.00
 034582,0.00009326,0.00014002,-0.00006799,-0.00002722,0.00011769,0.0003
 5788,-0.00020517,0.00016484,0.00104727,-0.00178708,-0.00003024,0.21864
 019,-0.00209384,-0.00361995,0.00397049,0.02277459,-0.01924068,-0.00736
 843,0.00142261,-0.00008102,-0.00125100,0.12195197,-0.14491164,-0.03173
 664,0.00144686,-0.00106525,0.00001888,-0.00031442,0.00032574,-0.000056
 46,0.00005941,0.00018929,0.00008819,0.00373664,-0.00407965,-0.00112630
 ,-0.13548165,0.15881396,0.00075764,0.00262612,-0.00199144,-0.01439168,
 0.01179635,0.00184107,-0.00014762,0.00039929,0.00120597,0.04360020,-0.
 03477012,-0.05772928,-0.00062173,0.00086836,0.00041332,-0.00002305,0.0
 0018680,0.00026500,0.00027338,-0.00014294,-0.00002262,0.02462643,-0.01
 883357,-0.00484670,-0.04710602,0.03421948,0.05883336,0.00058334,0.0004
 5885,0.00016268,-0.00333503,-0.00182016,0.00101262,0.00109783,-0.00071
 319,-0.00101578,-0.23609401,-0.10195259,-0.04960416,0.00013902,0.00000
 305,0.00013632,0.00000341,0.00007142,-0.00001513,0.00050973,-0.0002161
 3,-0.00007660,0.00057186,0.00095283,-0.00030610,-0.02000633,-0.0116742
 3,-0.00604073,0.25551611,-0.00100572,0.00120084,-0.00055003,-0.0273906
 5,-0.01577378,-0.00563699,0.00173530,-0.00471855,0.00060714,-0.1014627
 7,-0.10342814,-0.02666293,0.00023209,0.00043596,0.00013043,0.00001608,
 -0.00005793,0.00003865,0.00092745,-0.00021662,0.00022628,-0.00527515,-
 0.00367667,-0.00164297,0.01682375,0.01032948,0.00529995,0.11461885,0.1
 1296893,0.00038223,-0.00080130,0.00009002,0.01785034,0.00986503,0.0029
 2861,0.00072600,0.00447205,-0.00098429,-0.04989074,-0.02748955,-0.0590
 2816,0.00011921,-0.00015673,-0.00005042,-0.00015153,-0.00008115,-0.000
 02790,-0.00027561,-0.00005307,0.00018391,-0.02809378,-0.01472965,-0.00
 644190,0.00610739,0.00400688,0.00096030,0.05416045,0.02696214,0.060979
 24,-0.00067921,0.01157068,0.03651737,-0.04862867,0.01098037,0.01543894
 ,-0.09650103,-0.03362695,-0.06451743,-0.00024263,-0.00065838,0.0131583
 3,0.00176558,-0.00190363,-0.00073756,-0.00560675,0.00395808,0.00098854
 ,0.00278640,-0.00276497,-0.00103540,0.00042115,-0.00166522,0.00051699,
 0.00033614,-0.00051381,-0.00090587,0.00043325,0.00179705,-0.00129230,0
 .16981372,-0.00201633,-0.00482023,-0.02438149,0.02251117,-0.06100226,-
 0.02679388,-0.04545023,-0.09440007,-0.04280445,0.00149092,0.01254502,0
 .03085526,-0.00176509,0.00176421,-0.00056905,0.00484069,-0.00220372,-0
 .00082581,0.00020737,0.00111936,0.00080677,-0.00189526,-0.00480575,0.0
 0453646,-0.00054975,0.00311173,-0.00145478,0.00023300,0.00266693,-0.00
 194992,0.04152840,0.14453486,0.00683409,-0.00715854,-0.01573573,0.0561
 9222,-0.00862321,-0.18248507,-0.10630445,-0.06143603,-0.11163862,0.002
 41736,-0.00439166,-0.03353757,-0.00033556,-0.00103852,0.00091784,0.002
 45689,-0.00137151,0.00239766,0.00130825,0.00080222,0.00136782,0.001355
 02,0.00611051,-0.00102822,-0.00094524,-0.00082362,0.00099977,0.0013413
 4,0.00027385,0.00217340,0.04014529,0.08436168,0.33704598,-0.00115779,-
 0.00201543,-0.00080547,-0.01350143,0.01013832,-0.00956966,-0.22088792,
 0.12031477,-0.04824148,0.00091816,0.00174980,0.00032344,0.00004997,-0.
 00003440,-0.00010069,-0.00001722,0.00018469,0.00017844,-0.00059098,0.0
 0064843,0.00018949,-0.00007610,-0.00030694,0.00024680,0.00019767,-0.00
 099377,0.00006160,0.00041580,-0.00010196,-0.00020659,-0.01559529,-0.00
 340816,-0.00511682,0.24438631,0.00016673,-0.00013683,0.00029696,-0.005
 91969,-0.00031289,-0.00251430,0.12409971,-0.13962160,0.03702096,-0.000
 76836,0.00080901,0.00034402,-0.00032538,0.00028088,-0.00023146,-0.0000
 2620,0.00006002,0.00013862,0.00006081,0.00038506,-0.00020061,0.0000251
 5,-0.00013425,0.00013472,-0.00017802,-0.00002460,-0.00011227,0.0000415
 8,0.00003871,-0.00003739,-0.01697015,0.01114715,-0.00373567,-0.1232275
 0,0.13878565,0.00298726,0.00272436,0.00150546,0.01355942,-0.01715963,0
 .00270188,-0.04308329,0.03768029,-0.05462055,-0.00119277,-0.00089103,0
 .00025189,0.00000779,0.00007471,-0.00006613,-0.00018374,0.00007738,-0.
 00001564,0.00137076,-0.00083784,-0.00033645,0.00011894,-0.00009205,-0.
 00001269,-0.00024902,0.00033393,0.00007815,-0.00028159,-0.00018506,0.0
 0015544,-0.02921430,0.01042675,-0.00699451,0.06034801,-0.03648531,0.05
 613316,0.00150418,-0.00068272,0.00115676,-0.00226695,-0.02088639,-0.00
 009819,-0.05532127,-0.02604939,0.00452663,-0.00215830,-0.00003157,-0.0
 0120809,-0.00048311,0.00045298,-0.00039668,-0.00029290,0.00023905,0.00
 011768,0.00029027,0.00017446,-0.00025037,0.00006756,0.00001605,0.00026
 169,0.00001904,-0.00032038,-0.00008254,0.00016503,-0.00091431,0.000564
 94,-0.00830267,-0.01572673,0.00065159,0.00585883,0.02302133,-0.0041874
 7,0.06092028,0.00060560,0.00023536,0.00018100,0.00050616,-0.00165386,-
 0.00368980,-0.02694792,-0.30541383,0.05846210,0.00021663,0.00033454,-0
 .00019232,-0.00031005,0.00045120,-0.00013715,-0.00015278,0.00013082,0.
 00000283,-0.00001343,0.00017354,-0.00015275,0.00002819,-0.00011021,0.0
 0010707,0.00004257,0.00025258,-0.00008267,-0.00000328,0.00023087,-0.00
 000735,-0.01173147,-0.00965722,-0.00296950,-0.00294785,-0.01127631,0.0
 0433350,0.04070761,0.32630252,-0.00167369,-0.00052200,0.00023952,-0.00
 437342,0.01936191,-0.00719164,0.00956987,0.06235128,-0.05439494,0.0035
 8881,0.00121015,0.00203460,0.00010026,-0.00050027,0.00028313,0.0000344
 0,0.00013546,-0.00006097,-0.00033213,-0.00007497,0.00014614,-0.0000785
 5,-0.00014489,0.00006980,0.00006336,-0.00027541,-0.00000690,0.00052670
 ,0.00113953,-0.00093827,-0.00906260,-0.03220754,0.00651724,0.00269293,
 0.00538172,0.00122000,-0.00105593,-0.05585496,0.05208229\\0.00000154,0
 .00000262,-0.00000120,0.00000542,-0.00000375,-0.00002180,0.00000821,0.
 00000332,-0.00000116,0.00000313,-0.00000093,-0.00000020,-0.00000054,-0
 .00000055,0.00000071,-0.00000056,0.00000056,0.00000045,-0.00000123,0.0
 0000015,-0.00000080,-0.00000008,-0.00000051,0.00000075,-0.00000089,0.0
 0000025,0.00000048,-0.00000059,-0.00000130,-0.00000039,-0.00001496,-0.
 00000194,0.00001671,-0.00000153,0.00000508,0.00000208,0.00000208,-0.00
 000300,0.00000437\\\@
 The archive entry for this job was punched.


 TRUTH, IN SCIENCE, CAN BE DEFINED AS THE WORKING HYPOTHESIS 
 BEST FITTED TO OPEN THE WAY TO THE NEXT BETTER ONE.

                              -- KONRAD LORENZ
 Job cpu time:       0 days  0 hours 22 minutes 38.0 seconds.
 Elapsed time:       0 days  0 hours  2 minutes 50.2 seconds.
 File lengths (MBytes):  RWF=     79 Int=      0 D2E=      0 Chk=      7 Scr=      1
 Normal termination of Gaussian 16 at Thu Apr  7 20:18:12 2022.
