 Entering Gaussian System, Link 0=g16
 Input=Mol_05.com
 Output=Mol_05.log
 Initial command:
 /home/saurabh/gaussian/g16/l1.exe "/home/saurabh/gaussian/gauss_scr/Gau-2864.inp" -scrdir="/home/saurabh/gaussian/gauss_scr/"
 Entering Link 1 = /home/saurabh/gaussian/g16/l1.exe PID=      2865.
  
 Copyright (c) 1988-2019, Gaussian, Inc.  All Rights Reserved.
  
 This is part of the Gaussian(R) 16 program.  It is based on
 the Gaussian(R) 09 system (copyright 2009, Gaussian, Inc.),
 the Gaussian(R) 03 system (copyright 2003, Gaussian, Inc.),
 the Gaussian(R) 98 system (copyright 1998, Gaussian, Inc.),
 the Gaussian(R) 94 system (copyright 1995, Gaussian, Inc.),
 the Gaussian 92(TM) system (copyright 1992, Gaussian, Inc.),
 the Gaussian 90(TM) system (copyright 1990, Gaussian, Inc.),
 the Gaussian 88(TM) system (copyright 1988, Gaussian, Inc.),
 the Gaussian 86(TM) system (copyright 1986, Carnegie Mellon
 University), and the Gaussian 82(TM) system (copyright 1983,
 Carnegie Mellon University). Gaussian is a federally registered
 trademark of Gaussian, Inc.
  
 This software contains proprietary and confidential information,
 including trade secrets, belonging to Gaussian, Inc.
  
 This software is provided under written license and may be
 used, copied, transmitted, or stored only in accord with that
 written license.
  
 The following legend is applicable only to US Government
 contracts under FAR:
  
                    RESTRICTED RIGHTS LEGEND
  
 Use, reproduction and disclosure by the US Government is
 subject to restrictions as set forth in subparagraphs (a)
 and (c) of the Commercial Computer Software - Restricted
 Rights clause in FAR 52.227-19.
  
 Gaussian, Inc.
 340 Quinnipiac St., Bldg. 40, Wallingford CT 06492
  
  
 ---------------------------------------------------------------
 Warning -- This program may not be used in any manner that
 competes with the business of Gaussian, Inc. or will provide
 assistance to any competitor of Gaussian, Inc.  The licensee
 of this program is prohibited from giving any competitor of
 Gaussian, Inc. access to this program.  By using this program,
 the user acknowledges that Gaussian, Inc. is engaged in the
 business of creating and licensing software in the field of
 computational chemistry and represents and warrants to the
 licensee that it is not a competitor of Gaussian, Inc. and that
 it will not use this program in any manner prohibited above.
 ---------------------------------------------------------------
  

 Cite this work as:
 Gaussian 16, Revision C.01,
 M. J. Frisch, G. W. Trucks, H. B. Schlegel, G. E. Scuseria, 
 M. A. Robb, J. R. Cheeseman, G. Scalmani, V. Barone, 
 G. A. Petersson, H. Nakatsuji, X. Li, M. Caricato, A. V. Marenich, 
 J. Bloino, B. G. Janesko, R. Gomperts, B. Mennucci, H. P. Hratchian, 
 J. V. Ortiz, A. F. Izmaylov, J. L. Sonnenberg, D. Williams-Young, 
 F. Ding, F. Lipparini, F. Egidi, J. Goings, B. Peng, A. Petrone, 
 T. Henderson, D. Ranasinghe, V. G. Zakrzewski, J. Gao, N. Rega, 
 G. Zheng, W. Liang, M. Hada, M. Ehara, K. Toyota, R. Fukuda, 
 J. Hasegawa, M. Ishida, T. Nakajima, Y. Honda, O. Kitao, H. Nakai, 
 T. Vreven, K. Throssell, J. A. Montgomery, Jr., J. E. Peralta, 
 F. Ogliaro, M. J. Bearpark, J. J. Heyd, E. N. Brothers, K. N. Kudin, 
 V. N. Staroverov, T. A. Keith, R. Kobayashi, J. Normand, 
 K. Raghavachari, A. P. Rendell, J. C. Burant, S. S. Iyengar, 
 J. Tomasi, M. Cossi, J. M. Millam, M. Klene, C. Adamo, R. Cammi, 
 J. W. Ochterski, R. L. Martin, K. Morokuma, O. Farkas, 
 J. B. Foresman, and D. J. Fox, Gaussian, Inc., Wallingford CT, 2019.
 
 ******************************************
 Gaussian 16:  ES64L-G16RevC.01  3-Jul-2019
                 7-Apr-2022 
 ******************************************
 %mem=8gb
 %nproc=8
 Will use up to    8 processors via shared memory.
 %chk=Mol_05.chk
 ----------------------------------------------------------------------
 #p B3LYP/cc-PVTZ scf(verytight, maxcycles=1000) opt(calcfc, maxcyc=100
 0) freq(hpmodes) int(grid=ultrafine)
 ----------------------------------------------------------------------
 1/6=1000,10=4,18=20,19=15,26=4,38=1/1,3;
 2/9=110,12=2,17=6,18=5,40=1/2;
 3/5=16,6=1,11=2,25=1,30=1,71=2,74=-5,75=-5,140=1/1,2,3;
 4//1;
 5/5=2,7=1000,17=3,38=5/2;
 8/6=4,10=90,11=11/1;
 11/6=1,8=1,9=11,15=111,16=1/1,2,10;
 10/6=1,13=1/2;
 6/7=2,8=2,9=2,10=2,28=1/1;
 7/10=1,25=1/1,2,3,16;
 1/6=1000,10=4,18=20,19=15,26=4/3(2);
 2/9=110/2;
 99//99;
 2/9=110/2;
 3/5=16,6=1,11=2,25=1,30=1,71=1,74=-5,75=-5/1,2,3;
 4/5=5,16=3,69=1/1;
 5/5=2,7=1000,17=3,38=5/2;
 7//1,2,3,16;
 1/6=1000,18=20,19=15,26=4/3(-5);
 2/9=110/2;
 6/7=2,8=2,9=2,10=2,19=2,28=1/1;
 99/9=1/99;
 Leave Link    1 at Thu Apr  7 20:18:12 2022, MaxMem=  1073741824 cpu:               0.5 elap:               0.1
 (Enter /home/saurabh/gaussian/g16/l101.exe)
 ------
 Mol_05
 ------
 Symbolic Z-matrix:
 Charge =  0 Multiplicity = 1
 C                    -3.21681   2.02705  -0.02231 
 C                    -2.06225   1.06144  -0.02753 
 C                    -0.89653   1.39162  -0.60234 
 C                    -2.22031  -0.28622   0.61898 
 H                    -2.96528   2.98198  -0.53198 
 H                    -3.50366   2.25483   1.02566 
 H                    -4.08361   1.56988  -0.54389 
 H                    -1.47908  -0.40089   1.43804 
 H                    -2.05985  -1.08684  -0.13381 
 H                    -3.23882  -0.40315   1.04633 
 H                    -0.76131   2.35982  -1.07482 
 H                    -0.06522   0.69262  -0.60447 
 
 ITRead=  0  0  0  0  0  0  0  0  0  0  0  0
 MicOpt= -1 -1 -1 -1 -1 -1 -1 -1 -1 -1 -1 -1
 NAtoms=     12 NQM=       12 NQMF=       0 NMMI=      0 NMMIF=      0
                NMic=       0 NMicF=      0.
                    Isotopes and Nuclear Properties:
 (Nuclear quadrupole moments (NQMom) in fm**2, nuclear magnetic moments (NMagM)
  in nuclear magnetons)

  Atom         1           2           3           4           5           6           7           8           9          10
 IAtWgt=          12          12          12          12           1           1           1           1           1           1
 AtmWgt=  12.0000000  12.0000000  12.0000000  12.0000000   1.0078250   1.0078250   1.0078250   1.0078250   1.0078250   1.0078250
 NucSpn=           0           0           0           0           1           1           1           1           1           1
 AtZEff=  -0.0000000  -0.0000000  -0.0000000  -0.0000000  -0.0000000  -0.0000000  -0.0000000  -0.0000000  -0.0000000  -0.0000000
 NQMom=    0.0000000   0.0000000   0.0000000   0.0000000   0.0000000   0.0000000   0.0000000   0.0000000   0.0000000   0.0000000
 NMagM=    0.0000000   0.0000000   0.0000000   0.0000000   2.7928460   2.7928460   2.7928460   2.7928460   2.7928460   2.7928460
 AtZNuc=   6.0000000   6.0000000   6.0000000   6.0000000   1.0000000   1.0000000   1.0000000   1.0000000   1.0000000   1.0000000

  Atom        11          12
 IAtWgt=           1           1
 AtmWgt=   1.0078250   1.0078250
 NucSpn=           1           1
 AtZEff=  -0.0000000  -0.0000000
 NQMom=    0.0000000   0.0000000
 NMagM=    2.7928460   2.7928460
 AtZNuc=   1.0000000   1.0000000
 Leave Link  101 at Thu Apr  7 20:18:12 2022, MaxMem=  1073741824 cpu:               1.6 elap:               0.2
 (Enter /home/saurabh/gaussian/g16/l103.exe)

 GradGradGradGradGradGradGradGradGradGradGradGradGradGradGradGradGradGrad
 Berny optimization.
 Initialization pass.
                           ----------------------------
                           !    Initial Parameters    !
                           ! (Angstroms and Degrees)  !
 --------------------------                            --------------------------
 ! Name  Definition              Value          Derivative Info.                !
 --------------------------------------------------------------------------------
 ! R1    R(1,2)                  1.5051         calculate D2E/DX2 analytically  !
 ! R2    R(1,5)                  1.1113         calculate D2E/DX2 analytically  !
 ! R3    R(1,6)                  1.1101         calculate D2E/DX2 analytically  !
 ! R4    R(1,7)                  1.1101         calculate D2E/DX2 analytically  !
 ! R5    R(2,3)                  1.341          calculate D2E/DX2 analytically  !
 ! R6    R(2,4)                  1.503          calculate D2E/DX2 analytically  !
 ! R7    R(3,11)                 1.0858         calculate D2E/DX2 analytically  !
 ! R8    R(3,12)                 1.0861         calculate D2E/DX2 analytically  !
 ! R9    R(4,8)                  1.1106         calculate D2E/DX2 analytically  !
 ! R10   R(4,9)                  1.1106         calculate D2E/DX2 analytically  !
 ! R11   R(4,10)                 1.1107         calculate D2E/DX2 analytically  !
 ! A1    A(2,1,5)              112.0903         calculate D2E/DX2 analytically  !
 ! A2    A(2,1,6)              109.4577         calculate D2E/DX2 analytically  !
 ! A3    A(2,1,7)              109.4578         calculate D2E/DX2 analytically  !
 ! A4    A(5,1,6)              108.3683         calculate D2E/DX2 analytically  !
 ! A5    A(5,1,7)              108.3684         calculate D2E/DX2 analytically  !
 ! A6    A(6,1,7)              109.043          calculate D2E/DX2 analytically  !
 ! A7    A(1,2,3)              120.686          calculate D2E/DX2 analytically  !
 ! A8    A(1,2,4)              119.5421         calculate D2E/DX2 analytically  !
 ! A9    A(3,2,4)              119.7719         calculate D2E/DX2 analytically  !
 ! A10   A(2,3,11)             120.953          calculate D2E/DX2 analytically  !
 ! A11   A(2,3,12)             120.5118         calculate D2E/DX2 analytically  !
 ! A12   A(11,3,12)            118.5353         calculate D2E/DX2 analytically  !
 ! A13   A(2,4,8)              109.8535         calculate D2E/DX2 analytically  !
 ! A14   A(2,4,9)              109.8535         calculate D2E/DX2 analytically  !
 ! A15   A(2,4,10)             110.8743         calculate D2E/DX2 analytically  !
 ! A16   A(8,4,9)              109.2097         calculate D2E/DX2 analytically  !
 ! A17   A(8,4,10)             108.5052         calculate D2E/DX2 analytically  !
 ! A18   A(9,4,10)             108.5052         calculate D2E/DX2 analytically  !
 ! D1    D(5,1,2,3)              0.0004         calculate D2E/DX2 analytically  !
 ! D2    D(5,1,2,4)           -179.9996         calculate D2E/DX2 analytically  !
 ! D3    D(6,1,2,3)           -120.2696         calculate D2E/DX2 analytically  !
 ! D4    D(6,1,2,4)             59.7304         calculate D2E/DX2 analytically  !
 ! D5    D(7,1,2,3)            120.2705         calculate D2E/DX2 analytically  !
 ! D6    D(7,1,2,4)            -59.7295         calculate D2E/DX2 analytically  !
 ! D7    D(1,2,3,11)             0.0            calculate D2E/DX2 analytically  !
 ! D8    D(1,2,3,12)           180.0            calculate D2E/DX2 analytically  !
 ! D9    D(4,2,3,11)          -180.0            calculate D2E/DX2 analytically  !
 ! D10   D(4,2,3,12)             0.0            calculate D2E/DX2 analytically  !
 ! D11   D(1,2,4,8)           -119.9232         calculate D2E/DX2 analytically  !
 ! D12   D(1,2,4,9)            119.9244         calculate D2E/DX2 analytically  !
 ! D13   D(1,2,4,10)             0.0006         calculate D2E/DX2 analytically  !
 ! D14   D(3,2,4,8)             60.0767         calculate D2E/DX2 analytically  !
 ! D15   D(3,2,4,9)            -60.0756         calculate D2E/DX2 analytically  !
 ! D16   D(3,2,4,10)          -179.9994         calculate D2E/DX2 analytically  !
 --------------------------------------------------------------------------------
 Trust Radius=3.00D-01 FncErr=1.00D-07 GrdErr=1.00D-06 EigMax=2.50D+02 EigMin=1.00D-04
 Number of steps in this run=    100 maximum allowed number of steps=    100.
 GradGradGradGradGradGradGradGradGradGradGradGradGradGradGradGradGradGrad

 Leave Link  103 at Thu Apr  7 20:18:12 2022, MaxMem=  1073741824 cpu:               0.1 elap:               0.0
 (Enter /home/saurabh/gaussian/g16/l202.exe)
                          Input orientation:                          
 ---------------------------------------------------------------------
 Center     Atomic      Atomic             Coordinates (Angstroms)
 Number     Number       Type             X           Y           Z
 ---------------------------------------------------------------------
      1          6           0       -3.216812    2.027051   -0.022306
      2          6           0       -2.062248    1.061436   -0.027527
      3          6           0       -0.896531    1.391617   -0.602339
      4          6           0       -2.220307   -0.286218    0.618978
      5          1           0       -2.965276    2.981984   -0.531978
      6          1           0       -3.503656    2.254829    1.025657
      7          1           0       -4.083607    1.569883   -0.543893
      8          1           0       -1.479077   -0.400895    1.438039
      9          1           0       -2.059849   -1.086837   -0.133814
     10          1           0       -3.238817   -0.403147    1.046326
     11          1           0       -0.761307    2.359820   -1.074817
     12          1           0       -0.065222    0.692616   -0.604466
 ---------------------------------------------------------------------
                    Distance matrix (angstroms):
                    1          2          3          4          5
     1  C    0.000000
     2  C    1.505144   0.000000
     3  C    2.474655   1.341016   0.000000
     4  C    2.599131   1.503038   2.461529   0.000000
     5  H    1.111275   2.181383   2.610349   3.544125   0.000000
     6  H    1.110130   2.147333   3.192586   2.875638   1.801342
     7  H    1.110130   2.147335   3.192593   2.875634   1.801342
     8  H    3.323741   2.150903   2.777697   1.110601   4.187316
     9  H    3.323748   2.150903   2.777689   1.110601   4.187319
    10  H    2.654868   2.163904   3.380174   1.110703   3.744994
    11  H    2.692215   2.115435   1.085789   3.463977   2.353559
    12  H    3.471620   2.111160   1.086131   2.664455   3.695506
                    6          7          8          9         10
     6  H    0.000000
     7  H    1.808032   0.000000
     8  H    3.364796   3.820419   0.000000
     9  H    3.820430   3.364808   1.810672   0.000000
    10  H    2.671218   2.671201   1.802812   1.802811   0.000000
    11  H    3.455936   3.455946   3.801471   3.801466   4.274493
    12  H    4.113470   4.113476   2.714144   2.714130   3.741326
                   11         12
    11  H    0.000000
    12  H    1.866904   0.000000
 Stoichiometry    C4H8
 Framework group  C1[X(C4H8)]
 Deg. of freedom    30
 Full point group                 C1      NOp   1
 Largest Abelian subgroup         C1      NOp   1
 Largest concise Abelian subgroup C1      NOp   1
                         Standard orientation:                         
 ---------------------------------------------------------------------
 Center     Atomic      Atomic             Coordinates (Angstroms)
 Number     Number       Type             X           Y           Z
 ---------------------------------------------------------------------
      1          6           0       -1.321072   -0.628881   -0.000000
      2          6           0       -0.000305    0.092946   -0.000000
      3          6           0        0.047163    1.433121   -0.000000
      4          6           0        1.277111   -0.699097    0.000000
      5          1           0       -2.181608    0.074261   -0.000007
      6          1           0       -1.392535   -1.269216    0.904021
      7          1           0       -1.392530   -1.269229   -0.904011
      8          1           0        1.872261   -0.454992    0.905341
      9          1           0        1.872271   -0.454977   -0.905331
     10          1           0        1.066584   -1.789666   -0.000011
     11          1           0       -0.863648    2.024190    0.000000
     12          1           0        1.001825    1.951099   -0.000000
 ---------------------------------------------------------------------
 Rotational constants (GHZ):           9.4465615           8.0832535           4.6186356
 Leave Link  202 at Thu Apr  7 20:18:12 2022, MaxMem=  1073741824 cpu:               0.1 elap:               0.0
 (Enter /home/saurabh/gaussian/g16/l301.exe)
 Standard basis: CC-pVTZ (5D, 7F)
 Ernie: Thresh=  0.10000D-02 Tol=  0.10000D-05 Strict=F.
 Ernie:  12 primitive shells out of 168 were deleted.
 There are   260 symmetry adapted cartesian basis functions of A   symmetry.
 There are   232 symmetry adapted basis functions of A   symmetry.
   232 basis functions,   344 primitive gaussians,   260 cartesian basis functions
    16 alpha electrons       16 beta electrons
       nuclear repulsion energy       119.2761337178 Hartrees.
 IExCor=  402 DFT=T Ex+Corr=B3LYP ExCW=0 ScaHFX=  0.200000
 ScaDFX=  0.800000  0.720000  1.000000  0.810000 ScalE2=  1.000000  1.000000
 IRadAn=      5 IRanWt=     -1 IRanGd=            0 ICorTp=0 IEmpDi=  4
 NAtoms=   12 NActive=   12 NUniq=   12 SFac= 1.00D+00 NAtFMM=   60 NAOKFM=F Big=F
 Integral buffers will be    131072 words long.
 Raffenetti 2 integral format.
 Two-electron integral symmetry is turned on.
 Leave Link  301 at Thu Apr  7 20:18:12 2022, MaxMem=  1073741824 cpu:               0.4 elap:               0.1
 (Enter /home/saurabh/gaussian/g16/l302.exe)
 NPDir=0 NMtPBC=     1 NCelOv=     1 NCel=       1 NClECP=     1 NCelD=      1
         NCelK=      1 NCelE2=     1 NClLst=     1 CellRange=     0.0.
 One-electron integrals computed using PRISM.
 One-electron integral symmetry used in STVInt
 NBasis=   232 RedAO= T EigKep=  3.83D-04  NBF=   232
 NBsUse=   232 1.00D-06 EigRej= -1.00D+00 NBFU=   232
 Precomputing XC quadrature grid using
 IXCGrd= 4 IRadAn=           5 IRanWt=          -1 IRanGd=           0 AccXCQ= 0.00D+00.
 Generated NRdTot=       0 NPtTot=           0 NUsed=           0 NTot=          32
 NSgBfM=   260   260   260   260   260 MxSgAt=    12 MxSgA2=    12.
 Leave Link  302 at Thu Apr  7 20:18:12 2022, MaxMem=  1073741824 cpu:               1.5 elap:               0.2
 (Enter /home/saurabh/gaussian/g16/l303.exe)
 DipDrv:  MaxL=1.
 Leave Link  303 at Thu Apr  7 20:18:12 2022, MaxMem=  1073741824 cpu:               0.3 elap:               0.1
 (Enter /home/saurabh/gaussian/g16/l401.exe)
 ExpMin= 1.03D-01 ExpMax= 8.24D+03 ExpMxC= 2.81D+02 IAcc=3 IRadAn=         5 AccDes= 0.00D+00
 Harris functional with IExCor=  402 and IRadAn=       5 diagonalized for initial guess.
 HarFok:  IExCor=  402 AccDes= 0.00D+00 IRadAn=         5 IDoV= 1 UseB2=F ITyADJ=14
 ICtDFT=  3500011 ScaDFX=  1.000000  1.000000  1.000000  1.000000
 FoFCou: FMM=F IPFlag=           0 FMFlag=      100000 FMFlg1=           0
         NFxFlg=           0 DoJE=T BraDBF=F KetDBF=T FulRan=T
         wScrn=  0.000000 ICntrl=       500 IOpCl=  0 I1Cent=   200000004 NGrid=           0
         NMat0=    1 NMatS0=      1 NMatT0=    0 NMatD0=    1 NMtDS0=    0 NMtDT0=    0
 Petite list used in FoFCou.
 Harris En= -157.352419675951    
 JPrj=0 DoOrth=F DoCkMO=F.
 Leave Link  401 at Thu Apr  7 20:18:13 2022, MaxMem=  1073741824 cpu:               5.0 elap:               0.6
 (Enter /home/saurabh/gaussian/g16/l502.exe)
 Keep R1 ints in memory in canonical form, NReq=374161138.
 FoFCou: FMM=F IPFlag=           0 FMFlag=           0 FMFlg1=           0
         NFxFlg=           0 DoJE=F BraDBF=F KetDBF=F FulRan=T
         wScrn=  0.000000 ICntrl=       600 IOpCl=  0 I1Cent=           0 NGrid=           0
         NMat0=    1 NMatS0=  27028 NMatT0=    0 NMatD0=    1 NMtDS0=    0 NMtDT0=    0
 Symmetry not used in FoFCou.
 Two-electron integral symmetry not used.
 Closed shell SCF:
 Using DIIS extrapolation, IDIIS=  1040.
 NGot=  1073741824 LenX=   708331944 LenY=   708263903
 Requested convergence on RMS density matrix=1.00D-08 within1000 cycles.
 Requested convergence on MAX density matrix=1.00D-06.
 Requested convergence on             energy=1.00D-06.
 No special actions if energy rises.
 Integral accuracy reduced to 1.0D-05 until final iterations.

 Cycle   1  Pass 0  IDiag  1:
 E= -157.086832821155    
 DIIS: error= 4.01D-02 at cycle   1 NSaved=   1.
 NSaved= 1 IEnMin= 1 EnMin= -157.086832821155     IErMin= 1 ErrMin= 4.01D-02
 ErrMax= 4.01D-02  0.00D+00 EMaxC= 1.00D-01 BMatC= 1.95D-01 BMatP= 1.95D-01
 IDIUse=3 WtCom= 5.99D-01 WtEn= 4.01D-01
 Coeff-Com:  0.100D+01
 Coeff-En:   0.100D+01
 Coeff:      0.100D+01
 Gap=     0.242 Goal=   None    Shift=    0.000
 GapD=    0.242 DampG=1.000 DampE=0.500 DampFc=0.5000 IDamp=-1.
 Damping current iteration by 5.00D-01
 RMSDP=2.99D-03 MaxDP=7.15D-02              OVMax= 2.05D-01

 Cycle   2  Pass 0  IDiag  1:
 E= -157.174121448556     Delta-E=       -0.087288627401 Rises=F Damp=T
 DIIS: error= 5.74D-03 at cycle   2 NSaved=   2.
 NSaved= 2 IEnMin= 2 EnMin= -157.174121448556     IErMin= 2 ErrMin= 5.74D-03
 ErrMax= 5.74D-03  0.00D+00 EMaxC= 1.00D-01 BMatC= 6.95D-03 BMatP= 1.95D-01
 IDIUse=3 WtCom= 9.43D-01 WtEn= 5.74D-02
 Coeff-Com:  0.540D-01 0.946D+00
 Coeff-En:   0.132D+00 0.868D+00
 Coeff:      0.585D-01 0.942D+00
 Gap=     0.282 Goal=   None    Shift=    0.000
 RMSDP=7.33D-04 MaxDP=1.98D-02 DE=-8.73D-02 OVMax= 1.17D-01

 Cycle   3  Pass 0  IDiag  1:
 E= -157.282893225980     Delta-E=       -0.108771777424 Rises=F Damp=F
 DIIS: error= 3.72D-03 at cycle   3 NSaved=   3.
 NSaved= 3 IEnMin= 3 EnMin= -157.282893225980     IErMin= 3 ErrMin= 3.72D-03
 ErrMax= 3.72D-03  0.00D+00 EMaxC= 1.00D-01 BMatC= 1.06D-03 BMatP= 6.95D-03
 IDIUse=3 WtCom= 9.63D-01 WtEn= 3.72D-02
 Coeff-Com: -0.189D-01 0.198D+00 0.821D+00
 Coeff-En:   0.000D+00 0.000D+00 0.100D+01
 Coeff:     -0.182D-01 0.191D+00 0.827D+00
 Gap=     0.252 Goal=   None    Shift=    0.000
 RMSDP=1.71D-04 MaxDP=7.14D-03 DE=-1.09D-01 OVMax= 2.36D-02

 Cycle   4  Pass 0  IDiag  1:
 E= -157.283048075175     Delta-E=       -0.000154849196 Rises=F Damp=F
 DIIS: error= 3.09D-03 at cycle   4 NSaved=   4.
 NSaved= 4 IEnMin= 4 EnMin= -157.283048075175     IErMin= 4 ErrMin= 3.09D-03
 ErrMax= 3.09D-03  0.00D+00 EMaxC= 1.00D-01 BMatC= 1.04D-03 BMatP= 1.06D-03
 IDIUse=3 WtCom= 9.69D-01 WtEn= 3.09D-02
 Coeff-Com: -0.158D-01 0.619D-01 0.525D+00 0.429D+00
 Coeff-En:   0.000D+00 0.000D+00 0.467D+00 0.533D+00
 Coeff:     -0.153D-01 0.600D-01 0.523D+00 0.432D+00
 Gap=     0.251 Goal=   None    Shift=    0.000
 RMSDP=8.79D-05 MaxDP=4.58D-03 DE=-1.55D-04 OVMax= 1.87D-02

 Cycle   5  Pass 0  IDiag  1:
 E= -157.284034212158     Delta-E=       -0.000986136982 Rises=F Damp=F
 DIIS: error= 5.65D-04 at cycle   5 NSaved=   5.
 NSaved= 5 IEnMin= 5 EnMin= -157.284034212158     IErMin= 5 ErrMin= 5.65D-04
 ErrMax= 5.65D-04  0.00D+00 EMaxC= 1.00D-01 BMatC= 3.70D-05 BMatP= 1.04D-03
 IDIUse=3 WtCom= 9.94D-01 WtEn= 5.65D-03
 Coeff-Com: -0.534D-02 0.132D-01 0.198D+00 0.222D+00 0.571D+00
 Coeff-En:   0.000D+00 0.000D+00 0.000D+00 0.000D+00 0.100D+01
 Coeff:     -0.531D-02 0.131D-01 0.197D+00 0.221D+00 0.574D+00
 Gap=     0.251 Goal=   None    Shift=    0.000
 RMSDP=1.97D-05 MaxDP=9.40D-04 DE=-9.86D-04 OVMax= 3.92D-03

 Cycle   6  Pass 0  IDiag  1:
 E= -157.284069630581     Delta-E=       -0.000035418423 Rises=F Damp=F
 DIIS: error= 1.52D-04 at cycle   6 NSaved=   6.
 NSaved= 6 IEnMin= 6 EnMin= -157.284069630581     IErMin= 6 ErrMin= 1.52D-04
 ErrMax= 1.52D-04  0.00D+00 EMaxC= 1.00D-01 BMatC= 3.44D-06 BMatP= 3.70D-05
 IDIUse=3 WtCom= 9.98D-01 WtEn= 1.52D-03
 Coeff-Com: -0.124D-02 0.615D-03 0.598D-01 0.795D-01 0.305D+00 0.557D+00
 Coeff-En:   0.000D+00 0.000D+00 0.000D+00 0.000D+00 0.547D-02 0.995D+00
 Coeff:     -0.124D-02 0.614D-03 0.597D-01 0.793D-01 0.304D+00 0.557D+00
 Gap=     0.251 Goal=   None    Shift=    0.000
 RMSDP=4.37D-06 MaxDP=1.68D-04 DE=-3.54D-05 OVMax= 6.16D-04

 Initial convergence to 1.0D-05 achieved.  Increase integral accuracy.
 Cycle   7  Pass 1  IDiag  1:
 E= -157.284064268382     Delta-E=        0.000005362198 Rises=F Damp=F
 DIIS: error= 1.27D-05 at cycle   1 NSaved=   1.
 NSaved= 1 IEnMin= 1 EnMin= -157.284064268382     IErMin= 1 ErrMin= 1.27D-05
 ErrMax= 1.27D-05  0.00D+00 EMaxC= 1.00D-01 BMatC= 2.29D-08 BMatP= 2.29D-08
 IDIUse=1 WtCom= 1.00D+00 WtEn= 0.00D+00
 Coeff-Com:  0.100D+01
 Coeff:      0.100D+01
 Gap=     0.251 Goal=   None    Shift=    0.000
 RMSDP=4.37D-06 MaxDP=1.68D-04 DE= 5.36D-06 OVMax= 7.22D-05

 Cycle   8  Pass 1  IDiag  1:
 E= -157.284064270161     Delta-E=       -0.000000001778 Rises=F Damp=F
 DIIS: error= 1.19D-05 at cycle   2 NSaved=   2.
 NSaved= 2 IEnMin= 2 EnMin= -157.284064270161     IErMin= 2 ErrMin= 1.19D-05
 ErrMax= 1.19D-05  0.00D+00 EMaxC= 1.00D-01 BMatC= 2.09D-08 BMatP= 2.29D-08
 IDIUse=1 WtCom= 1.00D+00 WtEn= 0.00D+00
 Coeff-Com:  0.487D+00 0.513D+00
 Coeff:      0.487D+00 0.513D+00
 Gap=     0.251 Goal=   None    Shift=    0.000
 RMSDP=4.49D-07 MaxDP=2.00D-05 DE=-1.78D-09 OVMax= 6.76D-05

 Cycle   9  Pass 1  IDiag  1:
 E= -157.284064289791     Delta-E=       -0.000000019630 Rises=F Damp=F
 DIIS: error= 3.18D-06 at cycle   3 NSaved=   3.
 NSaved= 3 IEnMin= 3 EnMin= -157.284064289791     IErMin= 3 ErrMin= 3.18D-06
 ErrMax= 3.18D-06  0.00D+00 EMaxC= 1.00D-01 BMatC= 1.26D-09 BMatP= 2.09D-08
 IDIUse=1 WtCom= 1.00D+00 WtEn= 0.00D+00
 Coeff-Com:  0.134D+00 0.237D+00 0.629D+00
 Coeff:      0.134D+00 0.237D+00 0.629D+00
 Gap=     0.251 Goal=   None    Shift=    0.000
 RMSDP=1.33D-07 MaxDP=6.28D-06 DE=-1.96D-08 OVMax= 2.93D-05

 Cycle  10  Pass 1  IDiag  1:
 E= -157.284064290756     Delta-E=       -0.000000000965 Rises=F Damp=F
 DIIS: error= 1.71D-06 at cycle   4 NSaved=   4.
 NSaved= 4 IEnMin= 4 EnMin= -157.284064290756     IErMin= 4 ErrMin= 1.71D-06
 ErrMax= 1.71D-06  0.00D+00 EMaxC= 1.00D-01 BMatC= 3.75D-10 BMatP= 1.26D-09
 IDIUse=1 WtCom= 1.00D+00 WtEn= 0.00D+00
 Coeff-Com:  0.323D-01 0.937D-01 0.400D+00 0.474D+00
 Coeff:      0.323D-01 0.937D-01 0.400D+00 0.474D+00
 Gap=     0.251 Goal=   None    Shift=    0.000
 RMSDP=5.81D-08 MaxDP=2.82D-06 DE=-9.65D-10 OVMax= 1.10D-05

 Cycle  11  Pass 1  IDiag  1:
 E= -157.284064291132     Delta-E=       -0.000000000375 Rises=F Damp=F
 DIIS: error= 4.06D-07 at cycle   5 NSaved=   5.
 NSaved= 5 IEnMin= 5 EnMin= -157.284064291132     IErMin= 5 ErrMin= 4.06D-07
 ErrMax= 4.06D-07  0.00D+00 EMaxC= 1.00D-01 BMatC= 1.25D-11 BMatP= 3.75D-10
 IDIUse=1 WtCom= 1.00D+00 WtEn= 0.00D+00
 Coeff-Com: -0.618D-02 0.568D-02 0.841D-01 0.199D+00 0.717D+00
 Coeff:     -0.618D-02 0.568D-02 0.841D-01 0.199D+00 0.717D+00
 Gap=     0.251 Goal=   None    Shift=    0.000
 RMSDP=1.01D-08 MaxDP=3.28D-07 DE=-3.75D-10 OVMax= 9.76D-07

 Cycle  12  Pass 1  IDiag  1:
 E= -157.284064291143     Delta-E=       -0.000000000012 Rises=F Damp=F
 DIIS: error= 3.10D-08 at cycle   6 NSaved=   6.
 NSaved= 6 IEnMin= 6 EnMin= -157.284064291143     IErMin= 6 ErrMin= 3.10D-08
 ErrMax= 3.10D-08  0.00D+00 EMaxC= 1.00D-01 BMatC= 1.74D-13 BMatP= 1.25D-11
 IDIUse=1 WtCom= 1.00D+00 WtEn= 0.00D+00
 Coeff-Com: -0.266D-02 0.111D-02 0.239D-01 0.657D-01 0.259D+00 0.653D+00
 Coeff:     -0.266D-02 0.111D-02 0.239D-01 0.657D-01 0.259D+00 0.653D+00
 Gap=     0.251 Goal=   None    Shift=    0.000
 RMSDP=1.28D-09 MaxDP=6.04D-08 DE=-1.17D-11 OVMax= 1.19D-07

 SCF Done:  E(RB3LYP) =  -157.284064291     A.U. after   12 cycles
            NFock= 12  Conv=0.13D-08     -V/T= 2.0084
 KE= 1.559720015849D+02 PE=-6.018952895986D+02 EE= 1.693630900047D+02
 Leave Link  502 at Thu Apr  7 20:18:29 2022, MaxMem=  1073741824 cpu:              73.4 elap:              15.9
 (Enter /home/saurabh/gaussian/g16/l801.exe)
 DoSCS=F DFT=T ScalE2(SS,OS)=  1.000000  1.000000
 Range of M.O.s used for correlation:     1   232
 NBasis=   232 NAE=    16 NBE=    16 NFC=     0 NFV=     0
 NROrb=    232 NOA=    16 NOB=    16 NVA=   216 NVB=   216

 **** Warning!!: The largest alpha MO coefficient is  0.17332418D+02

 Leave Link  801 at Thu Apr  7 20:18:29 2022, MaxMem=  1073741824 cpu:               0.2 elap:               0.0
 (Enter /home/saurabh/gaussian/g16/l1101.exe)
 Using compressed storage, NAtomX=    12.
 Will process     13 centers per pass.
 Leave Link 1101 at Thu Apr  7 20:18:29 2022, MaxMem=  1073741824 cpu:               1.6 elap:               0.2
 (Enter /home/saurabh/gaussian/g16/l1102.exe)
 Symmetrizing basis deriv contribution to polar:
 IMax=3 JMax=2 DiffMx= 0.00D+00
 Leave Link 1102 at Thu Apr  7 20:18:29 2022, MaxMem=  1073741824 cpu:               0.2 elap:               0.1
 (Enter /home/saurabh/gaussian/g16/l1110.exe)
 Forming Gx(P) for the SCF density, NAtomX=    12.
 Integral derivatives from FoFJK, PRISM(SPDF).
 Do as many integral derivatives as possible in FoFJK.
 G2DrvN: MDV=    1073740452.
 G2DrvN: will do    13 centers at a time, making    1 passes.
 Calling FoFCou, ICntrl=  3107 FMM=F I1Cent=   0 AccDes= 0.00D+00.
 FoFJK:  IHMeth= 1 ICntrl=    3107 DoSepK=F KAlg= 0 I1Cent=           0 FoldK=F
 IRaf=         0 NMat=       1 IRICut=       1 DoRegI=T DoRafI=F ISym2E= 0 IDoP0=0 IntGTp=1.
 FoFCou: FMM=F IPFlag=           0 FMFlag=      100000 FMFlg1=           0
         NFxFlg=           0 DoJE=F BraDBF=F KetDBF=F FulRan=T
         wScrn=  0.000000 ICntrl=      3107 IOpCl=  0 I1Cent=           0 NGrid=           0
         NMat0=    1 NMatS0=      1 NMatT0=    0 NMatD0=    1 NMtDS0=    0 NMtDT0=    0
 Symmetry not used in FoFCou.
 End of G2Drv F.D. properties file   721 does not exist.
 End of G2Drv F.D. properties file   722 does not exist.
 End of G2Drv F.D. properties file   788 does not exist.
 Leave Link 1110 at Thu Apr  7 20:18:53 2022, MaxMem=  1073741824 cpu:             189.2 elap:              23.7
 (Enter /home/saurabh/gaussian/g16/l1002.exe)
 Minotr:  Closed shell wavefunction.
          IDoAtm=111111111111
          Direct CPHF calculation.
          Differentiating once with respect to nuclear coordinates.
          Requested convergence is 1.0D-08 RMS, and 1.0D-07 maximum.
          Secondary convergence is 1.0D-12 RMS, and 1.0D-12 maximum.
          NewPWx=T KeepS1=F KeepF1=F KeepIn=T MapXYZ=F SortEE=F KeepMc=T.
         3549 words used for storage of precomputed grid.
 Keep R1 ints in memory in canonical form, NReq=374166595.
 FoFCou: FMM=F IPFlag=           0 FMFlag=           0 FMFlg1=           0
         NFxFlg=           0 DoJE=F BraDBF=F KetDBF=F FulRan=T
         wScrn=  0.000000 ICntrl=       600 IOpCl=  0 I1Cent=           0 NGrid=           0
         NMat0=    1 NMatS0=  27028 NMatT0=    0 NMatD0=    1 NMtDS0=    0 NMtDT0=    0
 Symmetry not used in FoFCou.
 Two-electron integral symmetry not used.
          MDV=    1073741824 using IRadAn=       1.
          Solving linear equations simultaneously, MaxMat=       0.
          There are    39 degrees of freedom in the 1st order CPHF.  IDoFFX=6 NUNeed=     0.
     33 vectors produced by pass  0 Test12= 8.86D-15 2.56D-09 XBig12= 8.95D-02 1.07D-01.
 AX will form    33 AO Fock derivatives at one time.
     33 vectors produced by pass  1 Test12= 8.86D-15 2.56D-09 XBig12= 1.67D-02 4.27D-02.
     33 vectors produced by pass  2 Test12= 8.86D-15 2.56D-09 XBig12= 1.45D-04 2.94D-03.
     33 vectors produced by pass  3 Test12= 8.86D-15 2.56D-09 XBig12= 4.85D-07 1.63D-04.
     33 vectors produced by pass  4 Test12= 8.86D-15 2.56D-09 XBig12= 7.48D-10 4.38D-06.
     15 vectors produced by pass  5 Test12= 8.86D-15 2.56D-09 XBig12= 1.32D-12 2.12D-07.
      5 vectors produced by pass  6 Test12= 8.86D-15 2.56D-09 XBig12= 1.47D-15 6.83D-09.
 InvSVY:  IOpt=1 It=  1 EMax= 2.22D-15
 Solved reduced A of dimension   185 with    33 vectors.
 End of Minotr F.D. properties file   721 does not exist.
 End of Minotr F.D. properties file   722 does not exist.
 End of Minotr F.D. properties file   788 does not exist.
 Leave Link 1002 at Thu Apr  7 20:19:16 2022, MaxMem=  1073741824 cpu:             184.3 elap:              23.1
 (Enter /home/saurabh/gaussian/g16/l601.exe)
 Copying SCF densities to generalized density rwf, IOpCl= 0 IROHF=0.

 **********************************************************************

            Population analysis using the SCF Density.

 **********************************************************************

 Orbital symmetries:
       Occupied  (A) (A) (A) (A) (A) (A) (A) (A) (A) (A) (A) (A)
                 (A) (A) (A) (A)
       Virtual   (A) (A) (A) (A) (A) (A) (A) (A) (A) (A) (A) (A)
                 (A) (A) (A) (A) (A) (A) (A) (A) (A) (A) (A) (A)
                 (A) (A) (A) (A) (A) (A) (A) (A) (A) (A) (A) (A)
                 (A) (A) (A) (A) (A) (A) (A) (A) (A) (A) (A) (A)
                 (A) (A) (A) (A) (A) (A) (A) (A) (A) (A) (A) (A)
                 (A) (A) (A) (A) (A) (A) (A) (A) (A) (A) (A) (A)
                 (A) (A) (A) (A) (A) (A) (A) (A) (A) (A) (A) (A)
                 (A) (A) (A) (A) (A) (A) (A) (A) (A) (A) (A) (A)
                 (A) (A) (A) (A) (A) (A) (A) (A) (A) (A) (A) (A)
                 (A) (A) (A) (A) (A) (A) (A) (A) (A) (A) (A) (A)
                 (A) (A) (A) (A) (A) (A) (A) (A) (A) (A) (A) (A)
                 (A) (A) (A) (A) (A) (A) (A) (A) (A) (A) (A) (A)
                 (A) (A) (A) (A) (A) (A) (A) (A) (A) (A) (A) (A)
                 (A) (A) (A) (A) (A) (A) (A) (A) (A) (A) (A) (A)
                 (A) (A) (A) (A) (A) (A) (A) (A) (A) (A) (A) (A)
                 (A) (A) (A) (A) (A) (A) (A) (A) (A) (A) (A) (A)
                 (A) (A) (A) (A) (A) (A) (A) (A) (A) (A) (A) (A)
                 (A) (A) (A) (A) (A) (A) (A) (A) (A) (A) (A) (A)
 The electronic state is 1-A.
 Alpha  occ. eigenvalues --  -10.18363 -10.17421 -10.17324 -10.15223  -0.80693
 Alpha  occ. eigenvalues --   -0.69381  -0.67486  -0.52067  -0.45206  -0.44324
 Alpha  occ. eigenvalues --   -0.43327  -0.39518  -0.37032  -0.36118  -0.34286
 Alpha  occ. eigenvalues --   -0.24364
 Alpha virt. eigenvalues --    0.00774   0.03370   0.07548   0.08443   0.09908
 Alpha virt. eigenvalues --    0.10680   0.10833   0.12716   0.13738   0.15425
 Alpha virt. eigenvalues --    0.21117   0.23218   0.25541   0.28554   0.29176
 Alpha virt. eigenvalues --    0.30816   0.33056   0.34477   0.35278   0.37348
 Alpha virt. eigenvalues --    0.41641   0.42622   0.44232   0.45293   0.45746
 Alpha virt. eigenvalues --    0.45801   0.46026   0.47831   0.48041   0.50545
 Alpha virt. eigenvalues --    0.52472   0.53926   0.56172   0.62957   0.64756
 Alpha virt. eigenvalues --    0.66276   0.67445   0.68397   0.77374   0.78296
 Alpha virt. eigenvalues --    0.81574   0.88266   0.88381   0.89474   0.90966
 Alpha virt. eigenvalues --    0.91768   0.92768   0.96669   0.96776   1.00832
 Alpha virt. eigenvalues --    1.02699   1.03035   1.06768   1.07741   1.11571
 Alpha virt. eigenvalues --    1.16560   1.16812   1.18755   1.19144   1.22297
 Alpha virt. eigenvalues --    1.22429   1.25951   1.27243   1.29477   1.29933
 Alpha virt. eigenvalues --    1.31106   1.32272   1.35470   1.36753   1.37261
 Alpha virt. eigenvalues --    1.41507   1.45527   1.46007   1.47014   1.49517
 Alpha virt. eigenvalues --    1.53689   1.57225   1.70442   1.73182   1.81286
 Alpha virt. eigenvalues --    2.05084   2.12200   2.18544   2.21564   2.25744
 Alpha virt. eigenvalues --    2.25887   2.30041   2.31396   2.32245   2.44417
 Alpha virt. eigenvalues --    2.51628   2.53141   2.54890   2.54978   2.58878
 Alpha virt. eigenvalues --    2.60206   2.63756   2.64563   2.69702   2.74921
 Alpha virt. eigenvalues --    2.77299   2.78731   2.79216   2.81086   2.82304
 Alpha virt. eigenvalues --    2.84025   2.86762   2.88952   2.89317   2.92734
 Alpha virt. eigenvalues --    2.93235   2.95147   2.96239   2.97067   3.00456
 Alpha virt. eigenvalues --    3.02783   3.05366   3.06314   3.06621   3.07986
 Alpha virt. eigenvalues --    3.11048   3.11389   3.16639   3.18427   3.23207
 Alpha virt. eigenvalues --    3.27069   3.28010   3.28733   3.31287   3.31321
 Alpha virt. eigenvalues --    3.33144   3.36960   3.39764   3.40308   3.41398
 Alpha virt. eigenvalues --    3.44576   3.44697   3.48024   3.51133   3.52404
 Alpha virt. eigenvalues --    3.57055   3.59968   3.61622   3.62700   3.66908
 Alpha virt. eigenvalues --    3.73684   3.74886   3.77314   3.79162   3.80464
 Alpha virt. eigenvalues --    3.81019   3.87163   3.87981   3.89252   3.91643
 Alpha virt. eigenvalues --    3.93288   3.93588   3.96680   3.99030   4.00791
 Alpha virt. eigenvalues --    4.03807   4.04617   4.05130   4.07877   4.08417
 Alpha virt. eigenvalues --    4.12786   4.14943   4.15931   4.18661   4.22195
 Alpha virt. eigenvalues --    4.30392   4.35816   4.36939   4.37450   4.38604
 Alpha virt. eigenvalues --    4.42271   4.47078   4.48925   4.51007   4.68283
 Alpha virt. eigenvalues --    4.73154   4.73586   4.77970   4.79481   4.85373
 Alpha virt. eigenvalues --    4.88834   4.89006   4.95476   4.97119   5.05682
 Alpha virt. eigenvalues --    5.06814   5.09252   5.11659   5.13955   5.14614
 Alpha virt. eigenvalues --    5.18329   5.20875   5.23418   5.25346   5.26236
 Alpha virt. eigenvalues --    5.27461   5.29448   5.30651   5.36273   5.48115
 Alpha virt. eigenvalues --    5.76373   5.79327   5.82737   5.83445   5.88218
 Alpha virt. eigenvalues --    5.93137   6.15871   9.63886  13.36597  13.40504
 Alpha virt. eigenvalues --   13.96339
          Condensed to atoms (all electrons):
               1          2          3          4          5          6
     1  C    4.828999   0.364394  -0.055238  -0.059695   0.400310   0.394531
     2  C    0.364394   4.870787   0.638804   0.337672  -0.033693  -0.042561
     3  C   -0.055238   0.638804   5.015905  -0.067269  -0.007836  -0.000019
     4  C   -0.059695   0.337672  -0.067269   4.871540   0.006443  -0.000645
     5  H    0.400310  -0.033693  -0.007836   0.006443   0.595618  -0.027270
     6  H    0.394531  -0.042561  -0.000019  -0.000645  -0.027270   0.619628
     7  H    0.394531  -0.042561  -0.000018  -0.000646  -0.027270  -0.036058
     8  H    0.004070  -0.034440  -0.007806   0.398242  -0.000430   0.000531
     9  H    0.004070  -0.034440  -0.007806   0.398242  -0.000430  -0.000245
    10  H   -0.003273  -0.043023   0.006355   0.405082   0.000132   0.001180
    11  H   -0.012149  -0.043412   0.404930   0.008431   0.004919   0.000303
    12  H    0.009321  -0.051861   0.405974  -0.008259   0.000037  -0.000526
               7          8          9         10         11         12
     1  C    0.394531   0.004070   0.004070  -0.003273  -0.012149   0.009321
     2  C   -0.042561  -0.034440  -0.034440  -0.043023  -0.043412  -0.051861
     3  C   -0.000018  -0.007806  -0.007806   0.006355   0.404930   0.405974
     4  C   -0.000646   0.398242   0.398242   0.405082   0.008431  -0.008259
     5  H   -0.027270  -0.000430  -0.000430   0.000132   0.004919   0.000037
     6  H   -0.036058   0.000531  -0.000245   0.001180   0.000303  -0.000526
     7  H    0.619628  -0.000245   0.000531   0.001180   0.000303  -0.000526
     8  H   -0.000245   0.584911  -0.024326  -0.027864  -0.000166   0.001746
     9  H    0.000531  -0.024326   0.584911  -0.027864  -0.000166   0.001746
    10  H    0.001180  -0.027864  -0.027864   0.603036  -0.000537   0.000028
    11  H    0.000303  -0.000166  -0.000166  -0.000537   0.575023  -0.039069
    12  H   -0.000526   0.001746   0.001746   0.000028  -0.039069   0.581228
 Mulliken charges:
               1
     1  C   -0.269872
     2  C    0.114333
     3  C   -0.325975
     4  C   -0.289137
     5  H    0.089471
     6  H    0.091152
     7  H    0.091152
     8  H    0.105778
     9  H    0.105778
    10  H    0.085568
    11  H    0.101591
    12  H    0.100161
 Sum of Mulliken charges =  -0.00000
 Mulliken charges with hydrogens summed into heavy atoms:
               1
     1  C    0.001903
     2  C    0.114333
     3  C   -0.124222
     4  C    0.007986
 APT charges:
               1
     1  C   -0.965864
     2  C   -0.022501
     3  C   -0.674179
     4  C   -1.002062
     5  H    0.343815
     6  H    0.308516
     7  H    0.308516
     8  H    0.340107
     9  H    0.340107
    10  H    0.307332
    11  H    0.362503
    12  H    0.353712
 Sum of APT charges =  -0.00000
 APT charges with hydrogens summed into heavy atoms:
               1
     1  C   -0.005017
     2  C   -0.022501
     3  C    0.042035
     4  C   -0.014517
 Electronic spatial extent (au):  <R**2>=            326.4429
 Charge=             -0.0000 electrons
 Dipole moment (field-independent basis, Debye):
    X=              0.0400    Y=             -0.5406    Z=              0.0000  Tot=              0.5420
 Quadrupole moment (field-independent basis, Debye-Ang):
   XX=            -26.0694   YY=            -26.9936   ZZ=            -28.1328
   XY=              0.0262   XZ=              0.0000   YZ=              0.0000
 Traceless Quadrupole moment (field-independent basis, Debye-Ang):
   XX=              0.9959   YY=              0.0717   ZZ=             -1.0676
   XY=              0.0262   XZ=              0.0000   YZ=              0.0000
 Octapole moment (field-independent basis, Debye-Ang**2):
  XXX=             -0.1349  YYY=             -0.1726  ZZZ=              0.0000  XYY=             -0.4513
  XXY=              2.3519  XXZ=             -0.0000  XZZ=              0.7088  YZZ=             -2.6679
  YYZ=             -0.0000  XYZ=             -0.0000
 Hexadecapole moment (field-independent basis, Debye-Ang**3):
 XXXX=           -225.1577 YYYY=           -192.1927 ZZZZ=            -46.5832 XXXY=             -0.9639
 XXXZ=             -0.0000 YYYX=             -0.5433 YYYZ=              0.0001 ZZZX=              0.0000
 ZZZY=             -0.0000 XXYY=            -68.8612 XXZZ=            -43.5026 YYZZ=            -42.4409
 XXYZ=             -0.0000 YYXZ=              0.0000 ZZXY=              1.1556
 N-N= 1.192761337178D+02 E-N=-6.018952868333D+02  KE= 1.559720015849D+02
  Exact polarizability:       0.000       0.000       0.000       0.000       0.000       0.000
 Approx polarizability:      65.026       1.477      89.560      -0.000      -0.000      54.996
 No NMR shielding tensors so no spin-rotation constants.
 Leave Link  601 at Thu Apr  7 20:19:16 2022, MaxMem=  1073741824 cpu:               1.1 elap:               0.2
 (Enter /home/saurabh/gaussian/g16/l701.exe)
 ... and contract with generalized density number  0.
 Compute integral second derivatives.
 Leave Link  701 at Thu Apr  7 20:19:17 2022, MaxMem=  1073741824 cpu:               1.5 elap:               0.2
 (Enter /home/saurabh/gaussian/g16/l702.exe)
 L702 exits ... SP integral derivatives will be done elsewhere.
 Leave Link  702 at Thu Apr  7 20:19:17 2022, MaxMem=  1073741824 cpu:               0.1 elap:               0.0
 (Enter /home/saurabh/gaussian/g16/l703.exe)
 Integral derivatives from FoFJK, PRISM(SPDF).
 Compute integral second derivatives, UseDBF=F ICtDFT=           0.
 Calling FoFJK, ICntrl=    100127 FMM=F ISym2X=0 I1Cent= 0 IOpClX= 0 NMat=1 NMatS=1 NMatT=0.
 FoFJK:  IHMeth= 1 ICntrl=  100127 DoSepK=F KAlg= 0 I1Cent=           0 FoldK=F
 IRaf=         0 NMat=       1 IRICut=       1 DoRegI=T DoRafI=F ISym2E= 0 IDoP0=0 IntGTp=1.
 FoFCou: FMM=F IPFlag=           0 FMFlag=      100000 FMFlg1=         800
         NFxFlg=           0 DoJE=F BraDBF=F KetDBF=F FulRan=T
         wScrn=  0.000000 ICntrl=    100127 IOpCl=  0 I1Cent=           0 NGrid=           0
         NMat0=    1 NMatS0=      1 NMatT0=    0 NMatD0=    1 NMtDS0=    0 NMtDT0=    0
 Symmetry not used in FoFCou.
 Leave Link  703 at Thu Apr  7 20:20:16 2022, MaxMem=  1073741824 cpu:             478.9 elap:              59.9
 (Enter /home/saurabh/gaussian/g16/l716.exe)
 Dipole        = 1.57216824D-02-2.12675165D-01 6.37918054D-07
 Polarizability= 0.00000000D+00 0.00000000D+00 0.00000000D+00
                 0.00000000D+00 0.00000000D+00 0.00000000D+00
 ***** Axes restored to original set *****
 -------------------------------------------------------------------
 Center     Atomic                   Forces (Hartrees/Bohr)
 Number     Number              X              Y              Z
 -------------------------------------------------------------------
      1        6          -0.003987119    0.002259646    0.000487325
      2        6           0.017360873    0.012257793   -0.011764125
      3        6          -0.009259304   -0.001507428    0.004079025
      4        6          -0.007591236   -0.007899571    0.006251978
      5        1          -0.002607162   -0.012233178    0.006301872
      6        1          -0.001652098   -0.001810569   -0.010668790
      7        1           0.005069585    0.006127769    0.007521970
      8        1          -0.009234497   -0.002232104   -0.008847001
      9        1          -0.001865054    0.006471843    0.011098094
     10        1           0.012202714   -0.001497994   -0.003854892
     11        1           0.001774819   -0.003136929    0.000713132
     12        1          -0.000211519    0.003200723   -0.001318589
 -------------------------------------------------------------------
 Cartesian Forces:  Max     0.017360873 RMS     0.007148173
 Force constants in Cartesian coordinates: 
                1             2             3             4             5 
      1  0.478058D+00
      2  0.316048D-01  0.507192D+00
      3 -0.642269D-02 -0.156891D-01  0.507220D+00
      4 -0.149677D+00  0.611387D-01  0.166227D-02  0.687542D+00
      5  0.558568D-01 -0.133847D+00  0.592732D-02  0.192610D-01  0.489877D+00
      6  0.396732D-02  0.397554D-02 -0.761714D-01 -0.192729D+00 -0.138553D+00
      7 -0.318773D-01  0.100889D-02  0.148362D-01 -0.399613D+00 -0.762860D-01
      8  0.219108D-01  0.719461D-02 -0.710434D-02 -0.753430D-01 -0.126576D+00
      9  0.571479D-02  0.618800D-03  0.708518D-02  0.158076D+00  0.569002D-01
     10  0.504575D-02  0.190655D-01 -0.920894D-02 -0.849681D-01 -0.128764D-01
     11 -0.700500D-03 -0.187633D-01  0.959904D-02 -0.105410D-01 -0.182461D+00
     12 -0.583294D-03  0.229554D-02  0.185384D-02  0.107295D-01  0.545416D-01
     13 -0.647856D-01 -0.477018D-01  0.256231D-01  0.651323D-02  0.213147D-01
     14 -0.438011D-01 -0.210910D+00  0.856294D-01 -0.623859D-02 -0.184487D-01
     15  0.239209D-01  0.870707D-01 -0.986141D-01 -0.272467D-03 -0.519773D-03
     16 -0.584367D-01  0.105329D-01  0.535752D-01 -0.118444D-01  0.655119D-02
     17  0.108788D-01 -0.596419D-01 -0.409713D-01  0.638251D-02 -0.405542D-02
     18  0.518052D-01 -0.397805D-01 -0.246846D+00  0.364321D-02 -0.316825D-03
     19 -0.178616D+00 -0.739272D-01 -0.825758D-01 -0.260897D-01 -0.910969D-02
     20 -0.719245D-01 -0.895544D-01 -0.417368D-01  0.169883D-01  0.984472D-02
     21 -0.818308D-01 -0.420597D-01 -0.967544D-01  0.178217D-02  0.634303D-03
     22  0.310977D-03  0.396496D-03 -0.418940D-03  0.193748D-02  0.897027D-03
     23 -0.152453D-02 -0.238584D-02  0.150175D-02  0.190531D-01 -0.715898D-02
     24  0.105250D-02  0.410666D-03 -0.112926D-02 -0.752226D-02  0.387928D-02
     25 -0.986160D-04  0.512509D-03 -0.420639D-03 -0.629559D-03 -0.174792D-02
     26 -0.203732D-02 -0.228310D-02  0.142142D-02  0.394108D-02 -0.245508D-01
     27  0.589728D-04  0.860572D-03 -0.822459D-03 -0.141224D-02  0.121429D-01
     28  0.664348D-03  0.152972D-02 -0.571069D-03 -0.377325D-02  0.104810D-03
     29 -0.948086D-03  0.155099D-02  0.773161D-04 -0.295667D-01 -0.315085D-02
     30  0.510229D-03 -0.838175D-03  0.110274D-02  0.135487D-01  0.452768D-03
     31  0.169030D-03 -0.301656D-02 -0.173457D-02 -0.434626D-03 -0.249118D-01
     32  0.334370D-03 -0.501031D-03 -0.343448D-02  0.147471D-02 -0.619014D-02
     33 -0.319690D-02 -0.219637D-02 -0.594845D-02  0.134267D-02  0.140623D-01
     34 -0.757132D-03 -0.114385D-02  0.565593D-02 -0.189630D-01  0.209463D-01
     35  0.350545D-03  0.194925D-02  0.477984D-02 -0.654996D-02  0.671698D-02
     36  0.500381D-02  0.533205D-02  0.902347D-02  0.111514D-01 -0.915150D-02
                6             7             8             9            10 
      6  0.320363D+00
      7  0.158487D+00  0.698004D+00
      8  0.565518D-01 -0.332419D-01  0.579579D+00
      9 -0.144018D+00 -0.204161D+00 -0.194294D+00  0.266426D+00
     10  0.117486D-01 -0.788017D-03 -0.280942D-01  0.146387D-01  0.526371D+00
     11  0.536789D-01 -0.755609D-02 -0.146826D-01  0.116646D-01 -0.973881D-04
     12 -0.961450D-01  0.567598D-02  0.192533D-01 -0.484988D-02 -0.103025D-01
     13 -0.122967D-01  0.738036D-03  0.100434D-02 -0.892603D-03 -0.297761D-02
     14  0.966120D-02 -0.177382D-02  0.100796D-02  0.101985D-05  0.322604D-02
     15 -0.126479D-02  0.319735D-03 -0.102547D-02 -0.162190D-03  0.695451D-03
     16  0.266526D-01 -0.150939D-02  0.295868D-02 -0.981155D-03  0.314461D-03
     17 -0.201575D-01  0.130384D-02 -0.170622D-02  0.862687D-03  0.333138D-03
     18  0.931120D-03 -0.683096D-03 -0.957174D-03  0.681350D-03  0.473855D-03
     19 -0.991184D-02 -0.941049D-03  0.352701D-02 -0.842678D-03  0.762486D-03
     20  0.108942D-01  0.147815D-02 -0.162205D-02 -0.318837D-03 -0.231830D-03
     21  0.127627D-02  0.475527D-03  0.132531D-03  0.287573D-04 -0.399396D-03
     22  0.357728D-02  0.351246D-03 -0.193724D-02  0.141751D-02 -0.150296D+00
     23  0.233096D-01  0.934507D-03  0.107632D-03 -0.642786D-03  0.139674D-01
     24 -0.968251D-02 -0.247293D-03  0.118484D-02  0.195616D-02 -0.109653D+00
     25 -0.210607D-02  0.583891D-03 -0.175891D-02  0.125988D-02 -0.541996D-01
     26 -0.160979D-01  0.181047D-02  0.102835D-02  0.798095D-03  0.229398D-01
     27  0.102763D-01  0.113842D-03  0.135040D-02  0.802822D-03  0.232180D-01
     28  0.600363D-03  0.777862D-03 -0.113834D-02  0.469244D-03 -0.236731D+00
     29  0.114158D-01  0.728417D-03 -0.564238D-02  0.250011D-02 -0.156783D-01
     30 -0.722822D-02 -0.345355D-03  0.318986D-02 -0.560957D-03  0.753740D-01
     31  0.128575D-01 -0.573660D-01 -0.205447D-01  0.186471D-01 -0.321936D-02
     32  0.431257D-02 -0.258652D-01 -0.269750D+00  0.113673D+00 -0.105569D-02
     33 -0.169184D-02  0.209689D-01  0.111708D+00 -0.876595D-01  0.471565D-02
     34 -0.847647D-03 -0.208360D+00  0.132658D+00  0.665410D-02  0.684919D-03
     35  0.100825D-02  0.137459D+00 -0.168938D+00  0.823638D-02 -0.149798D-02
     36  0.335474D-02  0.455891D-02  0.100104D-01 -0.397299D-01 -0.130072D-02
               11            12            13            14            15 
     11  0.470895D+00
     12  0.120269D-01  0.496931D+00
     13  0.240456D-02  0.105396D-02  0.687809D-01
     14 -0.110336D-03  0.408084D-04  0.484216D-01  0.231901D+00
     15  0.344309D-03  0.230747D-02 -0.281114D-01 -0.973208D-01  0.102747D+00
     16 -0.123150D-02 -0.602116D-03 -0.277216D-02  0.168611D-02  0.671791D-02
     17  0.128632D-02  0.717335D-04 -0.666294D-02  0.645220D-02  0.247149D-01
     18  0.235099D-03  0.698099D-03  0.285173D-02 -0.246390D-02 -0.123376D-01
     19 -0.408802D-03  0.143662D-02 -0.545452D-02 -0.273529D-02 -0.268766D-02
     20  0.965770D-03 -0.481744D-03 -0.195630D-01 -0.102637D-01 -0.127320D-01
     21 -0.168852D-05  0.570633D-03  0.121656D-01  0.514392D-02  0.706060D-02
     22  0.138236D-01 -0.109857D+00  0.336991D-04  0.290229D-03  0.227545D-04
     23 -0.471422D-01  0.148938D-01  0.483696D-03 -0.851555D-03 -0.372333D-03
     24  0.141316D-01 -0.168514D+00 -0.262195D-03  0.172967D-03  0.613013D-04
     25  0.234257D-01  0.232731D-01 -0.804777D-04  0.180858D-03 -0.292862D-03
     26 -0.159255D+00 -0.110765D+00  0.770087D-03 -0.483260D-03  0.394895D-03
     27 -0.110129D+00 -0.152497D+00 -0.349499D-03  0.138831D-03 -0.192826D-03
     28 -0.205578D-01  0.775034D-01  0.496930D-04  0.108453D-03 -0.116624D-03
     29 -0.534307D-01  0.674500D-02  0.111979D-04  0.379752D-03 -0.230025D-03
     30  0.854790D-02 -0.828283D-01 -0.741920D-04 -0.265964D-03  0.558170D-05
     31  0.110634D-02  0.377211D-02 -0.331105D-03  0.761770D-03 -0.440649D-04
     32  0.282859D-02  0.277604D-02 -0.245747D-03  0.883452D-03 -0.986393D-04
     33  0.197716D-02  0.569095D-02  0.395617D-03 -0.470890D-03  0.508662D-03
     34  0.332831D-03 -0.209961D-02  0.285917D-03 -0.126229D-03 -0.151674D-03
     35 -0.131409D-03 -0.139850D-02 -0.236730D-03  0.443924D-03 -0.225677D-03
     36 -0.207493D-02 -0.321838D-02 -0.103453D-03 -0.266517D-03 -0.119119D-03
               16            17            18            19            20 
     16  0.675909D-01
     17 -0.157787D-01  0.604272D-01
     18 -0.609904D-01  0.468408D-01  0.270363D+00
     19  0.731240D-02  0.361425D-02  0.348130D-02  0.202781D+00
     20 -0.461152D-02 -0.349083D-02 -0.237759D-02  0.781441D-01  0.937094D-01
     21 -0.234885D-01 -0.119682D-01 -0.135231D-01  0.908202D-01  0.482132D-01
     22 -0.642470D-04  0.327842D-04 -0.786707D-04  0.276364D-03 -0.212506D-03
     23  0.228347D-03 -0.813794D-04 -0.267111D-03 -0.201324D-03  0.345363D-03
     24 -0.197731D-04 -0.440715D-04  0.185779D-05 -0.127194D-03 -0.236367D-03
     25  0.159248D-03 -0.333663D-03 -0.236434D-03 -0.937201D-04  0.724508D-04
     26 -0.176578D-03  0.394847D-03 -0.196019D-03  0.257101D-03  0.405967D-04
     27  0.497168D-04  0.189737D-04 -0.146305D-04 -0.218617D-03 -0.773044D-04
     28  0.384276D-03 -0.543594D-03 -0.181373D-03  0.510727D-03 -0.354966D-03
     29  0.114233D-03 -0.394443D-03 -0.418637D-03  0.387132D-03 -0.257224D-04
     30 -0.268632D-03  0.211687D-03  0.121531D-03 -0.407238D-03  0.154417D-03
     31  0.437123D-03  0.236833D-04 -0.215543D-03 -0.344844D-03  0.267343D-03
     32  0.586154D-03  0.705050D-04 -0.206590D-03 -0.388827D-03  0.297526D-03
     33  0.112690D-02 -0.311631D-03 -0.109015D-03 -0.115073D-02  0.157302D-03
     34 -0.157145D-02  0.749948D-03  0.130225D-03 -0.103519D-03 -0.519072D-04
     35 -0.859270D-03  0.739155D-03 -0.915311D-04  0.841587D-03 -0.246675D-03
     36 -0.177185D-02  0.732081D-03  0.329235D-04  0.218373D-02 -0.145849D-02
               21            22            23            24            25 
     21  0.101891D+00
     22  0.232397D-03  0.161623D+00
     23 -0.835528D-04 -0.146310D-01  0.549606D-01
     24 -0.822512D-04  0.122503D+00 -0.198085D-01  0.182227D+00
     25  0.621931D-05  0.413851D-02 -0.160919D-01 -0.145978D-01  0.536333D-01
     26  0.524488D-05 -0.128110D-02  0.252711D-02  0.223695D-02 -0.258392D-01
     27 -0.906205D-04  0.434034D-02 -0.154808D-01 -0.152171D-01 -0.266226D-01
     28  0.116429D-03 -0.181810D-01 -0.179409D-02  0.810391D-02 -0.313436D-02
     29  0.267504D-03  0.255290D-02 -0.667642D-03 -0.167373D-02  0.212902D-01
     30 -0.373604D-03 -0.212941D-01 -0.258120D-02  0.105191D-01  0.194898D-01
     31  0.150803D-03  0.147976D-03 -0.294331D-03  0.425789D-03 -0.113612D-03
     32  0.868728D-04  0.328838D-03 -0.264513D-03  0.103070D-03  0.190638D-03
     33  0.445957D-03  0.134789D-03 -0.108999D-02  0.634725D-03 -0.158944D-03
     34 -0.306438D-04 -0.278939D-03 -0.129890D-03  0.343729D-03 -0.164962D-03
     35 -0.370431D-03 -0.260034D-03  0.611426D-03 -0.356678D-03  0.991241D-04
     36 -0.449184D-03 -0.579537D-03  0.621054D-03 -0.775403D-03  0.406346D-03
               26            27            28            29            30 
     26  0.179128D+00
     27  0.118928D+00  0.166050D+00
     28  0.254723D-03  0.116853D-02  0.259037D+00
     29  0.289305D-02 -0.725072D-02  0.224991D-01  0.588179D-01
     30  0.303513D-02 -0.808824D-02 -0.871261D-01 -0.122465D-01  0.873400D-01
     31  0.347590D-03 -0.246456D-03  0.829910D-04 -0.127466D-02  0.838742D-03
     32  0.695305D-03 -0.228743D-03 -0.874259D-04 -0.301784D-03  0.533864D-03
     33  0.113654D-02 -0.634869D-04  0.320648D-03  0.972562D-03  0.304642D-03
     34 -0.986653D-03 -0.999457D-04  0.312259D-03 -0.115492D-03 -0.245942D-03
     35 -0.135207D-03 -0.272924D-03 -0.206001D-04 -0.281477D-04 -0.193820D-03
     36 -0.897550D-03 -0.142717D-03 -0.287347D-03 -0.158774D-03 -0.314283D-03
               31            32            33            34            35 
     31  0.558220D-01
     32  0.291030D-01  0.283156D+00
     33 -0.248682D-01 -0.124331D+00  0.863358D-01
     34  0.515046D-02 -0.437482D-02  0.369577D-03  0.223766D+00
     35  0.184323D-01 -0.109245D-01 -0.161395D-02 -0.147758D+00  0.169943D+00
     36 -0.958322D-02  0.681314D-02  0.155157D-02 -0.967809D-02 -0.950096D-02
               36 
     36  0.307863D-01
 FormGI is forming the generalized inverse of G from B-inverse, IUseBI=4.
 Leave Link  716 at Thu Apr  7 20:20:17 2022, MaxMem=  1073741824 cpu:               0.2 elap:               0.0
 (Enter /home/saurabh/gaussian/g16/l103.exe)

 GradGradGradGradGradGradGradGradGradGradGradGradGradGradGradGradGradGrad
 Berny optimization.
 Red2BG is reusing G-inverse.
 Internal  Forces:  Max     0.013992634 RMS     0.005492181
 Search for a local minimum.
 Step number   1 out of a maximum of  100
 All quantities printed in internal units (Hartrees-Bohrs-Radians)
 RMS Force = .54922D-02 SwitMx=.10000D-02 MixMth= 1
 Mixed Optimization -- RFO/linear search
 Second derivative matrix not updated -- analytic derivatives used.
 ITU=  0
     Eigenvalues ---   -0.00277   0.00294   0.01647   0.03014   0.03742
     Eigenvalues ---    0.05567   0.05695   0.05706   0.05754   0.10340
     Eigenvalues ---    0.12155   0.12442   0.12671   0.13723   0.14174
     Eigenvalues ---    0.14492   0.14725   0.18899   0.19882   0.29279
     Eigenvalues ---    0.29503   0.29554   0.29811   0.30056   0.30434
     Eigenvalues ---    0.31849   0.33578   0.34923   0.35113   0.58634
 Eigenvalue     1 is  -2.77D-03 should be greater than     0.000000 Eigenvector:
                          D11       D12       D13       D14       D15
   1                    0.42361   0.42361   0.40461   0.40227   0.40227
                          D16       D10       D9        D6        D4
   1                    0.38327   0.03644   0.03454  -0.03284  -0.03284
 RFO step:  Lambda=-5.11746776D-03 EMin=-2.76515853D-03
 Linear search not attempted -- first point.
 Iteration  1 RMS(Cart)=  0.10042485 RMS(Int)=  0.03875287
 Iteration  2 RMS(Cart)=  0.04912195 RMS(Int)=  0.00202249
 Iteration  3 RMS(Cart)=  0.00209071 RMS(Int)=  0.00013400
 Iteration  4 RMS(Cart)=  0.00000296 RMS(Int)=  0.00013398
 Iteration  5 RMS(Cart)=  0.00000000 RMS(Int)=  0.00013398
 ITry= 1 IFail=0 DXMaxC= 4.59D-01 DCOld= 1.00D+10 DXMaxT= 3.00D-01 DXLimC= 3.00D+00 Rises=F
 Variable       Old X    -DE/DX   Delta X   Delta X   Delta X     New X
                                 (Linear)    (Quad)   (Total)
    R1        2.84431  -0.00118   0.00000  -0.00449  -0.00449   2.83982
    R2        2.10001  -0.01399   0.00000  -0.04386  -0.04386   2.05615
    R3        2.09784  -0.01002   0.00000  -0.03104  -0.03104   2.06680
    R4        2.09784  -0.01002   0.00000  -0.03204  -0.03204   2.06580
    R5        2.53415  -0.00853   0.00000  -0.02160  -0.02160   2.51255
    R6        2.84033   0.00731   0.00000   0.02109   0.02109   2.86142
    R7        2.05184  -0.00289   0.00000  -0.00678  -0.00678   2.04506
    R8        2.05249  -0.00222   0.00000  -0.00577  -0.00577   2.04672
    R9        2.09873  -0.01246   0.00000  -0.03436  -0.03436   2.06437
   R10        2.09873  -0.01246   0.00000  -0.04191  -0.04191   2.05682
   R11        2.09892  -0.01252   0.00000  -0.04148  -0.04148   2.05744
    A1        1.95634  -0.00211   0.00000  -0.00345  -0.00352   1.95283
    A2        1.91040   0.00445   0.00000   0.02596   0.02590   1.93629
    A3        1.91040   0.00445   0.00000   0.01925   0.01920   1.92960
    A4        1.89138  -0.00081   0.00000  -0.00080  -0.00088   1.89051
    A5        1.89138  -0.00081   0.00000   0.00105   0.00101   1.89239
    A6        1.90316  -0.00542   0.00000  -0.04406  -0.04410   1.85906
    A7        2.10637   0.00412   0.00000   0.02362   0.02358   2.12995
    A8        2.08640  -0.01093   0.00000  -0.05680  -0.05684   2.02957
    A9        2.09041   0.00680   0.00000   0.03319   0.03315   2.12356
   A10        2.11103   0.00129   0.00000   0.01093   0.01093   2.12195
   A11        2.10333   0.00209   0.00000   0.01942   0.01942   2.12275
   A12        2.06883  -0.00338   0.00000  -0.03035  -0.03035   2.03848
   A13        1.91731   0.00375   0.00000   0.01950   0.01937   1.93668
   A14        1.91731   0.00375   0.00000   0.02740   0.02712   1.94443
   A15        1.93512   0.00302   0.00000   0.01253   0.01231   1.94743
   A16        1.90607  -0.00413   0.00000  -0.03106  -0.03124   1.87483
   A17        1.89377  -0.00333   0.00000  -0.02441  -0.02448   1.86930
   A18        1.89377  -0.00333   0.00000  -0.00563  -0.00597   1.88781
    D1        0.00001   0.00000   0.00000  -0.00737  -0.00748  -0.00747
    D2       -3.14159   0.00000   0.00000  -0.02353  -0.02339   3.11821
    D3       -2.09910  -0.00062   0.00000  -0.02170  -0.02183  -2.12093
    D4        1.04249  -0.00062   0.00000  -0.03785  -0.03774   1.00475
    D5        2.09912   0.00062   0.00000   0.00474   0.00461   2.10373
    D6       -1.04248   0.00062   0.00000  -0.01142  -0.01130  -1.05377
    D7       -0.00000  -0.00000   0.00000   0.00972   0.00943   0.00943
    D8       -3.14159  -0.00000   0.00000   0.01114   0.01085  -3.13074
    D9       -3.14159   0.00000   0.00000   0.02591   0.02619  -3.11540
   D10        0.00000  -0.00000   0.00000   0.02733   0.02761   0.02761
   D11       -2.09306  -0.00020   0.00000   0.31325   0.31322  -1.77984
   D12        2.09308   0.00020   0.00000   0.32217   0.32215   2.41523
   D13        0.00001  -0.00000   0.00000   0.30345   0.30327   0.30328
   D14        1.04854  -0.00020   0.00000   0.29724   0.29737   1.34590
   D15       -1.04852   0.00020   0.00000   0.30616   0.30630  -0.74222
   D16       -3.14158  -0.00000   0.00000   0.28745   0.28742  -2.85416
         Item               Value     Threshold  Converged?
 Maximum Force            0.013993     0.000450     NO 
 RMS     Force            0.005492     0.000300     NO 
 Maximum Displacement     0.458853     0.001800     NO 
 RMS     Displacement     0.146255     0.001200     NO 
 Predicted change in Energy=-3.393495D-03
 Lowest energy point so far.  Saving SCF results.
 GradGradGradGradGradGradGradGradGradGradGradGradGradGradGradGradGradGrad

 Leave Link  103 at Thu Apr  7 20:20:17 2022, MaxMem=  1073741824 cpu:               0.1 elap:               0.0
 (Enter /home/saurabh/gaussian/g16/l202.exe)
                          Input orientation:                          
 ---------------------------------------------------------------------
 Center     Atomic      Atomic             Coordinates (Angstroms)
 Number     Number       Type             X           Y           Z
 ---------------------------------------------------------------------
      1          6           0       -3.191580    2.027386    0.022384
      2          6           0       -2.038825    1.066700   -0.058513
      3          6           0       -0.900898    1.380386   -0.670497
      4          6           0       -2.235520   -0.274982    0.615277
      5          1           0       -2.965336    2.974298   -0.463474
      6          1           0       -3.458957    2.230377    1.063291
      7          1           0       -4.080672    1.600741   -0.449332
      8          1           0       -1.721891   -0.307456    1.578869
      9          1           0       -1.839722   -1.086563    0.007543
     10          1           0       -3.288216   -0.476484    0.806615
     11          1           0       -0.753217    2.348581   -1.130871
     12          1           0       -0.077877    0.679155   -0.733435
 ---------------------------------------------------------------------
                    Distance matrix (angstroms):
                    1          2          3          4          5
     1  C    0.000000
     2  C    1.502766   0.000000
     3  C    2.479095   1.329587   0.000000
     4  C    2.562513   1.514197   2.484889   0.000000
     5  H    1.088066   2.159015   2.616355   3.500594   0.000000
     6  H    1.093702   2.151595   3.205022   2.823887   1.768641
     7  H    1.093173   2.146411   3.195063   2.838365   1.769416
     8  H    3.167667   2.160965   2.929588   1.092418   4.060447
     9  H    3.394763   2.163457   2.725246   1.088421   4.240219
    10  H    2.625590   2.165835   3.365875   1.088753   3.691243
    11  H    2.716391   2.108545   1.082199   3.482720   2.393828
    12  H    3.476225   2.109746   1.083075   2.717503   3.698376
                    6          7          8          9         10
     6  H    0.000000
     7  H    1.752427   0.000000
     8  H    3.118303   3.649474   0.000000
     9  H    3.839090   3.528766   1.757827   0.000000
    10  H    2.724359   2.553479   1.754513   1.763192   0.000000
    11  H    3.485592   3.477890   3.916064   3.778451   4.261580
    12  H    4.131128   4.117330   3.003820   2.602096   3.743465
                   11         12
    11  H    0.000000
    12  H    1.844186   0.000000
 Stoichiometry    C4H8
 Framework group  C1[X(C4H8)]
 Deg. of freedom    30
 Full point group                 C1      NOp   1
 RotChk:  IX=0 Diff= 9.06D-02
 Largest Abelian subgroup         C1      NOp   1
 Largest concise Abelian subgroup C1      NOp   1
                         Standard orientation:                         
 ---------------------------------------------------------------------
 Center     Atomic      Atomic             Coordinates (Angstroms)
 Number     Number       Type             X           Y           Z
 ---------------------------------------------------------------------
      1          6           0       -1.270397   -0.693364   -0.000390
      2          6           0       -0.006830    0.120065   -0.006439
      3          6           0       -0.023821    1.449521    0.001095
      4          6           0        1.291878   -0.658465   -0.000032
      5          1           0       -2.157838   -0.064083    0.018079
      6          1           0       -1.302763   -1.358811    0.866971
      7          1           0       -1.319085   -1.333500   -0.885196
      8          1           0        1.735694   -0.670047    0.998101
      9          1           0        2.022292   -0.218259   -0.676325
     10          1           0        1.138588   -1.695417   -0.294337
     11          1           0       -0.952788    2.004313    0.020647
     12          1           0        0.890916    2.029262   -0.013342
 ---------------------------------------------------------------------
 Rotational constants (GHZ):           9.2420627           8.3068627           4.6229625
 Leave Link  202 at Thu Apr  7 20:20:17 2022, MaxMem=  1073741824 cpu:               0.1 elap:               0.0
 (Enter /home/saurabh/gaussian/g16/l301.exe)
 Standard basis: CC-pVTZ (5D, 7F)
 Ernie: Thresh=  0.10000D-02 Tol=  0.10000D-05 Strict=F.
 Ernie:  12 primitive shells out of 168 were deleted.
 There are   260 symmetry adapted cartesian basis functions of A   symmetry.
 There are   232 symmetry adapted basis functions of A   symmetry.
   232 basis functions,   344 primitive gaussians,   260 cartesian basis functions
    16 alpha electrons       16 beta electrons
       nuclear repulsion energy       119.7278490992 Hartrees.
 IExCor=  402 DFT=T Ex+Corr=B3LYP ExCW=0 ScaHFX=  0.200000
 ScaDFX=  0.800000  0.720000  1.000000  0.810000 ScalE2=  1.000000  1.000000
 IRadAn=      5 IRanWt=     -1 IRanGd=            0 ICorTp=0 IEmpDi=  4
 NAtoms=   12 NActive=   12 NUniq=   12 SFac= 1.00D+00 NAtFMM=   60 NAOKFM=F Big=F
 Integral buffers will be    131072 words long.
 Raffenetti 2 integral format.
 Two-electron integral symmetry is turned on.
 Leave Link  301 at Thu Apr  7 20:20:17 2022, MaxMem=  1073741824 cpu:               0.5 elap:               0.1
 (Enter /home/saurabh/gaussian/g16/l302.exe)
 NPDir=0 NMtPBC=     1 NCelOv=     1 NCel=       1 NClECP=     1 NCelD=      1
         NCelK=      1 NCelE2=     1 NClLst=     1 CellRange=     0.0.
 One-electron integrals computed using PRISM.
 One-electron integral symmetry used in STVInt
 NBasis=   232 RedAO= T EigKep=  3.65D-04  NBF=   232
 NBsUse=   232 1.00D-06 EigRej= -1.00D+00 NBFU=   232
 Precomputing XC quadrature grid using
 IXCGrd= 4 IRadAn=           5 IRanWt=          -1 IRanGd=           0 AccXCQ= 0.00D+00.
 Generated NRdTot=       0 NPtTot=           0 NUsed=           0 NTot=          32
 NSgBfM=   260   260   260   260   260 MxSgAt=    12 MxSgA2=    12.
 Leave Link  302 at Thu Apr  7 20:20:17 2022, MaxMem=  1073741824 cpu:               1.5 elap:               0.2
 (Enter /home/saurabh/gaussian/g16/l303.exe)
 DipDrv:  MaxL=1.
 Leave Link  303 at Thu Apr  7 20:20:17 2022, MaxMem=  1073741824 cpu:               0.2 elap:               0.0
 (Enter /home/saurabh/gaussian/g16/l401.exe)
 Initial guess from the checkpoint file:  "Mol_05.chk"
 B after Tr=     0.000000    0.000000   -0.000000
         Rot=    0.999660   -0.011969    0.005930   -0.022382 Ang=  -2.99 deg.
 Guess basis will be translated and rotated to current coordinates.
 JPrj=2 DoOrth=T DoCkMO=T.
 Generating alternative initial guess.
 ExpMin= 1.03D-01 ExpMax= 8.24D+03 ExpMxC= 2.81D+02 IAcc=3 IRadAn=         5 AccDes= 0.00D+00
 Harris functional with IExCor=  402 and IRadAn=       5 diagonalized for initial guess.
 HarFok:  IExCor=  402 AccDes= 0.00D+00 IRadAn=         5 IDoV= 1 UseB2=F ITyADJ=14
 ICtDFT=  3500011 ScaDFX=  1.000000  1.000000  1.000000  1.000000
 FoFCou: FMM=F IPFlag=           0 FMFlag=      100000 FMFlg1=           0
         NFxFlg=           0 DoJE=T BraDBF=F KetDBF=T FulRan=T
         wScrn=  0.000000 ICntrl=       500 IOpCl=  0 I1Cent=   200000004 NGrid=           0
         NMat0=    1 NMatS0=      1 NMatT0=    0 NMatD0=    1 NMtDS0=    0 NMtDT0=    0
 Petite list used in FoFCou.
 Harris En= -157.365780030065    
 Leave Link  401 at Thu Apr  7 20:20:18 2022, MaxMem=  1073741824 cpu:               5.3 elap:               0.7
 (Enter /home/saurabh/gaussian/g16/l502.exe)
 Keep R1 ints in memory in canonical form, NReq=374161138.
 FoFCou: FMM=F IPFlag=           0 FMFlag=           0 FMFlg1=           0
         NFxFlg=           0 DoJE=F BraDBF=F KetDBF=F FulRan=T
         wScrn=  0.000000 ICntrl=       600 IOpCl=  0 I1Cent=           0 NGrid=           0
         NMat0=    1 NMatS0=  27028 NMatT0=    0 NMatD0=    1 NMtDS0=    0 NMtDT0=    0
 Symmetry not used in FoFCou.
 Two-electron integral symmetry not used.
 Closed shell SCF:
 Using DIIS extrapolation, IDIIS=  1040.
 NGot=  1073741824 LenX=   708331944 LenY=   708263903
 Requested convergence on RMS density matrix=1.00D-08 within1000 cycles.
 Requested convergence on MAX density matrix=1.00D-06.
 Requested convergence on             energy=1.00D-06.
 No special actions if energy rises.
 Integral accuracy reduced to 1.0D-05 until final iterations.

 Cycle   1  Pass 0  IDiag  1:
 E= -157.269598941888    
 DIIS: error= 8.81D-03 at cycle   1 NSaved=   1.
 NSaved= 1 IEnMin= 1 EnMin= -157.269598941888     IErMin= 1 ErrMin= 8.81D-03
 ErrMax= 8.81D-03  0.00D+00 EMaxC= 1.00D-01 BMatC= 1.41D-02 BMatP= 1.41D-02
 IDIUse=3 WtCom= 9.12D-01 WtEn= 8.81D-02
 Coeff-Com:  0.100D+01
 Coeff-En:   0.100D+01
 Coeff:      0.100D+01
 Gap=     0.736 Goal=   None    Shift=    0.000
 GapD=    0.736 DampG=2.000 DampE=1.000 DampFc=2.0000 IDamp=-1.
 RMSDP=4.54D-04 MaxDP=1.72D-02              OVMax= 4.70D-02

 Cycle   2  Pass 0  IDiag  1:
 E= -157.287016919061     Delta-E=       -0.017417977173 Rises=F Damp=F
 DIIS: error= 1.10D-03 at cycle   2 NSaved=   2.
 NSaved= 2 IEnMin= 2 EnMin= -157.287016919061     IErMin= 2 ErrMin= 1.10D-03
 ErrMax= 1.10D-03  0.00D+00 EMaxC= 1.00D-01 BMatC= 1.71D-04 BMatP= 1.41D-02
 IDIUse=3 WtCom= 9.89D-01 WtEn= 1.10D-02
 Coeff-Com: -0.400D-01 0.104D+01
 Coeff-En:   0.000D+00 0.100D+01
 Coeff:     -0.395D-01 0.104D+01
 Gap=     0.258 Goal=   None    Shift=    0.000
 RMSDP=8.57D-05 MaxDP=1.82D-03 DE=-1.74D-02 OVMax= 6.85D-03

 Cycle   3  Pass 0  IDiag  1:
 E= -157.287168410970     Delta-E=       -0.000151491909 Rises=F Damp=F
 DIIS: error= 1.32D-03 at cycle   3 NSaved=   3.
 NSaved= 3 IEnMin= 3 EnMin= -157.287168410970     IErMin= 2 ErrMin= 1.10D-03
 ErrMax= 1.32D-03  0.00D+00 EMaxC= 1.00D-01 BMatC= 1.28D-04 BMatP= 1.71D-04
 IDIUse=3 WtCom= 9.87D-01 WtEn= 1.32D-02
 Coeff-Com: -0.290D-01 0.501D+00 0.528D+00
 Coeff-En:   0.000D+00 0.135D+00 0.865D+00
 Coeff:     -0.287D-01 0.496D+00 0.532D+00
 Gap=     0.259 Goal=   None    Shift=    0.000
 RMSDP=3.43D-05 MaxDP=1.07D-03 DE=-1.51D-04 OVMax= 2.73D-03

 Cycle   4  Pass 0  IDiag  1:
 E= -157.287293842238     Delta-E=       -0.000125431268 Rises=F Damp=F
 DIIS: error= 1.66D-04 at cycle   4 NSaved=   4.
 NSaved= 4 IEnMin= 4 EnMin= -157.287293842238     IErMin= 4 ErrMin= 1.66D-04
 ErrMax= 1.66D-04  0.00D+00 EMaxC= 1.00D-01 BMatC= 3.77D-06 BMatP= 1.28D-04
 IDIUse=3 WtCom= 9.98D-01 WtEn= 1.66D-03
 Coeff-Com: -0.620D-02 0.752D-01 0.168D+00 0.763D+00
 Coeff-En:   0.000D+00 0.000D+00 0.000D+00 0.100D+01
 Coeff:     -0.619D-02 0.751D-01 0.168D+00 0.763D+00
 Gap=     0.259 Goal=   None    Shift=    0.000
 RMSDP=7.41D-06 MaxDP=2.47D-04 DE=-1.25D-04 OVMax= 9.64D-04

 Initial convergence to 1.0D-05 achieved.  Increase integral accuracy.
 Cycle   5  Pass 1  IDiag  1:
 E= -157.287298500788     Delta-E=       -0.000004658550 Rises=F Damp=F
 DIIS: error= 1.02D-04 at cycle   1 NSaved=   1.
 NSaved= 1 IEnMin= 1 EnMin= -157.287298500788     IErMin= 1 ErrMin= 1.02D-04
 ErrMax= 1.02D-04  0.00D+00 EMaxC= 1.00D-01 BMatC= 1.39D-06 BMatP= 1.39D-06
 IDIUse=3 WtCom= 9.99D-01 WtEn= 1.02D-03
 Coeff-Com:  0.100D+01
 Coeff-En:   0.100D+01
 Coeff:      0.100D+01
 Gap=     0.259 Goal=   None    Shift=    0.000
 RMSDP=7.41D-06 MaxDP=2.47D-04 DE=-4.66D-06 OVMax= 1.78D-03

 Cycle   6  Pass 1  IDiag  1:
 E= -157.287294833163     Delta-E=        0.000003667625 Rises=F Damp=F
 DIIS: error= 1.77D-04 at cycle   2 NSaved=   2.
 NSaved= 2 IEnMin= 1 EnMin= -157.287298500788     IErMin= 1 ErrMin= 1.02D-04
 ErrMax= 1.77D-04  0.00D+00 EMaxC= 1.00D-01 BMatC= 5.02D-06 BMatP= 1.39D-06
 IDIUse=3 WtCom= 4.29D-01 WtEn= 5.71D-01
 Coeff-Com:  0.656D+00 0.344D+00
 Coeff-En:   0.740D+00 0.260D+00
 Coeff:      0.704D+00 0.296D+00
 Gap=     0.259 Goal=   None    Shift=    0.000
 RMSDP=4.64D-06 MaxDP=2.37D-04 DE= 3.67D-06 OVMax= 1.05D-03

 Cycle   7  Pass 1  IDiag  1:
 E= -157.287299796879     Delta-E=       -0.000004963716 Rises=F Damp=F
 DIIS: error= 2.51D-05 at cycle   3 NSaved=   3.
 NSaved= 3 IEnMin= 3 EnMin= -157.287299796879     IErMin= 3 ErrMin= 2.51D-05
 ErrMax= 2.51D-05  0.00D+00 EMaxC= 1.00D-01 BMatC= 8.34D-08 BMatP= 1.39D-06
 IDIUse=1 WtCom= 1.00D+00 WtEn= 0.00D+00
 Coeff-Com:  0.203D+00 0.518D-02 0.792D+00
 Coeff:      0.203D+00 0.518D-02 0.792D+00
 Gap=     0.259 Goal=   None    Shift=    0.000
 RMSDP=6.81D-07 MaxDP=3.29D-05 DE=-4.96D-06 OVMax= 1.45D-04

 Cycle   8  Pass 1  IDiag  1:
 E= -157.287299879079     Delta-E=       -0.000000082200 Rises=F Damp=F
 DIIS: error= 7.66D-07 at cycle   4 NSaved=   4.
 NSaved= 4 IEnMin= 4 EnMin= -157.287299879079     IErMin= 4 ErrMin= 7.66D-07
 ErrMax= 7.66D-07  0.00D+00 EMaxC= 1.00D-01 BMatC= 1.08D-10 BMatP= 8.34D-08
 IDIUse=1 WtCom= 1.00D+00 WtEn= 0.00D+00
 Coeff-Com:  0.165D-01-0.116D-01 0.160D+00 0.835D+00
 Coeff:      0.165D-01-0.116D-01 0.160D+00 0.835D+00
 Gap=     0.259 Goal=   None    Shift=    0.000
 RMSDP=6.12D-08 MaxDP=1.33D-06 DE=-8.22D-08 OVMax= 4.32D-06

 Cycle   9  Pass 1  IDiag  1:
 E= -157.287299879169     Delta-E=       -0.000000000090 Rises=F Damp=F
 DIIS: error= 4.57D-07 at cycle   5 NSaved=   5.
 NSaved= 5 IEnMin= 5 EnMin= -157.287299879169     IErMin= 5 ErrMin= 4.57D-07
 ErrMax= 4.57D-07  0.00D+00 EMaxC= 1.00D-01 BMatC= 4.07D-11 BMatP= 1.08D-10
 IDIUse=1 WtCom= 1.00D+00 WtEn= 0.00D+00
 Coeff-Com: -0.149D-01-0.596D-02-0.133D-01 0.410D+00 0.624D+00
 Coeff:     -0.149D-01-0.596D-02-0.133D-01 0.410D+00 0.624D+00
 Gap=     0.259 Goal=   None    Shift=    0.000
 RMSDP=2.22D-08 MaxDP=5.66D-07 DE=-8.96D-11 OVMax= 1.65D-06

 Cycle  10  Pass 1  IDiag  1:
 E= -157.287299879212     Delta-E=       -0.000000000043 Rises=F Damp=F
 DIIS: error= 5.36D-08 at cycle   6 NSaved=   6.
 NSaved= 6 IEnMin= 6 EnMin= -157.287299879212     IErMin= 6 ErrMin= 5.36D-08
 ErrMax= 5.36D-08  0.00D+00 EMaxC= 1.00D-01 BMatC= 7.53D-13 BMatP= 4.07D-11
 IDIUse=1 WtCom= 1.00D+00 WtEn= 0.00D+00
 Coeff-Com: -0.628D-02-0.202D-02-0.967D-02 0.136D+00 0.241D+00 0.641D+00
 Coeff:     -0.628D-02-0.202D-02-0.967D-02 0.136D+00 0.241D+00 0.641D+00
 Gap=     0.259 Goal=   None    Shift=    0.000
 RMSDP=3.04D-09 MaxDP=8.08D-08 DE=-4.30D-11 OVMax= 2.45D-07

 SCF Done:  E(RB3LYP) =  -157.287299879     A.U. after   10 cycles
            NFock= 10  Conv=0.30D-08     -V/T= 2.0073
 KE= 1.561470808685D+02 PE=-6.029247651882D+02 EE= 1.697625353414D+02
 Leave Link  502 at Thu Apr  7 20:20:32 2022, MaxMem=  1073741824 cpu:              67.4 elap:              14.1
 (Enter /home/saurabh/gaussian/g16/l701.exe)
 ... and contract with generalized density number  0.
 Compute integral first derivatives.
 Leave Link  701 at Thu Apr  7 20:20:32 2022, MaxMem=  1073741824 cpu:               1.2 elap:               0.2
 (Enter /home/saurabh/gaussian/g16/l702.exe)
 L702 exits ... SP integral derivatives will be done elsewhere.
 Leave Link  702 at Thu Apr  7 20:20:32 2022, MaxMem=  1073741824 cpu:               0.1 elap:               0.0
 (Enter /home/saurabh/gaussian/g16/l703.exe)
 Integral derivatives from FoFJK, PRISM(SPDF).
 Compute integral first derivatives, UseDBF=F ICtDFT=           0.
 Calling FoFJK, ICntrl=      2127 FMM=F ISym2X=0 I1Cent= 0 IOpClX= 0 NMat=1 NMatS=1 NMatT=0.
 FoFJK:  IHMeth= 1 ICntrl=    2127 DoSepK=F KAlg= 0 I1Cent=           0 FoldK=F
 IRaf=         0 NMat=       1 IRICut=       1 DoRegI=T DoRafI=F ISym2E= 0 IDoP0=0 IntGTp=1.
 FoFCou: FMM=F IPFlag=           0 FMFlag=      100000 FMFlg1=         800
         NFxFlg=           0 DoJE=F BraDBF=F KetDBF=F FulRan=T
         wScrn=  0.000000 ICntrl=      2127 IOpCl=  0 I1Cent=           0 NGrid=           0
         NMat0=    1 NMatS0=      1 NMatT0=    0 NMatD0=    1 NMtDS0=    0 NMtDT0=    0
 Symmetry not used in FoFCou.
 Leave Link  703 at Thu Apr  7 20:20:38 2022, MaxMem=  1073741824 cpu:              47.0 elap:               5.9
 (Enter /home/saurabh/gaussian/g16/l716.exe)
 Dipole        = 2.20768450D-02-2.17390915D-01 1.16073622D-02
 ***** Axes restored to original set *****
 -------------------------------------------------------------------
 Center     Atomic                   Forces (Hartrees/Bohr)
 Number     Number              X              Y              Z
 -------------------------------------------------------------------
      1        6           0.000526360   -0.000441514    0.000999816
      2        6           0.000185306   -0.000573532    0.000729558
      3        6          -0.000006759   -0.000337848   -0.000952484
      4        6           0.000380416    0.001593499   -0.000297512
      5        1           0.000143365    0.000582595   -0.000274337
      6        1          -0.000222136   -0.000008554    0.000261070
      7        1          -0.000417344    0.000018149   -0.000097677
      8        1          -0.000434629    0.000457300    0.000502295
      9        1           0.000814615   -0.000846770   -0.000183125
     10        1          -0.001015026   -0.000570389   -0.000557388
     11        1           0.000018747   -0.000032390   -0.000172321
     12        1           0.000027085    0.000159454    0.000042105
 -------------------------------------------------------------------
 Cartesian Forces:  Max     0.001593499 RMS     0.000544867
 Leave Link  716 at Thu Apr  7 20:20:38 2022, MaxMem=  1073741824 cpu:               0.2 elap:               0.0
 (Enter /home/saurabh/gaussian/g16/l103.exe)

 GradGradGradGradGradGradGradGradGradGradGradGradGradGradGradGradGradGrad
 Berny optimization.
 Using GEDIIS/GDIIS optimizer.
 FormGI is forming the generalized inverse of G from B-inverse, IUseBI=4.
 Internal  Forces:  Max     0.001029990 RMS     0.000407435
 Search for a local minimum.
 Step number   2 out of a maximum of  100
 All quantities printed in internal units (Hartrees-Bohrs-Radians)
 RMS Force = .40743D-03 SwitMx=.10000D-02 MixMth= 2
 Mixed Optimization -- En-DIIS/RFO-DIIS
 Update second derivatives using D2CorX and points    1    2
 DE= -3.24D-03 DEPred=-3.39D-03 R= 9.53D-01
 TightC=F SS=  1.41D+00  RLast= 7.65D-01 DXNew= 5.0454D-01 2.2941D+00
[...]
    D4        1.03003   0.00000   0.00000   0.00003   0.00003   1.03006
    D5        2.11149  -0.00000   0.00000   0.00004   0.00004   2.11153
    D6       -1.03009  -0.00000   0.00000   0.00003   0.00003  -1.03006
    D7        0.00001  -0.00000   0.00000  -0.00001  -0.00001  -0.00000
    D8        3.14158   0.00000   0.00000   0.00001   0.00001  -3.14159
    D9        3.14159  -0.00000   0.00000   0.00000   0.00000  -3.14159
   D10       -0.00002   0.00000   0.00000   0.00002   0.00002   0.00000
   D11       -1.03004   0.00000   0.00000  -0.00003  -0.00003  -1.03006
   D12       -3.14157   0.00000   0.00000  -0.00002  -0.00002   3.14159
   D13        1.03011  -0.00000   0.00000  -0.00004  -0.00004   1.03006
   D14        2.11156   0.00000   0.00000  -0.00004  -0.00004   2.11153
   D15        0.00003   0.00000   0.00000  -0.00003  -0.00003  -0.00000
   D16       -2.11148  -0.00000   0.00000  -0.00005  -0.00005  -2.11153
         Item               Value     Threshold  Converged?
 Maximum Force            0.000005     0.000450     YES
 RMS     Force            0.000002     0.000300     YES
 Maximum Displacement     0.000070     0.001800     YES
 RMS     Displacement     0.000027     0.001200     YES
 Predicted change in Energy=-2.939115D-10
 Optimization completed.
    -- Stationary point found.
                           ----------------------------
                           !   Optimized Parameters   !
                           ! (Angstroms and Degrees)  !
 --------------------------                            --------------------------
 ! Name  Definition              Value          Derivative Info.                !
 --------------------------------------------------------------------------------
 ! R1    R(1,2)                  1.5036         -DE/DX =    0.0                 !
 ! R2    R(1,5)                  1.089          -DE/DX =    0.0                 !
 ! R3    R(1,6)                  1.0938         -DE/DX =    0.0                 !
 ! R4    R(1,7)                  1.0938         -DE/DX =    0.0                 !
 ! R5    R(2,3)                  1.3302         -DE/DX =    0.0                 !
 ! R6    R(2,4)                  1.5036         -DE/DX =    0.0                 !
 ! R7    R(3,11)                 1.0825         -DE/DX =    0.0                 !
 ! R8    R(3,12)                 1.0825         -DE/DX =    0.0                 !
 ! R9    R(4,8)                  1.0938         -DE/DX =    0.0                 !
 ! R10   R(4,9)                  1.089          -DE/DX =    0.0                 !
 ! R11   R(4,10)                 1.0938         -DE/DX =    0.0                 !
 ! A1    A(2,1,5)              111.8509         -DE/DX =    0.0                 !
 ! A2    A(2,1,6)              110.8691         -DE/DX =    0.0                 !
 ! A3    A(2,1,7)              110.8688         -DE/DX =    0.0                 !
 ! A4    A(5,1,6)              108.2915         -DE/DX =    0.0                 !
 ! A5    A(5,1,7)              108.2918         -DE/DX =    0.0                 !
 ! A6    A(6,1,7)              106.4681         -DE/DX =    0.0                 !
 ! A7    A(1,2,3)              122.1756         -DE/DX =    0.0                 !
 ! A8    A(1,2,4)              115.6476         -DE/DX =    0.0                 !
 ! A9    A(3,2,4)              122.1767         -DE/DX =    0.0                 !
 ! A10   A(2,3,11)             121.586          -DE/DX =    0.0                 !
 ! A11   A(2,3,12)             121.5858         -DE/DX =    0.0                 !
 ! A12   A(11,3,12)            116.8282         -DE/DX =    0.0                 !
 ! A13   A(2,4,8)              110.871          -DE/DX =    0.0                 !
 ! A14   A(2,4,9)              111.8507         -DE/DX =    0.0                 !
 ! A15   A(2,4,10)             110.868          -DE/DX =    0.0                 !
 ! A16   A(8,4,9)              108.2907         -DE/DX =    0.0                 !
 ! A17   A(8,4,10)             106.4685         -DE/DX =    0.0                 !
 ! A18   A(9,4,10)             108.2911         -DE/DX =    0.0                 !
 ! D1    D(5,1,2,3)             -0.0023         -DE/DX =    0.0                 !
 ! D2    D(5,1,2,4)           -180.0019         -DE/DX =    0.0                 !
 ! D3    D(6,1,2,3)           -120.9841         -DE/DX =    0.0                 !
 ! D4    D(6,1,2,4)             59.0163         -DE/DX =    0.0                 !
 ! D5    D(7,1,2,3)            120.9796         -DE/DX =    0.0                 !
 ! D6    D(7,1,2,4)            -59.0199         -DE/DX =    0.0                 !
 ! D7    D(1,2,3,11)             0.0004         -DE/DX =    0.0                 !
 ! D8    D(1,2,3,12)          -180.0005         -DE/DX =    0.0                 !
 ! D9    D(4,2,3,11)          -180.0001         -DE/DX =    0.0                 !
 ! D10   D(4,2,3,12)            -0.001          -DE/DX =    0.0                 !
 ! D11   D(1,2,4,8)            -59.0168         -DE/DX =    0.0                 !
 ! D12   D(1,2,4,9)            180.0012         -DE/DX =    0.0                 !
 ! D13   D(1,2,4,10)            59.0207         -DE/DX =    0.0                 !
 ! D14   D(3,2,4,8)            120.9837         -DE/DX =    0.0                 !
 ! D15   D(3,2,4,9)              0.0016         -DE/DX =    0.0                 !
 ! D16   D(3,2,4,10)          -120.9788         -DE/DX =    0.0                 !
 --------------------------------------------------------------------------------
 GradGradGradGradGradGradGradGradGradGradGradGradGradGradGradGradGradGrad

 Leave Link  103 at Thu Apr  7 20:24:34 2022, MaxMem=  1073741824 cpu:               0.1 elap:               0.0
 (Enter /home/saurabh/gaussian/g16/l9999.exe)

 ----------------------------------------------------------------------

 Electric dipole moment (input orientation):
 (Debye = 10**-18 statcoulomb cm , SI units = C m)
                  (au)            (Debye)         (10**-30 SI)
   Tot        0.216549D+00      0.550413D+00      0.183598D+01
   x         -0.176330D+00     -0.448187D+00     -0.149499D+01
   y         -0.441179D-01     -0.112137D+00     -0.374047D+00
   z          0.117706D+00      0.299179D+00      0.997953D+00

 Dipole polarizability, Alpha (input orientation).
 (esu units = cm**3 , SI units = C**2 m**2 J**-1)
 Alpha(0;0):
               (au)            (10**-24 esu)      (10**-40 SI)
   iso        0.495743D+02      0.734615D+01      0.817370D+01
   aniso      0.220270D+02      0.326407D+01      0.363176D+01
   xx         0.550044D+02      0.815082D+01      0.906900D+01
   yx        -0.383766D+00     -0.568682D-01     -0.632744D-01
   yy         0.493222D+02      0.730879D+01      0.813213D+01
   zx        -0.102912D+02     -0.152500D+01     -0.169679D+01
   zy        -0.524334D+01     -0.776983D+00     -0.864510D+00
   zz         0.443963D+02      0.657885D+01      0.731996D+01

 ----------------------------------------------------------------------

 Dipole orientation:
     6         -3.60656651          4.47545922          4.16652067
     6         -2.51573019          2.33201522          2.65344146
     6         -2.51574169          2.33198071          0.13978934
     6         -1.42490813          0.18862111          4.16662214
     1         -4.36188323          5.95974321          2.95767794
     1         -2.17336895          5.31008951          5.40022540
     1         -5.12492167          3.80803484          5.40014466
     1          0.09337487          0.85603941          5.40034505
     1         -0.66948626         -1.29566424          2.95783817
     1         -2.85818444         -0.64603122          5.40022260
     1         -3.30607735          3.88493416         -0.93163987
     1         -1.72538944          0.77900701         -0.93159733

 Electric dipole moment (dipole orientation):
 (Debye = 10**-18 statcoulomb cm , SI units = C m)
                  (au)            (Debye)         (10**-30 SI)
   Tot        0.216549D+00      0.550413D+00      0.183598D+01
   x          0.000000D+00      0.000000D+00      0.000000D+00
   y          0.000000D+00      0.000000D+00      0.000000D+00
   z          0.216549D+00      0.550413D+00      0.183598D+01

 Dipole polarizability, Alpha (dipole orientation).
 (esu units = cm**3 , SI units = C**2 m**2 J**-1)
 Alpha(0;0):
               (au)            (10**-24 esu)      (10**-40 SI)
   iso        0.495743D+02      0.734615D+01      0.817370D+01
   aniso      0.220270D+02      0.326407D+01      0.363176D+01
   xx         0.393095D+02      0.582506D+01      0.648125D+01
   yx        -0.571830D+01     -0.847364D+00     -0.942820D+00
   yy         0.476353D+02      0.705882D+01      0.785400D+01
   zx         0.127515D-03      0.188958D-04      0.210244D-04
   zy         0.154572D-03      0.229052D-04      0.254855D-04
   zz         0.617782D+02      0.915458D+01      0.101858D+02

 ----------------------------------------------------------------------
 Unable to Open any file for archive entry.
 1\1\GINC-MEDIAWIKI\Freq\RB3LYP\CC-pVTZ\C4H8\SAURABH\07-Apr-2022\0\\#P 
 Geom=AllCheck Guess=TCheck SCRF=Check GenChk RB3LYP/CC-pVTZ Freq\\Mol_
 05\\0,1\C,-3.1385686996,2.0605508893,0.1268872188\C,-2.0353985284,1.05
 78755363,-0.0693771394\C,-0.9522782874,1.3288556149,-0.7924025204\C,-2
 .236237699,-0.2710348309,0.6048188666\H,-2.9301040643,2.9981621151,-0.
 3862612177\H,-3.2850017933,2.2758249903,1.1892852417\H,-4.0905125279,1
 .6702191866,-0.2444859223\H,-2.3474843406,-0.1467071774,1.6858579138\H
 ,-1.4029257021,-0.9480080549,0.4226161209\H,-3.1529781854,-0.752316331
 8,0.2520701946\H,-0.8175010174,2.289005083,-1.2737121356\H,-0.16371937
 01,0.5997120653,-0.9274388134\\Version=ES64L-G16RevC.01\State=1-A\HF=-
 157.2900056\RMSD=1.202e-09\RMSF=1.652e-06\ZeroPoint=0.1074524\Thermal=
 0.1127564\ETot=-157.1772492\HTot=-157.176305\GTot=-157.209844\Dipole=-
 0.1763305,-0.0441179,0.117706\DipoleDeriv=0.0265191,0.0750326,0.044734
 ,0.0495598,0.0077021,0.0375674,0.0554849,0.0232564,0.1215551,0.2320413
 ,-0.0566942,-0.2010884,-0.0566916,0.2227392,-0.1334095,-0.2010803,-0.1
 334076,0.0008362,-0.2228977,-0.1022495,-0.0164855,-0.1022518,-0.021834
 4,-0.0723539,-0.0164712,-0.0723503,-0.2892948,0.0655966,0.0039575,0.05
 27982,0.0294285,-0.0175568,0.0595383,0.042029,0.0738466,0.1077505,0.03
 60003,-0.0450135,0.0381408,0.0171627,-0.105644,0.0645671,0.0118796,0.0
 994986,0.0213448,0.0261616,0.0202262,0.01629,0.0571389,0.0492737,-0.02
 69442,0.0595706,-0.0506454,-0.1402227,-0.1312916,-0.0286179,-0.0251008
 ,-0.0584157,0.0146703,-0.0530469,-0.071388,-0.0253466,0.0518316,0.0697
 278,-0.0002758,0.0244649,-0.0228522,0.018076,-0.030809,0.051121,0.0199
 54,-0.1525884,-0.0567159,0.1253508,0.0182678,0.0631768,-0.0457091,0.01
 34036,0.0445324,-0.0215262,0.0541193,-0.0924028,-0.0972097,-0.0419653,
 -0.0817484,-0.0074331,0.0313887,-0.0656146,-0.0233756,0.0350438,0.0653
 656,0.0259094,0.0328598,-0.0178122,-0.0841205,0.1060885,0.0513258,0.08
 15211,0.0800574,-0.0181044,0.0795842,0.0570846,0.1233052,-0.0301635,0.
 0040098,0.0386109,0.0285751,0.1095673\Polar=55.0044272,-0.3837656,49.3
 221731,-10.2912081,-5.243342,44.3963024\Quadrupole=0.0764242,0.4753034
 ,-0.5517276,-0.3329787,-0.4604911,-0.433402\PG=C01 [X(C4H8)]\NImag=0\\
 0.50111683,0.04030631,0.53931368,-0.00502147,-0.02975281,0.53787237,-0
 .14347698,0.06110025,0.01220656,0.65624358,0.05687184,-0.14091050,-0.0
 0445591,0.00462722,0.48113015,0.01399224,-0.00683105,-0.08079043,-0.26
 306929,-0.12494280,0.39208739,-0.02647816,0.00181756,0.01894638,-0.379
 67698,-0.06181783,0.20882894,0.65692915,0.02191761,0.00633165,-0.01135
 218,-0.06181831,-0.12043642,0.06259625,-0.05391245,0.58723847,0.010455
 45,-0.00005889,0.00276032,0.20882893,0.06259597,-0.19825000,-0.2879106
 9,-0.17385773,0.33916528,0.00425561,0.02336052,-0.01060275,-0.08555847
 ,-0.00648337,0.00821367,-0.00252381,-0.02613288,0.01729401,0.56320999,
 0.00121293,-0.02488144,0.01107374,-0.01071077,-0.17834541,0.04932839,-
 0.00603313,-0.00915248,0.01089235,-0.03215988,0.49915585,-0.00124710,-
 0.00136963,0.00422636,0.00999936,0.04695319,-0.10126720,0.00880341,0.0
 2218592,-0.00570837,-0.00929769,0.02791581,0.51591976,-0.05874604,-0.0
 4770147,0.02661205,0.00535408,0.02138180,-0.01287839,0.00092784,0.0005
 9251,-0.00108741,-0.00346498,0.00271159,0.00136484,0.06206101,-0.04472
 249,-0.24030809,0.10667364,-0.00581402,-0.01970934,0.01096073,-0.00183
 411,0.00122697,0.00027485,0.00439000,-0.00130114,-0.00149313,0.0479660
 3,0.26199755,0.02535382,0.10834716,-0.10724936,-0.00139150,-0.00431812
 ,0.00111227,-0.00006228,-0.00108863,-0.00006722,0.00065588,-0.00055011
 ,0.00086687,-0.02967200,-0.11847383,0.11201988,-0.04565427,0.00605448,
 0.03087414,-0.00662323,0.00560016,0.02707607,-0.00142674,0.00292334,-0
 .00057836,0.00046327,-0.00114847,0.00012463,-0.00175732,0.00158233,0.0
 0654555,0.05241099,0.00662637,-0.05756614,-0.04634027,0.00243488,-0.00
 382128,-0.02204749,0.00127140,-0.00196180,0.00057730,-0.00030098,0.000
 94584,-0.00039583,-0.00276196,0.00672323,0.02700852,-0.00946967,0.0580
 0511,0.02931062,-0.04490158,-0.28528614,0.00426869,-0.00095533,-0.0032
 5797,-0.00051751,-0.00131533,0.00075152,-0.00012587,0.00043384,0.00029
 765,0.00103444,-0.00278948,-0.01354804,-0.03436703,0.05239958,0.312360
 39,-0.23265781,-0.08138964,-0.07710379,-0.02502014,-0.00777298,-0.0055
 4482,-0.00071833,0.00339062,-0.00086901,0.00069374,-0.00111240,0.00039
 389,-0.00486000,-0.00208966,-0.00163194,0.00351453,0.00111130,0.000422
 32,0.25836903,-0.07922918,-0.08215438,-0.03008895,0.01991350,0.0096634
 4,0.00915613,0.00137344,-0.00193360,-0.00040692,-0.00006008,0.00102370
 ,-0.00007290,-0.02285498,-0.00939012,-0.01075218,-0.00534479,-0.002947
 05,-0.00218199,0.08649701,0.08588895,-0.07669400,-0.02999311,-0.073694
 45,0.00690485,0.00184052,0.00165390,0.00062003,-0.00057579,0.00001537,
 -0.00015809,0.00016508,-0.00001085,0.01448510,0.00493896,0.00566816,-0
 .02837026,-0.01233735,-0.01203277,0.08324272,0.03602221,0.07851868,-0.
 00004403,0.00024490,-0.00031569,-0.00261057,-0.00161205,0.00709264,0.0
 0059876,-0.00090605,0.00025098,-0.04686910,0.00695012,0.02406252,-0.00
 011449,-0.00006112,0.00003212,0.00029430,0.00014638,-0.00006472,0.0000
 6916,0.00003307,-0.00020972,0.04795841,-0.00051865,0.00129487,-0.00006
 747,-0.00370768,0.00389343,0.03182581,0.00039863,-0.00333516,0.0007441
 6,0.00607226,-0.05034133,-0.03068885,-0.00028113,0.00023240,-0.0003349
 1,0.00034283,-0.00037932,-0.00044556,0.00001053,-0.00010708,-0.0000803
 9,-0.00299578,0.05427967,0.00034472,-0.00073837,0.00045585,0.00423540,
 0.00080199,-0.01498350,-0.00150527,0.00198051,0.00009937,0.02413330,-0
 .03270552,-0.29129479,0.00012549,0.00011312,0.00044808,-0.00050953,0.0
 0059984,0.00042876,-0.00007184,-0.00006094,-0.00006881,-0.02782747,0.0
 3283071,0.32053570,0.00095263,-0.00076489,0.00035138,0.00312488,-0.003
 21258,-0.00123754,0.00061768,-0.00147190,-0.00004105,-0.20488869,0.125
 81092,0.03542422,0.00035909,-0.00000891,0.00012982,-0.00012115,-0.0000
 3704,0.00011230,0.00034711,-0.00021659,0.00014393,-0.00181235,0.000390
 32,0.00042075,0.22031670,-0.00244327,-0.00415699,0.00355233,0.02398316
 ,-0.01826811,-0.00638824,0.00095443,0.00142760,-0.00137677,0.12283238,
 -0.14582566,-0.02736525,0.00137443,-0.00115500,-0.00003782,-0.00033331
 ,0.00034932,-0.00000600,0.00006934,0.00025232,0.00010776,0.00221457,-0
 .00268877,-0.00094370,-0.13670192,0.15968449,0.00106041,0.00260927,-0.
 00069503,-0.01272512,0.00889031,0.00190037,-0.00106595,-0.00001338,0.0
 0004251,0.03668255,-0.02903877,-0.05558399,-0.00045450,0.00073934,0.00
 052656,-0.00016631,0.00029803,0.00033788,0.00042694,-0.00020216,-0.000
 03341,0.02500470,-0.01909470,-0.00408158,-0.04057718,0.02848695,0.0560
 7286,0.00021889,0.00054012,0.00009935,-0.00510187,-0.00396479,0.002431
 04,0.00120824,-0.00106072,-0.00042084,-0.22392963,-0.08831437,-0.07196
 297,0.00018005,-0.00000532,0.00023517,0.00005385,0.00007131,-0.0001092
 6,0.00049885,-0.00020502,-0.00012107,0.00249614,0.00169977,0.00026765,
 -0.01949148,-0.01069452,-0.00847293,0.24371986,-0.00059620,0.00130968,
 -0.00024571,-0.02639057,-0.01352220,-0.00871796,0.00130394,-0.00311496
 ,0.00103492,-0.09016880,-0.09423483,-0.03723458,0.00020435,0.00047290,
 0.00028771,0.00000032,-0.00007736,-0.00000251,0.00089922,-0.00034088,0
 .00022869,-0.00355519,-0.00228853,-0.00222810,0.01623936,0.00951596,0.
 00760640,0.10230649,0.10196170,0.00024153,-0.00064221,0.00017806,0.015
 64597,0.00852998,0.00492068,-0.00021458,0.00185980,-0.00072983,-0.0708
 7968,-0.03675253,-0.07034014,0.00014617,-0.00016619,-0.00008693,-0.000
 20764,-0.00007450,-0.00008323,-0.00022562,-0.00008594,0.00018568,-0.02
 807424,-0.01418380,-0.01167258,0.00550497,0.00356183,0.00139320,0.0780
 1846,0.03785913,0.07709361,-0.00058637,-0.00308059,-0.00284644,-0.0003
 3795,-0.02373043,0.01231926,-0.05501091,-0.02084771,0.02127685,-0.0003
 7933,0.00253726,0.00635350,-0.00018145,0.00072632,0.00001024,0.0005765
 3,-0.00002641,-0.00029047,-0.00043037,0.00030886,0.00027326,-0.0005152
 1,-0.00164859,0.00076156,0.00016267,-0.00019305,-0.00013314,0.00021800
 ,0.00021357,-0.00033823,0.05181992,-0.00023663,-0.00017372,-0.00315977
 ,0.00146849,-0.00500147,0.00287034,-0.02537382,-0.27321423,0.11580550,
 0.00123845,0.00285758,0.00351949,-0.00034533,0.00080719,0.00001475,0.0
 0048208,0.00006405,-0.00022952,-0.00031377,0.00028695,0.00012521,-0.00
 064416,-0.00089281,0.00055696,-0.00003625,0.00045480,-0.00026447,-0.00
 008278,0.00051477,-0.00025189,0.02777303,0.28713837,-0.00404779,-0.001
 56174,-0.00503460,0.00167484,0.01702851,-0.00438743,0.02318872,0.11326
 201,-0.09368795,0.00690194,0.00278965,0.00777985,0.00046287,-0.0005874
 5,0.00037084,0.00097311,-0.00033628,-0.00020115,-0.00094221,0.00016784
 ,0.00058278,-0.00053875,-0.00126675,0.00057567,-0.00019937,-0.00017642
 ,-0.00003297,0.00066321,0.00196990,-0.00156501,-0.02800818,-0.12724466
 ,0.09233761,0.00109970,-0.00048754,0.00680028,-0.01631636,0.02011301,0
 .00277618,-0.19444675,0.13732594,0.03280114,-0.00100859,0.00025620,-0.
 00401861,0.00024220,-0.00012906,-0.00020488,-0.00173077,0.00093443,0.0
 0032649,0.00019424,-0.00021525,-0.00011676,0.00054899,0.00023749,-0.00
 037475,0.00043291,-0.00106225,0.00042054,-0.00007090,-0.00045650,0.000
 38289,0.00466448,-0.00392932,-0.00012840,0.20639087,0.00081136,0.00190
 136,0.00416338,-0.00508615,0.00532769,0.00218988,0.14185194,-0.1830760
 6,-0.01622473,-0.00258762,0.00009932,-0.00195424,-0.00028585,0.0004034
 6,-0.00010253,-0.00068930,0.00066540,-0.00000612,0.00070044,-0.0002422
 6,-0.00044178,0.00018530,0.00033264,-0.00020649,0.00000947,0.00041004,
 -0.00001682,-0.00029020,-0.00019627,0.00034632,0.01796775,-0.01284148,
 -0.00404461,-0.15258714,0.18721616,0.00625157,0.00489296,0.00725705,0.
 01342131,-0.01196830,0.00126190,0.03088879,-0.01368143,-0.04439099,-0.
 00281727,-0.00355195,-0.00488514,-0.00013866,-0.00019056,-0.00006112,-
 0.00139436,0.00064845,0.00023310,0.00190336,-0.00149419,-0.00078426,0.
 00058764,0.00076174,-0.00044218,-0.00003223,0.00058533,0.00015360,-0.0
 0062783,-0.00055788,0.00070650,-0.00937821,0.00825808,0.00326236,-0.03
 866412,0.01629776,0.03768918\\0.00000107,-0.00000270,0.00000020,0.0000
 0240,0.00000031,-0.00000461,-0.00000186,0.00000138,-0.00000096,-0.0000
 0384,0.00000417,0.00000287,0.00000080,-0.00000014,0.00000018,-0.000000
 14,-0.00000022,0.00000029,0.00000050,-0.00000067,0.00000024,0.00000025
 ,-0.00000241,0.00000214,0.00000112,-0.00000055,0.00000012,-0.00000032,
 0.00000046,-0.00000124,0.00000025,0.00000026,0.00000020,-0.00000024,0.
 00000011,0.00000057\\\@
 The archive entry for this job was punched.


 The hours that make us happy make us wise.
                         -- John Masefield
 Job cpu time:       0 days  0 hours 15 minutes 26.3 seconds.
 Elapsed time:       0 days  0 hours  1 minutes 56.8 seconds.
 File lengths (MBytes):  RWF=     51 Int=      0 D2E=      0 Chk=      5 Scr=      1
 Normal termination of Gaussian 16 at Thu Apr  7 20:24:34 2022.
