 Entering Gaussian System, Link 0=g16
 Initial command:
 /apps/chpc/chem/gaussian16/B01/g16/l1.exe "/mnt/lustre/users/cvanstaden/4097911.sched01/Gau-72045.inp" -scrdir="/mnt/lustre/users/cvanstaden/4097911.sched01/"
 Entering Link 1 = /apps/chpc/chem/gaussian16/B01/g16/l1.exe PID=     72047.
  
 Copyright (c) 1988-2017, Gaussian, Inc.  All Rights Reserved.
  
 This is part of the Gaussian(R) 16 program.  It is based on
 the Gaussian(R) 09 system (copyright 2009, Gaussian, Inc.),
 the Gaussian(R) 03 system (copyright 2003, Gaussian, Inc.),
 the Gaussian(R) 98 system (copyright 1998, Gaussian, Inc.),
 the Gaussian(R) 94 system (copyright 1995, Gaussian, Inc.),
 the Gaussian 92(TM) system (copyright 1992, Gaussian, Inc.),
 the Gaussian 90(TM) system (copyright 1990, Gaussian, Inc.),
 the Gaussian 88(TM) system (copyright 1988, Gaussian, Inc.),
 the Gaussian 86(TM) system (copyright 1986, Carnegie Mellon
 University), and the Gaussian 82(TM) system (copyright 1983,
 Carnegie Mellon University). Gaussian is a federally registered
 trademark of Gaussian, Inc.
  
 This software contains proprietary and confidential information,
 including trade secrets, belonging to Gaussian, Inc.
  
 This software is provided under written license and may be
 used, copied, transmitted, or stored only in accord with that
 written license.
  
 The following legend is applicable only to US Government
 contracts under FAR:
  
                    RESTRICTED RIGHTS LEGEND
  
 Use, reproduction and disclosure by the US Government is
 subject to restrictions as set forth in subparagraphs (a)
 and (c) of the Commercial Computer Software - Restricted
 Rights clause in FAR 52.227-19.
  
 Gaussian, Inc.
 340 Quinnipiac St., Bldg. 40, Wallingford CT 06492
  
  
 ---------------------------------------------------------------
 Warning -- This program may not be used in any manner that
 competes with the business of Gaussian, Inc. or will provide
 assistance to any competitor of Gaussian, Inc.  The licensee
 of this program is prohibited from giving any competitor of
 Gaussian, Inc. access to this program.  By using this program,
 the user acknowledges that Gaussian, Inc. is engaged in the
 business of creating and licensing software in the field of
 computational chemistry and represents and warrants to the
 licensee that it is not a competitor of Gaussian, Inc. and that
 it will not use this program in any manner prohibited above.
 ---------------------------------------------------------------
  

 Cite this work as:
 Gaussian 16, Revision B.01,
 M. J. Frisch, G. W. Trucks, H. B. Schlegel, G. E. Scuseria, 
 M. A. Robb, J. R. Cheeseman, G. Scalmani, V. Barone, 
 G. A. Petersson, H. Nakatsuji, X. Li, M. Caricato, A. V. Marenich, 
 J. Bloino, B. G. Janesko, R. Gomperts, B. Mennucci, H. P. Hratchian, 
 J. V. Ortiz, A. F. Izmaylov, J. L. Sonnenberg, D. Williams-Young, 
 F. Ding, F. Lipparini, F. Egidi, J. Goings, B. Peng, A. Petrone, 
 T. Henderson, D. Ranasinghe, V. G. Zakrzewski, J. Gao, N. Rega, 
 G. Zheng, W. Liang, M. Hada, M. Ehara, K. Toyota, R. Fukuda, 
 J. Hasegawa, M. Ishida, T. Nakajima, Y. Honda, O. Kitao, H. Nakai, 
 T. Vreven, K. Throssell, J. A. Montgomery, Jr., J. E. Peralta, 
 F. Ogliaro, M. J. Bearpark, J. J. Heyd, E. N. Brothers, K. N. Kudin, 
 V. N. Staroverov, T. A. Keith, R. Kobayashi, J. Normand, 
 K. Raghavachari, A. P. Rendell, J. C. Burant, S. S. Iyengar, 
 J. Tomasi, M. Cossi, J. M. Millam, M. Klene, C. Adamo, R. Cammi, 
 J. W. Ochterski, R. L. Martin, K. Morokuma, O. Farkas, 
 J. B. Foresman, and D. J. Fox, Gaussian, Inc., Wallingford CT, 2016.
 
 ******************************************
 Gaussian 16:  ES64L-G16RevB.01 20-Dec-2017
                29-Mar-2022 
 ******************************************
 %nprocshared=24
 Will use up to   24 processors via shared memory.
 %lindaworkers=cnode1163.cm.cluster,cnode1164.cm.cluster
 %mem=20GB
 %chk=RtertbO2-OOH-elim-concerted-TS2-b3lyp-c-A.chk
 SetLPE:    new flags="-opt 'Tsnet.Node.lindarsharg: ssh'  -nodelist 'cnode1163.cm.cluster cnode1164.cm.cluster' -env GAUSS_MDEF=2684354560 -env GAUSS_EXEDIR="/apps/chpc/chem/gaussian16/B01/g16/bsd:/apps/chpc/chem/gaussian16/B01/g16""
 Will use up to    2 processors via Linda.
 ---------------------------------------------------
 # opt=(calcfc,ts,noeigentest) freq ub3lyp cc-pvtz+d
 ---------------------------------------------------
 1/5=1,10=4,11=1,18=20,26=3,38=1/1,3;
 2/9=110,12=2,17=6,18=5,40=1/2;
 3/5=16,6=1,7=9,11=2,25=1,30=1,71=2,74=-5,116=2,140=1/1,2,3;
 4//1;
 5/5=2,38=5/2;
 8/6=4,10=90,11=11/1;
 11/6=1,8=1,9=11,15=111,16=1/1,2,10;
 10/6=1,13=1/2;
 6/7=2,8=2,9=2,10=2,28=1/1;
 7/10=1,18=20,25=1/1,2,3,16;
 1/5=1,10=4,11=1,18=20,26=3/3(2);
 2/9=110/2;
 99//99;
 2/9=110/2;
 3/5=16,6=1,7=9,11=2,25=1,30=1,71=1,74=-5,116=2/1,2,3;
 4/5=5,16=3,69=1/1;
 5/5=2,38=5/2;
 7//1,2,3,16;
 1/5=1,11=1,18=20,26=3/3(-5);
 2/9=110/2;
 6/7=2,8=2,9=2,10=2,19=2,28=1/1;
 99/9=1/99;
 -----------------------------------------
 RtertbO2-OOH-elim-concerted-TS2-b3lyp-c-A
 -----------------------------------------
 Symbolic Z-matrix:
 Charge =  0 Multiplicity = 2
 C                    -0.80364   0.00144   0.23385 
 C                    -0.18882   0.00962   1.4608 
 H                     1.15428   0.00661   0.95966 
 H                    -0.14614   0.93306   2.0285 
 H                    -0.1455   -0.90631   2.04049 
 C                    -1.23143  -1.27705  -0.41634 
 H                    -2.3175   -1.38705  -0.3209 
 H                    -0.9992   -1.27731  -1.48083 
 H                    -0.76424  -2.14471   0.04585 
 C                    -1.23259   1.271    -0.43283 
 H                    -0.7666    2.14506   0.01838 
 H                    -0.99987   1.25782  -1.49714 
 H                    -2.31883   1.38103  -0.33933 
 O                     1.4135   -0.00616  -0.95591 
 O                     2.09181   0.00138   0.13997 
 
 Add virtual bond connecting atoms O15        and H3         Dist= 2.35D+00.
 Add virtual bond connecting atoms H3         and C2         Dist= 2.71D+00.

 GradGradGradGradGradGradGradGradGradGradGradGradGradGradGradGradGradGrad
 Berny optimization.
 Initialization pass.
                           ----------------------------
                           !    Initial Parameters    !
                           ! (Angstroms and Degrees)  !
 --------------------------                            --------------------------
 ! Name  Definition              Value          Derivative Info.                !
 --------------------------------------------------------------------------------
 ! R1    R(1,2)                  1.3724         calculate D2E/DX2 analytically  !
 ! R2    R(1,6)                  1.4968         calculate D2E/DX2 analytically  !
 ! R3    R(1,10)                 1.4967         calculate D2E/DX2 analytically  !
 ! R4    R(2,3)                  1.4336         calculate D2E/DX2 analytically  !
 ! R5    R(2,4)                  1.0848         calculate D2E/DX2 analytically  !
 ! R6    R(2,5)                  1.0848         calculate D2E/DX2 analytically  !
 ! R7    R(3,15)                 1.2453         calculate D2E/DX2 analytically  !
 ! R8    R(6,7)                  1.0958         calculate D2E/DX2 analytically  !
 ! R9    R(6,8)                  1.0895         calculate D2E/DX2 analytically  !
 ! R10   R(6,9)                  1.0884         calculate D2E/DX2 analytically  !
 ! R11   R(10,11)                1.0884         calculate D2E/DX2 analytically  !
 ! R12   R(10,12)                1.0895         calculate D2E/DX2 analytically  !
 ! R13   R(10,13)                1.0958         calculate D2E/DX2 analytically  !
 ! R14   R(14,15)                1.2888         calculate D2E/DX2 analytically  !
 ! A1    A(2,1,6)              121.4327         calculate D2E/DX2 analytically  !
 ! A2    A(2,1,10)             121.4358         calculate D2E/DX2 analytically  !
 ! A3    A(6,1,10)             116.6874         calculate D2E/DX2 analytically  !
 ! A4    A(1,2,3)               96.1532         calculate D2E/DX2 analytically  !
 ! A5    A(1,2,4)              119.3771         calculate D2E/DX2 analytically  !
 ! A6    A(1,2,5)              119.3791         calculate D2E/DX2 analytically  !
 ! A7    A(3,2,4)               98.5031         calculate D2E/DX2 analytically  !
 ! A8    A(3,2,5)               98.4887         calculate D2E/DX2 analytically  !
 ! A9    A(4,2,5)              115.9439         calculate D2E/DX2 analytically  !
 ! A10   A(2,3,15)             159.2976         calculate D2E/DX2 analytically  !
 ! A11   A(1,6,7)              109.3406         calculate D2E/DX2 analytically  !
 ! A12   A(1,6,8)              111.3273         calculate D2E/DX2 analytically  !
 ! A13   A(1,6,9)              111.9484         calculate D2E/DX2 analytically  !
 ! A14   A(7,6,8)              107.2375         calculate D2E/DX2 analytically  !
 ! A15   A(7,6,9)              107.9637         calculate D2E/DX2 analytically  !
 ! A16   A(8,6,9)              108.8562         calculate D2E/DX2 analytically  !
 ! A17   A(1,10,11)            111.9507         calculate D2E/DX2 analytically  !
 ! A18   A(1,10,12)            111.3233         calculate D2E/DX2 analytically  !
 ! A19   A(1,10,13)            109.3447         calculate D2E/DX2 analytically  !
 ! A20   A(11,10,12)           108.8573         calculate D2E/DX2 analytically  !
 ! A21   A(11,10,13)           107.9619         calculate D2E/DX2 analytically  !
 ! A22   A(12,10,13)           107.2358         calculate D2E/DX2 analytically  !
 ! A23   A(3,15,14)             99.4091         calculate D2E/DX2 analytically  !
 ! D1    D(6,1,2,3)             93.9359         calculate D2E/DX2 analytically  !
 ! D2    D(6,1,2,4)           -162.6872         calculate D2E/DX2 analytically  !
 ! D3    D(6,1,2,5)             -9.4247         calculate D2E/DX2 analytically  !
 ! D4    D(10,1,2,3)           -93.9661         calculate D2E/DX2 analytically  !
 ! D5    D(10,1,2,4)             9.4108         calculate D2E/DX2 analytically  !
 ! D6    D(10,1,2,5)           162.6733         calculate D2E/DX2 analytically  !
 ! D7    D(2,1,6,7)            103.9464         calculate D2E/DX2 analytically  !
 ! D8    D(2,1,6,8)           -137.7474         calculate D2E/DX2 analytically  !
 ! D9    D(2,1,6,9)            -15.6471         calculate D2E/DX2 analytically  !
 ! D10   D(10,1,6,7)           -68.5097         calculate D2E/DX2 analytically  !
 ! D11   D(10,1,6,8)            49.7966         calculate D2E/DX2 analytically  !
 ! D12   D(10,1,6,9)           171.8968         calculate D2E/DX2 analytically  !
 ! D13   D(2,1,10,11)           15.6187         calculate D2E/DX2 analytically  !
 ! D14   D(2,1,10,12)          137.7191         calculate D2E/DX2 analytically  !
 ! D15   D(2,1,10,13)         -103.9767         calculate D2E/DX2 analytically  !
 ! D16   D(6,1,10,11)         -171.9255         calculate D2E/DX2 analytically  !
 ! D17   D(6,1,10,12)          -49.8251         calculate D2E/DX2 analytically  !
 ! D18   D(6,1,10,13)           68.4791         calculate D2E/DX2 analytically  !
 ! D19   D(1,2,3,15)            -0.0062         calculate D2E/DX2 analytically  !
 ! D20   D(4,2,3,15)          -121.0036         calculate D2E/DX2 analytically  !
 ! D21   D(5,2,3,15)           120.9902         calculate D2E/DX2 analytically  !
 ! D22   D(2,3,15,14)           -0.0027         calculate D2E/DX2 analytically  !
 --------------------------------------------------------------------------------
 Trust Radius=3.00D-01 FncErr=1.00D-07 GrdErr=1.00D-06 EigMax=2.50D+02 EigMin=1.00D-04
 Number of steps in this run=     69 maximum allowed number of steps=    100.
 Search for a saddle point of order  1.
 GradGradGradGradGradGradGradGradGradGradGradGradGradGradGradGradGradGrad

                          Input orientation:                          
 ---------------------------------------------------------------------
 Center     Atomic      Atomic             Coordinates (Angstroms)
 Number     Number       Type             X           Y           Z
 ---------------------------------------------------------------------
      1          6           0       -0.803643    0.001436    0.233848
      2          6           0       -0.188818    0.009622    1.460796
      3          1           0        1.154283    0.006611    0.959661
      4          1           0       -0.146135    0.933059    2.028499
      5          1           0       -0.145498   -0.906307    2.040490
      6          6           0       -1.231431   -1.277050   -0.416341
      7          1           0       -2.317502   -1.387047   -0.320901
      8          1           0       -0.999195   -1.277306   -1.480833
      9          1           0       -0.764243   -2.144709    0.045845
     10          6           0       -1.232590    1.270999   -0.432833
     11          1           0       -0.766602    2.145063    0.018375
     12          1           0       -0.999866    1.257817   -1.497136
     13          1           0       -2.318829    1.381027   -0.339332
     14          8           0        1.413504   -0.006158   -0.955909
     15          8           0        2.091806    0.001376    0.139973
 ---------------------------------------------------------------------
                    Distance matrix (angstroms):
                    1          2          3          4          5
     1  C    0.000000
     2  C    1.372399   0.000000
     3  H    2.088134   1.433550   0.000000
     4  H    2.126267   1.084825   1.921408   0.000000
     5  H    2.126290   1.084826   1.921208   1.839405   0.000000
     6  C    1.496755   2.503240   3.038552   3.469826   2.711590
     7  H    2.127769   3.107479   3.954164   3.951886   3.244207
     8  H    2.147918   3.311507   3.498846   4.234246   3.642273
     9  H    2.154724   2.640898   3.023901   3.712901   2.427981
    10  C    1.496746   2.503270   3.038894   2.711594   3.469835
    11  H    2.154748   2.640932   3.024698   2.427866   3.712893
    12  H    2.147860   3.311367   3.498818   3.642036   4.234168
    13  H    2.127815   3.107758   3.954606   3.244672   3.952065
    14  O    2.516211   2.899681   1.933072   3.495897   3.495592
    15  O    2.896970   2.635505   1.245337   3.072937   3.072683
                    6          7          8          9         10
     6  C    0.000000
     7  H    1.095791   0.000000
     8  H    1.089531   1.759380   0.000000
     9  H    1.088445   1.766683   1.771535   0.000000
    10  C    2.548103   2.873112   2.765255   3.480739   0.000000
    11  H    3.480790   3.872493   3.743572   4.289861   1.088449
    12  H    2.765374   3.180409   2.535176   3.743460   1.089530
    13  H    2.872932   2.768136   3.179810   3.872456   1.095794
    14  O    2.983619   4.028709   2.777135   3.212397   2.984385
    15  O    3.603854   4.645656   3.717032   3.573731   3.604394
                   11         12         13         14         15
    11  H    0.000000
    12  H    1.771550   0.000000
    13  H    1.766667   1.759362   0.000000
    14  O    3.214007   2.777573   4.029238   0.000000
    15  O    3.575007   3.717150   4.646167   1.288840   0.000000
 Stoichiometry    C4H9O2(2)
 Framework group  C1[X(C4H9O2)]
 Deg. of freedom    39
 Full point group                 C1      NOp   1
 Largest Abelian subgroup         C1      NOp   1
 Largest concise Abelian subgroup C1      NOp   1
                         Standard orientation:                         
 ---------------------------------------------------------------------
 Center     Atomic      Atomic             Coordinates (Angstroms)
 Number     Number       Type             X           Y           Z
 ---------------------------------------------------------------------
      1          6           0        0.803643   -0.001436    0.233848
      2          6           0        0.188818   -0.009622    1.460796
      3          1           0       -1.154283   -0.006611    0.959661
      4          1           0        0.146135   -0.933059    2.028499
      5          1           0        0.145498    0.906307    2.040490
      6          6           0        1.231431    1.277050   -0.416341
      7          1           0        2.317502    1.387047   -0.320901
      8          1           0        0.999195    1.277306   -1.480833
      9          1           0        0.764243    2.144709    0.045845
     10          6           0        1.232590   -1.270999   -0.432833
     11          1           0        0.766602   -2.145063    0.018375
     12          1           0        0.999866   -1.257817   -1.497136
     13          1           0        2.318829   -1.381027   -0.339332
     14          8           0       -1.413504    0.006158   -0.955909
     15          8           0       -2.091806   -0.001376    0.139973
 ---------------------------------------------------------------------
 Rotational constants (GHZ):           4.3466467           2.3114697           2.2884623
 Standard basis: CC-pVTZ+d (5D, 7F)
 There are   345 symmetry adapted cartesian basis functions of A   symmetry.
 There are   306 symmetry adapted basis functions of A   symmetry.
   306 basis functions,   465 primitive gaussians,   345 cartesian basis functions
    25 alpha electrons       24 beta electrons
       nuclear repulsion energy       246.4149665739 Hartrees.
 NAtoms=   15 NActive=   15 NUniq=   15 SFac= 1.00D+00 NAtFMM=   60 NAOKFM=F Big=F
 Integral buffers will be    131072 words long.
 Raffenetti 2 integral format.
 Two-electron integral symmetry is turned on.
 One-electron integrals computed using PRISM.
 NBasis=   306 RedAO= T EigKep=  3.07D-04  NBF=   306
 NBsUse=   306 1.00D-06 EigRej= -1.00D+00 NBFU=   306
 ExpMin= 1.03D-01 ExpMax= 1.53D+04 ExpMxC= 5.22D+02 IAcc=3 IRadAn=         5 AccDes= 0.00D+00
 Harris functional with IExCor=  402 and IRadAn=       5 diagonalized for initial guess.
 HarFok:  IExCor=  402 AccDes= 0.00D+00 IRadAn=         5 IDoV= 1 UseB2=F ITyADJ=14
 ICtDFT=  3500011 ScaDFX=  1.000000  1.000000  1.000000  1.000000
 FoFCou: FMM=F IPFlag=           0 FMFlag=      100000 FMFlg1=           0
         NFxFlg=           0 DoJE=T BraDBF=F KetDBF=T FulRan=T
         wScrn=  0.000000 ICntrl=       500 IOpCl=  0 I1Cent=   200000004 NGrid=           0
         NMat0=    1 NMatS0=      1 NMatT0=    0 NMatD0=    1 NMtDS0=    0 NMtDT0=    0
 Petite list used in FoFCou.
 Initial guess <Sx>= 0.0000 <Sy>= 0.0000 <Sz>= 0.5000 <S**2>= 0.7500 S= 0.5000
 Requested convergence on RMS density matrix=1.00D-08 within 128 cycles.
 Requested convergence on MAX density matrix=1.00D-06.
 Requested convergence on             energy=1.00D-06.
 No special actions if energy rises.
 Integral accuracy reduced to 1.0D-05 until final iterations.
 Initial convergence to 1.0D-05 achieved.  Increase integral accuracy.
 SCF Done:  E(UB3LYP) =  -308.248647268     A.U. after   17 cycles
            NFock= 17  Conv=0.83D-08     -V/T= 2.0066
 <Sx>= 0.0000 <Sy>= 0.0000 <Sz>= 0.5000 <S**2>= 0.7578 S= 0.5039
 <L.S>= 0.000000000000E+00
 Annihilation of the first spin contaminant:
 S**2 before annihilation     0.7578,   after     0.7500
 DoSCS=F DFT=T ScalE2(SS,OS)=  1.000000  1.000000
 Range of M.O.s used for correlation:     1   306
 NBasis=   306 NAE=    25 NBE=    24 NFC=     0 NFV=     0
 NROrb=    306 NOA=    25 NOB=    24 NVA=   281 NVB=   282

 **** Warning!!: The largest alpha MO coefficient is  0.16477904D+02


 **** Warning!!: The largest beta MO coefficient is  0.16560185D+02

 Symmetrizing basis deriv contribution to polar:
 IMax=3 JMax=2 DiffMx= 0.00D+00
 G2DrvN: will do    16 centers at a time, making    1 passes.
 Calling FoFCou, ICntrl=  3107 FMM=F I1Cent=   0 AccDes= 0.00D+00.
 End of G2Drv F.D. properties file   721 does not exist.
 End of G2Drv F.D. properties file   722 does not exist.
 End of G2Drv F.D. properties file   788 does not exist.
          IDoAtm=111111111111111
          Differentiating once with respect to nuclear coordinates.
 Keep R1 and R2 ints in memory in canonical form, NReq=2234005254.
          There are    48 degrees of freedom in the 1st order CPHF.  IDoFFX=6 NUNeed=     0.
     42 vectors produced by pass  0 Test12= 2.87D-14 2.08D-09 XBig12= 1.81D-01 2.01D-01.
 AX will form    42 AO Fock derivatives at one time.
     42 vectors produced by pass  1 Test12= 2.87D-14 2.08D-09 XBig12= 3.29D-02 5.38D-02.
     42 vectors produced by pass  2 Test12= 2.87D-14 2.08D-09 XBig12= 4.33D-04 4.48D-03.
     42 vectors produced by pass  3 Test12= 2.87D-14 2.08D-09 XBig12= 4.27D-06 5.51D-04.
     42 vectors produced by pass  4 Test12= 2.87D-14 2.08D-09 XBig12= 2.70D-08 3.17D-05.
     42 vectors produced by pass  5 Test12= 2.87D-14 2.08D-09 XBig12= 1.29D-10 1.76D-06.
     23 vectors produced by pass  6 Test12= 2.87D-14 2.08D-09 XBig12= 9.79D-13 1.06D-07.
      6 vectors produced by pass  7 Test12= 2.87D-14 2.08D-09 XBig12= 4.86D-15 7.10D-09.
 InvSVY:  IOpt=1 It=  1 EMax= 2.44D-15
 Solved reduced A of dimension   281 with    42 vectors.
 End of Minotr F.D. properties file   721 does not exist.
 End of Minotr F.D. properties file   722 does not exist.
 End of Minotr F.D. properties file   788 does not exist.

 **********************************************************************

            Population analysis using the SCF Density.

 **********************************************************************

 Orbital symmetries:
 Alpha Orbitals:
       Occupied  (A) (A) (A) (A) (A) (A) (A) (A) (A) (A) (A) (A)
                 (A) (A) (A) (A) (A) (A) (A) (A) (A) (A) (A) (A)
                 (A)
       Virtual   (A) (A) (A) (A) (A) (A) (A) (A) (A) (A) (A) (A)
                 (A) (A) (A) (A) (A) (A) (A) (A) (A) (A) (A) (A)
                 (A) (A) (A) (A) (A) (A) (A) (A) (A) (A) (A) (A)
                 (A) (A) (A) (A) (A) (A) (A) (A) (A) (A) (A) (A)
                 (A) (A) (A) (A) (A) (A) (A) (A) (A) (A) (A) (A)
                 (A) (A) (A) (A) (A) (A) (A) (A) (A) (A) (A) (A)
                 (A) (A) (A) (A) (A) (A) (A) (A) (A) (A) (A) (A)
                 (A) (A) (A) (A) (A) (A) (A) (A) (A) (A) (A) (A)
                 (A) (A) (A) (A) (A) (A) (A) (A) (A) (A) (A) (A)
                 (A) (A) (A) (A) (A) (A) (A) (A) (A) (A) (A) (A)
                 (A) (A) (A) (A) (A) (A) (A) (A) (A) (A) (A) (A)
                 (A) (A) (A) (A) (A) (A) (A) (A) (A) (A) (A) (A)
                 (A) (A) (A) (A) (A) (A) (A) (A) (A) (A) (A) (A)
                 (A) (A) (A) (A) (A) (A) (A) (A) (A) (A) (A) (A)
                 (A) (A) (A) (A) (A) (A) (A) (A) (A) (A) (A) (A)
                 (A) (A) (A) (A) (A) (A) (A) (A) (A) (A) (A) (A)
                 (A) (A) (A) (A) (A) (A) (A) (A) (A) (A) (A) (A)
                 (A) (A) (A) (A) (A) (A) (A) (A) (A) (A) (A) (A)
                 (A) (A) (A) (A) (A) (A) (A) (A) (A) (A) (A) (A)
                 (A) (A) (A) (A) (A) (A) (A) (A) (A) (A) (A) (A)
                 (A) (A) (A) (A) (A) (A) (A) (A) (A) (A) (A) (A)
                 (A) (A) (A) (A) (A) (A) (A) (A) (A) (A) (A) (A)
                 (A) (A) (A) (A) (A) (A) (A) (A) (A) (A) (A) (A)
                 (A) (A) (A) (A) (A)
 Beta  Orbitals:
       Occupied  (A) (A) (A) (A) (A) (A) (A) (A) (A) (A) (A) (A)
                 (A) (A) (A) (A) (A) (A) (A) (A) (A) (A) (A) (A)
       Virtual   (A) (A) (A) (A) (A) (A) (A) (A) (A) (A) (A) (A)
                 (A) (A) (A) (A) (A) (A) (A) (A) (A) (A) (A) (A)
                 (A) (A) (A) (A) (A) (A) (A) (A) (A) (A) (A) (A)
                 (A) (A) (A) (A) (A) (A) (A) (A) (A) (A) (A) (A)
                 (A) (A) (A) (A) (A) (A) (A) (A) (A) (A) (A) (A)
                 (A) (A) (A) (A) (A) (A) (A) (A) (A) (A) (A) (A)
                 (A) (A) (A) (A) (A) (A) (A) (A) (A) (A) (A) (A)
                 (A) (A) (A) (A) (A) (A) (A) (A) (A) (A) (A) (A)
                 (A) (A) (A) (A) (A) (A) (A) (A) (A) (A) (A) (A)
                 (A) (A) (A) (A) (A) (A) (A) (A) (A) (A) (A) (A)
                 (A) (A) (A) (A) (A) (A) (A) (A) (A) (A) (A) (A)
                 (A) (A) (A) (A) (A) (A) (A) (A) (A) (A) (A) (A)
                 (A) (A) (A) (A) (A) (A) (A) (A) (A) (A) (A) (A)
                 (A) (A) (A) (A) (A) (A) (A) (A) (A) (A) (A) (A)
                 (A) (A) (A) (A) (A) (A) (A) (A) (A) (A) (A) (A)
                 (A) (A) (A) (A) (A) (A) (A) (A) (A) (A) (A) (A)
                 (A) (A) (A) (A) (A) (A) (A) (A) (A) (A) (A) (A)
                 (A) (A) (A) (A) (A) (A) (A) (A) (A) (A) (A) (A)
                 (A) (A) (A) (A) (A) (A) (A) (A) (A) (A) (A) (A)
                 (A) (A) (A) (A) (A) (A) (A) (A) (A) (A) (A) (A)
                 (A) (A) (A) (A) (A) (A) (A) (A) (A) (A) (A) (A)
                 (A) (A) (A) (A) (A) (A) (A) (A) (A) (A) (A) (A)
                 (A) (A) (A) (A) (A) (A) (A) (A) (A) (A) (A) (A)
                 (A) (A) (A) (A) (A) (A)
 The electronic state is 2-A.
 Alpha  occ. eigenvalues --  -19.21194 -19.18816 -10.22859 -10.18196 -10.18195
 Alpha  occ. eigenvalues --  -10.17500  -1.17406  -0.83516  -0.79857  -0.71344
 Alpha  occ. eigenvalues --   -0.70914  -0.54943  -0.51953  -0.47960  -0.46878
 Alpha  occ. eigenvalues --   -0.46805  -0.45790  -0.44148  -0.40442  -0.38978
 Alpha  occ. eigenvalues --   -0.38472  -0.36649  -0.30702  -0.26229  -0.24505
 Alpha virt. eigenvalues --   -0.04304   0.02839   0.06825   0.07030   0.08783
 Alpha virt. eigenvalues --    0.09081   0.09932   0.13218   0.13232   0.14187
 Alpha virt. eigenvalues --    0.15910   0.17516   0.20641   0.21302   0.22612
 Alpha virt. eigenvalues --    0.24553   0.26878   0.29172   0.31196   0.33561
 Alpha virt. eigenvalues --    0.34284   0.36240   0.38404   0.39631   0.43021
 Alpha virt. eigenvalues --    0.44189   0.45110   0.45227   0.45609   0.45880
 Alpha virt. eigenvalues --    0.47830   0.48335   0.49691   0.50557   0.51129
 Alpha virt. eigenvalues --    0.54349   0.57194   0.58582   0.59413   0.60849
 Alpha virt. eigenvalues --    0.61245   0.66431   0.67771   0.70466   0.71721
 Alpha virt. eigenvalues --    0.73179   0.77825   0.80462   0.81918   0.82819
 Alpha virt. eigenvalues --    0.88042   0.88492   0.90569   0.90886   0.92148
 Alpha virt. eigenvalues --    0.92852   0.95958   0.98315   1.00324   1.01063
 Alpha virt. eigenvalues --    1.02306   1.04095   1.04914   1.07236   1.11939
 Alpha virt. eigenvalues --    1.14388   1.14949   1.15400   1.16849   1.17608
 Alpha virt. eigenvalues --    1.20294   1.22823   1.22905   1.24847   1.27876
 Alpha virt. eigenvalues --    1.28454   1.29072   1.31866   1.32037   1.34102
 Alpha virt. eigenvalues --    1.37597   1.37898   1.40869   1.42284   1.42758
 Alpha virt. eigenvalues --    1.44326   1.47538   1.49004   1.49492   1.50803
 Alpha virt. eigenvalues --    1.52354   1.56648   1.59106   1.66757   1.67010
 Alpha virt. eigenvalues --    1.74934   1.76550   1.78838   1.83510   2.03099
 Alpha virt. eigenvalues --    2.04042   2.12770   2.14669   2.15983   2.18965
 Alpha virt. eigenvalues --    2.24715   2.25799   2.28363   2.30114   2.32912
 Alpha virt. eigenvalues --    2.38074   2.39660   2.40821   2.47601   2.54116
 Alpha virt. eigenvalues --    2.56447   2.57659   2.58421   2.59404   2.63235
 Alpha virt. eigenvalues --    2.64195   2.67857   2.69987   2.72670   2.77492
 Alpha virt. eigenvalues --    2.78536   2.79991   2.82023   2.83368   2.83371
 Alpha virt. eigenvalues --    2.86044   2.88304   2.90166   2.91176   2.95444
 Alpha virt. eigenvalues --    2.95566   2.96902   2.98141   3.02603   3.03313
 Alpha virt. eigenvalues --    3.03434   3.03851   3.06438   3.07689   3.10668
 Alpha virt. eigenvalues --    3.10978   3.12102   3.16281   3.20428   3.21911
 Alpha virt. eigenvalues --    3.22364   3.23827   3.28441   3.31731   3.32008
 Alpha virt. eigenvalues --    3.33128   3.36282   3.37619   3.38145   3.41285
 Alpha virt. eigenvalues --    3.42691   3.43433   3.44913   3.45667   3.49226
 Alpha virt. eigenvalues --    3.50206   3.53361   3.54292   3.54524   3.55774
 Alpha virt. eigenvalues --    3.58016   3.63373   3.64115   3.68206   3.69526
 Alpha virt. eigenvalues --    3.72916   3.75850   3.78329   3.80678   3.83391
 Alpha virt. eigenvalues --    3.84178   3.85091   3.86178   3.87344   3.87429
 Alpha virt. eigenvalues --    3.92362   3.93352   3.94206   3.95046   3.97393
 Alpha virt. eigenvalues --    4.00454   4.00572   4.02579   4.06330   4.08805
 Alpha virt. eigenvalues --    4.09171   4.09479   4.13205   4.14028   4.17125
 Alpha virt. eigenvalues --    4.17703   4.20773   4.22578   4.22772   4.27049
 Alpha virt. eigenvalues --    4.29922   4.31270   4.33634   4.38312   4.43473
 Alpha virt. eigenvalues --    4.45568   4.46396   4.50317   4.52600   4.55489
 Alpha virt. eigenvalues --    4.60152   4.69750   4.70025   4.72279   4.76144
 Alpha virt. eigenvalues --    4.76975   4.77410   4.80871   4.81552   4.83632
 Alpha virt. eigenvalues --    4.86650   4.88472   4.91747   4.96885   4.99810
 Alpha virt. eigenvalues --    5.04237   5.08334   5.09450   5.11251   5.12192
 Alpha virt. eigenvalues --    5.12896   5.13304   5.14896   5.17314   5.20558
 Alpha virt. eigenvalues --    5.23737   5.24188   5.29655   5.31561   5.32337
 Alpha virt. eigenvalues --    5.33248   5.35111   5.39604   5.41566   5.44330
 Alpha virt. eigenvalues --    5.55478   5.59503   5.71742   5.76427   5.81468
 Alpha virt. eigenvalues --    5.83488   5.85849   5.86662   5.89244   5.93476
 Alpha virt. eigenvalues --    5.99824   6.19009   6.22574   6.29135   6.32556
 Alpha virt. eigenvalues --    6.35308   6.36938   6.51303   6.52505   6.61551
 Alpha virt. eigenvalues --    6.91128   6.97561   7.06621   7.36995   7.43416
 Alpha virt. eigenvalues --    8.80040  10.23719  11.16998  13.61491  13.80723
 Alpha virt. eigenvalues --   13.87613
  Beta  occ. eigenvalues --  -19.19906 -19.16992 -10.22920 -10.18191 -10.18190
  Beta  occ. eigenvalues --  -10.17485  -1.14370  -0.83589  -0.75686  -0.71349
  Beta  occ. eigenvalues --   -0.70655  -0.54968  -0.50996  -0.47512  -0.46712
  Beta  occ. eigenvalues --   -0.44148  -0.43974  -0.40712  -0.39055  -0.38477
  Beta  occ. eigenvalues --   -0.38308  -0.36654  -0.29992  -0.23170
  Beta virt. eigenvalues --   -0.08694  -0.04194   0.02859   0.06879   0.07068
  Beta virt. eigenvalues --    0.08809   0.09215   0.09942   0.13222   0.13299
  Beta virt. eigenvalues --    0.14208   0.16506   0.18140   0.21186   0.21446
  Beta virt. eigenvalues --    0.22684   0.24717   0.27040   0.29269   0.31269
  Beta virt. eigenvalues --    0.33541   0.34484   0.36399   0.38434   0.39896
  Beta virt. eigenvalues --    0.43092   0.44187   0.45130   0.45238   0.45614
  Beta virt. eigenvalues --    0.45884   0.47855   0.48373   0.49776   0.50714
  Beta virt. eigenvalues --    0.51120   0.54475   0.57189   0.59565   0.59635
  Beta virt. eigenvalues --    0.61801   0.62871   0.66463   0.68047   0.71523
  Beta virt. eigenvalues --    0.71798   0.73563   0.78223   0.80608   0.82022
  Beta virt. eigenvalues --    0.83760   0.88195   0.88982   0.90706   0.90968
  Beta virt. eigenvalues --    0.92185   0.92870   0.95979   0.98357   1.00442
  Beta virt. eigenvalues --    1.01267   1.02434   1.04140   1.04988   1.07372
  Beta virt. eigenvalues --    1.12083   1.14814   1.14999   1.15455   1.16890
  Beta virt. eigenvalues --    1.17767   1.20696   1.22985   1.23215   1.24948
  Beta virt. eigenvalues --    1.27979   1.28531   1.29345   1.31987   1.32403
  Beta virt. eigenvalues --    1.34994   1.37928   1.38420   1.41518   1.42409
  Beta virt. eigenvalues --    1.43039   1.44924   1.47694   1.49042   1.50257
  Beta virt. eigenvalues --    1.50834   1.52741   1.56992   1.59299   1.67201
  Beta virt. eigenvalues --    1.68381   1.75655   1.77168   1.79398   1.84962
  Beta virt. eigenvalues --    2.03333   2.05998   2.12836   2.15548   2.18941
  Beta virt. eigenvalues --    2.19068   2.24763   2.26058   2.28987   2.30174
  Beta virt. eigenvalues --    2.32991   2.38103   2.39858   2.40826   2.47605
  Beta virt. eigenvalues --    2.54128   2.56514   2.57670   2.58431   2.59423
  Beta virt. eigenvalues --    2.63293   2.64176   2.67869   2.69976   2.72726
  Beta virt. eigenvalues --    2.77475   2.78524   2.79984   2.81970   2.83341
  Beta virt. eigenvalues --    2.83384   2.86070   2.88337   2.90107   2.91187
  Beta virt. eigenvalues --    2.95448   2.95531   2.96909   2.98187   3.02605
  Beta virt. eigenvalues --    3.03301   3.03468   3.03852   3.06433   3.07692
  Beta virt. eigenvalues --    3.10664   3.10963   3.12146   3.16269   3.20394
  Beta virt. eigenvalues --    3.21879   3.22486   3.23811   3.28472   3.32016
  Beta virt. eigenvalues --    3.32018   3.33518   3.36307   3.37776   3.38150
  Beta virt. eigenvalues --    3.41285   3.42932   3.43437   3.45053   3.45861
  Beta virt. eigenvalues --    3.49237   3.50330   3.53700   3.54565   3.55817
  Beta virt. eigenvalues --    3.57353   3.58082   3.64214   3.64564   3.69207
  Beta virt. eigenvalues --    3.69570   3.73155   3.75988   3.80705   3.81256
  Beta virt. eigenvalues --    3.83668   3.84468   3.85161   3.86744   3.87734
  Beta virt. eigenvalues --    3.87850   3.92448   3.93378   3.94302   3.95228
  Beta virt. eigenvalues --    3.97432   4.00635   4.01299   4.02606   4.06332
  Beta virt. eigenvalues --    4.08777   4.09168   4.09500   4.13194   4.14062
  Beta virt. eigenvalues --    4.17148   4.17821   4.20784   4.22640   4.22878
  Beta virt. eigenvalues --    4.27140   4.30177   4.31234   4.33611   4.38354
  Beta virt. eigenvalues --    4.43511   4.45606   4.46436   4.50516   4.52691
  Beta virt. eigenvalues --    4.55553   4.60439   4.69841   4.71541   4.74100
  Beta virt. eigenvalues --    4.77489   4.77968   4.78554   4.81146   4.82457
  Beta virt. eigenvalues --    4.84464   4.88369   4.88586   4.91886   4.98480
  Beta virt. eigenvalues --    4.99937   5.04327   5.08414   5.09573   5.12616
  Beta virt. eigenvalues --    5.12854   5.14545   5.15375   5.16365   5.17384
  Beta virt. eigenvalues --    5.21075   5.23781   5.25647   5.29659   5.31685
  Beta virt. eigenvalues --    5.32404   5.33265   5.35194   5.39902   5.41594
  Beta virt. eigenvalues --    5.45507   5.55560   5.62165   5.71777   5.76993
  Beta virt. eigenvalues --    5.83288   5.84908   5.85884   5.86909   5.89354
  Beta virt. eigenvalues --    5.93818   5.99848   6.24005   6.25563   6.34901
  Beta virt. eigenvalues --    6.36261   6.37880   6.42251   6.53927   6.56961
  Beta virt. eigenvalues --    6.62463   6.93068   6.98873   7.10211   7.37934
  Beta virt. eigenvalues --    7.44461   8.82777  10.23948  11.19278  13.61516
  Beta virt. eigenvalues --   13.80724  13.87609
          Condensed to atoms (all electrons):
               1          2          3          4          5          6
     1  C    4.933236   0.495079   0.012878  -0.045214  -0.045223   0.359334
     2  C    0.495079   5.097596   0.161262   0.406603   0.406611  -0.053391
     3  H    0.012878   0.161262   0.448960  -0.003525  -0.003528   0.000078
     4  H   -0.045214   0.406603  -0.003525   0.557430  -0.032210   0.006820
     5  H   -0.045223   0.406611  -0.003528  -0.032210   0.557419  -0.006581
     6  C    0.359334  -0.053391   0.000078   0.006820  -0.006581   4.820993
     7  H   -0.040920  -0.001603   0.000084  -0.000430   0.000020   0.389017
     8  H   -0.037136   0.003234  -0.000022  -0.000320   0.000369   0.402131
     9  H   -0.034850  -0.002475  -0.000281   0.000120   0.002845   0.401961
    10  C    0.359339  -0.053379   0.000075  -0.006585   0.006820  -0.053489
    11  H   -0.034852  -0.002481  -0.000280   0.002849   0.000119   0.005819
    12  H   -0.037137   0.003230  -0.000022   0.000369  -0.000320  -0.002973
    13  H   -0.040913  -0.001600   0.000083   0.000019  -0.000430  -0.000980
    14  O    0.053033  -0.013755  -0.052712   0.001262   0.001264   0.000947
    15  O   -0.051057  -0.059103   0.216197  -0.001598  -0.001601   0.000873
               7          8          9         10         11         12
     1  C   -0.040920  -0.037136  -0.034850   0.359339  -0.034852  -0.037137
     2  C   -0.001603   0.003234  -0.002475  -0.053379  -0.002481   0.003230
     3  H    0.000084  -0.000022  -0.000281   0.000075  -0.000280  -0.000022
     4  H   -0.000430  -0.000320   0.000120  -0.006585   0.002849   0.000369
     5  H    0.000020   0.000369   0.002845   0.006820   0.000119  -0.000320
     6  C    0.389017   0.402131   0.401961  -0.053489   0.005819  -0.002973
     7  H    0.608140  -0.033624  -0.027171  -0.000984  -0.000191  -0.001164
     8  H   -0.033624   0.575362  -0.025092  -0.002970   0.000036   0.004060
     9  H   -0.027171  -0.025092   0.578955   0.005819  -0.000485   0.000036
    10  C   -0.000984  -0.002970   0.005819   4.820982   0.401975   0.402117
    11  H   -0.000191   0.000036  -0.000485   0.401975   0.578973  -0.025091
    12  H   -0.001164   0.004060   0.000036   0.402117  -0.025091   0.575351
    13  H    0.003244  -0.001166  -0.000191   0.389020  -0.027180  -0.033620
    14  O    0.001915   0.000586  -0.000700   0.000951  -0.000701   0.000597
    15  O   -0.000343   0.000393   0.000965   0.000878   0.000960   0.000392
              13         14         15
     1  C   -0.040913   0.053033  -0.051057
     2  C   -0.001600  -0.013755  -0.059103
     3  H    0.000083  -0.052712   0.216197
     4  H    0.000019   0.001262  -0.001598
     5  H   -0.000430   0.001264  -0.001601
     6  C   -0.000980   0.000947   0.000873
     7  H    0.003244   0.001915  -0.000343
     8  H   -0.001166   0.000586   0.000393
     9  H   -0.000191  -0.000700   0.000965
    10  C    0.389020   0.000951   0.000878
    11  H   -0.027180  -0.000701   0.000960
    12  H   -0.033620   0.000597   0.000392
    13  H    0.608135   0.001912  -0.000343
    14  O    0.001912   8.088778   0.109428
    15  O   -0.000343   0.109428   7.905622
          Atomic-Atomic Spin Densities.
               1          2          3          4          5          6
     1  C   -0.047367   0.001468   0.002222   0.000172   0.000174   0.000731
     2  C    0.001468   0.005856   0.005133  -0.000191  -0.000190  -0.000121
     3  H    0.002222   0.005133  -0.021633   0.000562   0.000563  -0.000136
     4  H    0.000172  -0.000191   0.000562  -0.001256   0.000003  -0.000034
     5  H    0.000174  -0.000190   0.000563   0.000003  -0.001261   0.000171
     6  C    0.000731  -0.000121  -0.000136  -0.000034   0.000171   0.002798
     7  H    0.001790  -0.000504   0.000095  -0.000088   0.000069   0.000747
     8  H    0.000765   0.000081  -0.000210  -0.000003   0.000070  -0.001630
     9  H    0.000221   0.000129  -0.000036  -0.000004   0.000043   0.000108
    10  C    0.000730  -0.000123  -0.000135   0.000172  -0.000034  -0.000801
    11  H    0.000221   0.000130  -0.000036   0.000042  -0.000004  -0.000040
    12  H    0.000765   0.000080  -0.000210   0.000070  -0.000003   0.000309
    13  H    0.001790  -0.000503   0.000095   0.000069  -0.000088   0.000286
    14  O   -0.007734  -0.000984   0.002317   0.000045   0.000044   0.001139
    15  O    0.001982  -0.000097  -0.005144   0.000086   0.000086  -0.000653
               7          8          9         10         11         12
     1  C    0.001790   0.000765   0.000221   0.000730   0.000221   0.000765
     2  C   -0.000504   0.000081   0.000129  -0.000123   0.000130   0.000080
     3  H    0.000095  -0.000210  -0.000036  -0.000135  -0.000036  -0.000210
     4  H   -0.000088  -0.000003  -0.000004   0.000172   0.000042   0.000070
     5  H    0.000069   0.000070   0.000043  -0.000034  -0.000004  -0.000003
     6  C    0.000747  -0.001630   0.000108  -0.000801  -0.000040   0.000309
     7  H   -0.005550   0.001756  -0.000446   0.000286   0.000062  -0.000014
     8  H    0.001756  -0.001811  -0.000263   0.000308   0.000015  -0.000500
     9  H   -0.000446  -0.000263   0.000423  -0.000040   0.000002   0.000015
    10  C    0.000286   0.000308  -0.000040   0.002810   0.000106  -0.001633
    11  H    0.000062   0.000015   0.000002   0.000106   0.000424  -0.000265
    12  H   -0.000014  -0.000500   0.000015  -0.001633  -0.000265  -0.001808
    13  H   -0.000501  -0.000014   0.000062   0.000747  -0.000444   0.001756
    14  O   -0.000049   0.001230  -0.000542   0.001131  -0.000540   0.001233
    15  O   -0.000018  -0.000228   0.000018  -0.000652   0.000019  -0.000228
              13         14         15
     1  C    0.001790  -0.007734   0.001982
     2  C   -0.000503  -0.000984  -0.000097
     3  H    0.000095   0.002317  -0.005144
     4  H    0.000069   0.000045   0.000086
     5  H   -0.000088   0.000044   0.000086
     6  C    0.000286   0.001139  -0.000653
     7  H   -0.000501  -0.000049  -0.000018
     8  H   -0.000014   0.001230  -0.000228
     9  H    0.000062  -0.000542   0.000018
    10  C    0.000747   0.001131  -0.000652
    11  H   -0.000444  -0.000540   0.000019
    12  H    0.001756   0.001233  -0.000228
    13  H   -0.005553  -0.000049  -0.000018
    14  O   -0.000049   0.799742  -0.163454
    15  O   -0.000018  -0.163454   0.584416
 Mulliken charges and spin densities:
               1          2
     1  C    0.154404  -0.042071
     2  C   -0.385828   0.010165
     3  H    0.220753  -0.016552
     4  H    0.114409  -0.000357
     5  H    0.114425  -0.000358
     6  C   -0.270559   0.002876
     7  H    0.104010  -0.002366
     8  H    0.114160  -0.000434
     9  H    0.100544  -0.000310
    10  C   -0.270566   0.002872
    11  H    0.100530  -0.000308
    12  H    0.114176  -0.000433
    13  H    0.104009  -0.002367
    14  O   -0.192805   0.633529
    15  O   -0.121661   0.416114
 Sum of Mulliken charges =  -0.00000   1.00000
 Mulliken charges and spin densities with hydrogens summed into heavy atoms:
               1          2
     1  C    0.154404  -0.042071
     2  C   -0.156994   0.009450
     6  C    0.048155  -0.000235
    10  C    0.048148  -0.000235
    14  O   -0.192805   0.633529
    15  O    0.099092   0.399562
 APT charges:
               1
     1  C    0.147012
     2  C   -0.855358
     3  H    0.125267
     4  H    0.385632
     5  H    0.385611
     6  C   -1.018950
     7  H    0.443048
     8  H    0.295169
     9  H    0.307736
    10  C   -1.018983
    11  H    0.307868
    12  H    0.295104
    13  H    0.443091
    14  O   -0.164855
    15  O   -0.077392
 Sum of APT charges =  -0.00000
 APT charges with hydrogens summed into heavy atoms:
               1
     1  C    0.147012
     2  C   -0.084115
     6  C    0.027003
    10  C    0.027080
    14  O   -0.164855
    15  O    0.047876
 Electronic spatial extent (au):  <R**2>=            666.5063
 Charge=             -0.0000 electrons
 Dipole moment (field-independent basis, Debye):
    X=              2.9159    Y=             -0.0071    Z=              1.1355  Tot=              3.1292
 Quadrupole moment (field-independent basis, Debye-Ang):
   XX=            -42.0021   YY=            -35.8534   ZZ=            -37.5297
   XY=              0.0159   XZ=             -2.7364   YZ=              0.0107
 Traceless Quadrupole moment (field-independent basis, Debye-Ang):
   XX=             -3.5403   YY=              2.6083   ZZ=              0.9320
   XY=              0.0159   XZ=             -2.7364   YZ=              0.0107
 Octapole moment (field-independent basis, Debye-Ang**2):
  XXX=              0.4271  YYY=             -0.0080  ZZZ=             -1.8652  XYY=             -4.1699
  XXY=              0.0032  XXZ=             -0.3370  XZZ=             -4.4117  YZZ=              0.0140
  YYZ=              0.2545  XYZ=              0.0009
 Hexadecapole moment (field-independent basis, Debye-Ang**3):
 XXXX=           -442.7891 YYYY=           -215.4097 ZZZZ=           -205.4524 XXXY=              0.0012
 XXXZ=             -0.0831 YYYX=             -0.0275 YYYZ=             -0.0515 ZZZX=             -2.9356
 ZZZY=              0.0101 XXYY=           -107.5946 XXZZ=           -112.3953 YYZZ=            -68.6144
 XXYZ=              0.0370 YYXZ=              1.3205 ZZXY=              0.0356
 N-N= 2.464149665739D+02 E-N=-1.213262134543D+03  KE= 3.062131652031D+02
  Exact polarizability:   0.000   0.000   0.000   0.000   0.000   0.000
 Approx polarizability: 127.018   0.055  72.595  -6.914  -0.208 103.483
                          Isotropic Fermi Contact Couplings
        Atom                 a.u.       MegaHertz       Gauss      10(-4) cm-1
     1  C(13)             -0.00187      -2.10502      -0.75112      -0.70216
     2  C(13)              0.00063       0.71386       0.25472       0.23812
     3  H(1)              -0.00794     -35.50397     -12.66870     -11.84285
     4  H(1)              -0.00038      -1.69855      -0.60609      -0.56658
     5  H(1)              -0.00038      -1.70222      -0.60739      -0.56780
     6  C(13)              0.00163       1.82698       0.65191       0.60941
     7  H(1)              -0.00107      -4.78066      -1.70586      -1.59466
     8  H(1)              -0.00047      -2.08468      -0.74386      -0.69537
     9  H(1)              -0.00010      -0.44791      -0.15983      -0.14941
    10  C(13)              0.00163       1.82701       0.65192       0.60942
    11  H(1)              -0.00010      -0.44750      -0.15968      -0.14927
    12  H(1)              -0.00047      -2.08755      -0.74489      -0.69633
    13  H(1)              -0.00107      -4.78091      -1.70595      -1.59474
    14  O(17)              0.04428     -26.84226      -9.57799      -8.95362
    15  O(17)              0.03950     -23.94766      -8.54512      -7.98808
 --------------------------------------------------------
       Center         ----  Spin Dipole Couplings  ----
                      3XX-RR        3YY-RR        3ZZ-RR
 --------------------------------------------------------
     1   Atom       -0.024490      0.017478      0.007012
     2   Atom        0.012804     -0.009977     -0.002826
     3   Atom        0.007622     -0.027555      0.019932
     4   Atom        0.000699     -0.002662      0.001963
     5   Atom        0.000697     -0.002725      0.002027
     6   Atom        0.006930     -0.003103     -0.003827
     7   Atom        0.003135     -0.001559     -0.001576
     8   Atom        0.007443     -0.002855     -0.004588
     9   Atom        0.002794      0.000045     -0.002840
    10   Atom        0.006928     -0.003077     -0.003851
    11   Atom        0.002797      0.000085     -0.002883
    12   Atom        0.007444     -0.002883     -0.004561
    13   Atom        0.003135     -0.001549     -0.001585
    14   Atom       -1.345757      2.779150     -1.433393
    15   Atom       -0.956205      1.960360     -1.004155
 --------------------------------------------------------
                        XY            XZ            YZ
 --------------------------------------------------------
     1   Atom        0.000112     -0.021750      0.000054
     2   Atom       -0.000082      0.013228     -0.000045
     3   Atom       -0.000292      0.044695     -0.000308
     4   Atom       -0.001874      0.005342     -0.002432
     5   Atom        0.001805      0.005367      0.002373
     6   Atom        0.004593      0.001666      0.001074
     7   Atom        0.001365      0.000641      0.000385
     8   Atom        0.005618     -0.003127     -0.001004
     9   Atom        0.005536      0.001821      0.001837
    10   Atom       -0.004607      0.001606     -0.001064
    11   Atom       -0.005550      0.001748     -0.001796
    12   Atom       -0.005573     -0.003197      0.001024
    13   Atom       -0.001370      0.000623     -0.000384
    14   Atom       -0.001425      0.079330      0.028404
    15   Atom       -0.001260      0.095145      0.019984
 --------------------------------------------------------


 ---------------------------------------------------------------------------------
              Anisotropic Spin Dipole Couplings in Principal Axis System
 ---------------------------------------------------------------------------------

       Atom             a.u.   MegaHertz   Gauss  10(-4) cm-1        Axes

              Baa    -0.0356    -4.776    -1.704    -1.593  0.8907 -0.0023  0.4547
     1 C(13)  Bbb     0.0175     2.345     0.837     0.782 -0.0000  1.0000  0.0052
              Bcc     0.0181     2.431     0.867     0.811 -0.4547 -0.0047  0.8906
 
              Baa    -0.0104    -1.392    -0.497    -0.464 -0.4957 -0.0035  0.8685
     2 C(13)  Bbb    -0.0100    -1.339    -0.478    -0.447  0.0009  1.0000  0.0046
              Bcc     0.0204     2.731     0.975     0.911  0.8685 -0.0031  0.4956
 
              Baa    -0.0313   -16.721    -5.967    -5.578  0.7538  0.0048 -0.6571
     3 H(1)   Bbb    -0.0276   -14.703    -5.246    -4.904 -0.0004  1.0000  0.0068
              Bcc     0.0589    31.424    11.213    10.482  0.6571 -0.0049  0.7538
 
              Baa    -0.0041    -2.201    -0.785    -0.734 -0.6370  0.3367  0.6934
     4 H(1)   Bbb    -0.0035    -1.866    -0.666    -0.622  0.4403  0.8973 -0.0311
              Bcc     0.0076     4.067     1.451     1.357  0.6327 -0.2855  0.7198
 
              Baa    -0.0041    -2.202    -0.786    -0.734 -0.6370 -0.3459  0.6889
     5 H(1)   Bbb    -0.0035    -1.867    -0.666    -0.623 -0.4406  0.8967  0.0428
              Bcc     0.0076     4.068     1.452     1.357  0.6326  0.2763  0.7236
 
              Baa    -0.0051    -0.678    -0.242    -0.226 -0.2833  0.8786 -0.3844
     6 C(13)  Bbb    -0.0040    -0.531    -0.189    -0.177 -0.2707  0.3113  0.9109
              Bcc     0.0090     1.209     0.431     0.403  0.9200  0.3621  0.1497
 
              Baa    -0.0020    -1.089    -0.388    -0.363 -0.1670  0.8597 -0.4827
     7 H(1)   Bbb    -0.0016    -0.834    -0.298    -0.278 -0.2453  0.4379  0.8649
              Bcc     0.0036     1.922     0.686     0.641  0.9549  0.2629  0.1377
 
              Baa    -0.0056    -3.010    -1.074    -1.004  0.4218 -0.6080  0.6726
     8 H(1)   Bbb    -0.0050    -2.654    -0.947    -0.885 -0.1343  0.6918  0.7095
              Bcc     0.0106     5.665     2.021     1.890  0.8967  0.3896 -0.2101
 
              Baa    -0.0044    -2.344    -0.836    -0.782 -0.5282  0.7889 -0.3140
     9 H(1)   Bbb    -0.0034    -1.790    -0.639    -0.597 -0.3756  0.1146  0.9197
              Bcc     0.0077     4.133     1.475     1.379  0.7616  0.6037  0.2358
 
              Baa    -0.0051    -0.678    -0.242    -0.226  0.2829  0.8736  0.3960
    10 C(13)  Bbb    -0.0040    -0.530    -0.189    -0.177 -0.2707 -0.3233  0.9067
              Bcc     0.0090     1.208     0.431     0.403  0.9201 -0.3637  0.1450
 
              Baa    -0.0044    -2.340    -0.835    -0.781  0.5276  0.7851  0.3243
    11 H(1)   Bbb    -0.0033    -1.787    -0.638    -0.596 -0.3755 -0.1268  0.9181
              Bcc     0.0077     4.127     1.473     1.377  0.7619 -0.6062  0.2279
 
              Baa    -0.0056    -3.009    -1.074    -1.004  0.4216  0.5995  0.6803
    12 H(1)   Bbb    -0.0050    -2.653    -0.947    -0.885  0.1341  0.7007 -0.7007
              Bcc     0.0106     5.663     2.021     1.889  0.8968 -0.3866 -0.2151
 
              Baa    -0.0020    -1.088    -0.388    -0.363  0.1665  0.8533  0.4940
    13 H(1)   Bbb    -0.0016    -0.833    -0.297    -0.278 -0.2451 -0.4495  0.8590
              Bcc     0.0036     1.921     0.686     0.641  0.9551 -0.2641  0.1343
 
              Baa    -1.4804   107.117    38.222    35.730 -0.5078 -0.0059  0.8615
    14 O(17)  Bbb    -1.2990    93.994    33.539    31.353  0.8615 -0.0032  0.5078
              Bcc     2.7793  -201.111   -71.761   -67.083 -0.0002  1.0000  0.0067
 
              Baa    -1.0784    78.031    27.844    26.029 -0.6144 -0.0054  0.7890
    15 O(17)  Bbb    -0.8821    63.829    22.776    21.291  0.7890 -0.0040  0.6144
              Bcc     1.9605  -141.860   -50.619   -47.319 -0.0002  1.0000  0.0067
 

 ---------------------------------------------------------------------------------

 Calling FoFJK, ICntrl=    100147 FMM=F ISym2X=0 I1Cent= 0 IOpClX= 1 NMat=1 NMatS=1 NMatT=0.
 ***** Axes restored to original set *****
 -------------------------------------------------------------------
 Center     Atomic                   Forces (Hartrees/Bohr)
 Number     Number              X              Y              Z
 -------------------------------------------------------------------
      1        6           0.000049163   -0.000012524    0.000059969
      2        6           0.000030849    0.000004124   -0.000056351
      3        1           0.016160411   -0.000082796   -0.014119710
      4        1           0.000006142   -0.000005105    0.000006815
      5        1           0.000006353    0.000003884    0.000004279
      6        6          -0.000048927   -0.000012499   -0.000021337
      7        1           0.000008958   -0.000006266   -0.000002783
      8        1           0.000002078    0.000007549    0.000002516
      9        1          -0.000000736    0.000000647    0.000005664
     10        6          -0.000034910    0.000017511   -0.000026723
     11        1           0.000002108   -0.000003097    0.000004382
     12        1           0.000002096   -0.000003353   -0.000002069
     13        1           0.000012394   -0.000001451   -0.000000264
     14        8          -0.000002737    0.000008207   -0.000055718
     15        8          -0.016193242    0.000085167    0.014201330
 -------------------------------------------------------------------
 Cartesian Forces:  Max     0.016193242 RMS     0.004532494
 FormGI is forming the generalized inverse of G from B-inverse, IUseBI=4.

 GradGradGradGradGradGradGradGradGradGradGradGradGradGradGradGradGradGrad
 Berny optimization.
 Internal  Forces:  Max     0.021503886 RMS     0.002799626
 Search for a saddle point.
 Step number   1 out of a maximum of   69
 All quantities printed in internal units (Hartrees-Bohrs-Radians)
 Swapping is turned off.
 Second derivative matrix not updated -- analytic derivatives used.
 ITU=  0
     Eigenvalues ---   -0.04994   0.00121   0.00175   0.00246   0.01427
     Eigenvalues ---    0.01502   0.03359   0.03610   0.05281   0.05426
     Eigenvalues ---    0.05537   0.05707   0.05849   0.07046   0.07837
     Eigenvalues ---    0.12076   0.12135   0.12405   0.12813   0.13826
     Eigenvalues ---    0.13888   0.14238   0.14302   0.18369   0.20230
     Eigenvalues ---    0.27370   0.31250   0.31798   0.32592   0.32825
     Eigenvalues ---    0.33739   0.33907   0.34480   0.34594   0.34905
     Eigenvalues ---    0.34974   0.35120   0.52139   0.54130
 Eigenvectors required to have negative eigenvalues:
                          R7        R4        A10       A23       D6
   1                    0.63019  -0.63012  -0.28336  -0.14870  -0.13774
                          D2        R1        A8        A7        R14
   1                    0.13772   0.11135   0.08359   0.08338  -0.07944
 RFO step:  Lambda0=3.440094602D-03 Lambda=-2.32504344D-03.
 Linear search not attempted -- option 19 set.
 Iteration  1 RMS(Cart)=  0.05994633 RMS(Int)=  0.00198585
 Iteration  2 RMS(Cart)=  0.00186668 RMS(Int)=  0.00065399
 Iteration  3 RMS(Cart)=  0.00000386 RMS(Int)=  0.00065399
 Iteration  4 RMS(Cart)=  0.00000001 RMS(Int)=  0.00065399
 Variable       Old X    -DE/DX   Delta X   Delta X   Delta X     New X
                                 (Linear)    (Quad)   (Total)
    R1        2.59346  -0.00001   0.00000   0.03020   0.03020   2.62366
    R2        2.82846   0.00003   0.00000  -0.00111  -0.00111   2.82735
    R3        2.82844   0.00002   0.00000  -0.00110  -0.00110   2.82734
    R4        2.70902  -0.00004   0.00000  -0.19430  -0.19430   2.51472
    R5        2.05002  -0.00000   0.00000   0.00161   0.00161   2.05163
    R6        2.05002  -0.00000   0.00000   0.00160   0.00160   2.05163
    R7        2.35335  -0.02150   0.00000   0.05197   0.05197   2.40531
    R8        2.07075  -0.00001   0.00000   0.00075   0.00075   2.07149
    R9        2.05891  -0.00000   0.00000   0.00020   0.00020   2.05912
   R10        2.05686   0.00000   0.00000   0.00019   0.00019   2.05705
   R11        2.05687   0.00000   0.00000   0.00018   0.00018   2.05705
   R12        2.05891   0.00000   0.00000   0.00020   0.00020   2.05911
   R13        2.07075  -0.00001   0.00000   0.00075   0.00075   2.07150
   R14        2.43555   0.00005   0.00000  -0.02139  -0.02139   2.41416
    A1        2.11940   0.00002   0.00000  -0.00440  -0.00505   2.11434
    A2        2.11945   0.00001   0.00000  -0.00441  -0.00506   2.11440
    A3        2.03658  -0.00004   0.00000   0.00100   0.00032   2.03690
    A4        1.67819   0.00005   0.00000   0.01632   0.01667   1.69486
    A5        2.08352   0.00001   0.00000  -0.01932  -0.02152   2.06200
    A6        2.08356  -0.00001   0.00000  -0.01937  -0.02158   2.06198
    A7        1.71920  -0.00003   0.00000   0.05107   0.05123   1.77044
    A8        1.71895  -0.00001   0.00000   0.05135   0.05151   1.77046
    A9        2.02360  -0.00001   0.00000  -0.01474  -0.01804   2.00557
   A10        2.78027   0.00004   0.00000  -0.08103  -0.08103   2.69923
   A11        1.90835   0.00001   0.00000  -0.00153  -0.00153   1.90682
   A12        1.94303  -0.00001   0.00000   0.00396   0.00396   1.94699
   A13        1.95387  -0.00001   0.00000  -0.00155  -0.00156   1.95231
   A14        1.87165   0.00000   0.00000   0.00054   0.00054   1.87219
   A15        1.88432  -0.00000   0.00000  -0.00198  -0.00199   1.88233
   A16        1.89990   0.00001   0.00000   0.00048   0.00048   1.90037
   A17        1.95391  -0.00001   0.00000  -0.00158  -0.00158   1.95233
   A18        1.94296  -0.00000   0.00000   0.00403   0.00403   1.94699
   A19        1.90842   0.00000   0.00000  -0.00161  -0.00162   1.90681
   A20        1.89992   0.00001   0.00000   0.00046   0.00046   1.90038
   A21        1.88429   0.00000   0.00000  -0.00195  -0.00196   1.88233
   A22        1.87162   0.00000   0.00000   0.00056   0.00056   1.87218
   A23        1.73502   0.00007   0.00000  -0.02993  -0.02993   1.70509
    D1        1.63949   0.00001   0.00000   0.03472   0.03465   1.67414
    D2       -2.83943   0.00001   0.00000   0.09979   0.09891  -2.74052
    D3       -0.16449   0.00000   0.00000  -0.03066  -0.02993  -0.19442
    D4       -1.64002   0.00001   0.00000  -0.03430  -0.03422  -1.67424
    D5        0.16425   0.00001   0.00000   0.03077   0.03005   0.19429
    D6        2.83919  -0.00000   0.00000  -0.09968  -0.09880   2.74039
    D7        1.81421  -0.00000   0.00000  -0.07732  -0.07734   1.73687
    D8       -2.40415   0.00000   0.00000  -0.07520  -0.07522  -2.47937
    D9       -0.27309  -0.00000   0.00000  -0.07284  -0.07286  -0.34596
   D10       -1.19572   0.00000   0.00000  -0.01103  -0.01101  -1.20673
   D11        0.86911   0.00000   0.00000  -0.00892  -0.00890   0.86022
   D12        3.00017   0.00000   0.00000  -0.00656  -0.00654   2.99362
   D13        0.27260   0.00000   0.00000   0.07314   0.07316   0.34576
   D14        2.40365   0.00000   0.00000   0.07552   0.07554   2.47919
   D15       -1.81474   0.00000   0.00000   0.07765   0.07767  -1.73707
   D16       -3.00067  -0.00000   0.00000   0.00686   0.00684  -2.99383
   D17       -0.86961  -0.00000   0.00000   0.00923   0.00921  -0.86040
   D18        1.19519  -0.00000   0.00000   0.01136   0.01134   1.20653
   D19       -0.00011   0.00001   0.00000   0.00031   0.00031   0.00020
   D20       -2.11191  -0.00000   0.00000   0.00537   0.00589  -2.10602
   D21        2.11168   0.00001   0.00000  -0.00475  -0.00527   2.10641
   D22       -0.00005   0.00002   0.00000   0.00007   0.00007   0.00003
         Item               Value     Threshold  Converged?
 Maximum Force            0.021504     0.000450     NO 
 RMS     Force            0.002800     0.000300     NO 
 Maximum Displacement     0.263056     0.001800     NO 
 RMS     Displacement     0.060262     0.001200     NO 
 Predicted change in Energy= 6.100624D-04
 GradGradGradGradGradGradGradGradGradGradGradGradGradGradGradGradGradGrad

                          Input orientation:                          
 ---------------------------------------------------------------------
 Center     Atomic      Atomic             Coordinates (Angstroms)
 Number     Number       Type             X           Y           Z
 ---------------------------------------------------------------------
      1          6           0       -0.746962    0.001127    0.199706
      2          6           0       -0.140973    0.009440    1.448831
      3          1           0        1.118984    0.007024    1.020631
      4          1           0       -0.170398    0.928403    2.026180
      5          1           0       -0.169891   -0.901945    2.038094
      6          6           0       -1.203169   -1.276846   -0.430516
      7          1           0       -2.282527   -1.390586   -0.276652
      8          1           0       -1.027878   -1.277733   -1.505961
      9          1           0       -0.710583   -2.143153    0.007437
     10          6           0       -1.204064    1.270457   -0.447107
     11          1           0       -0.712252    2.142771   -0.020351
     12          1           0       -1.028601    1.257535   -1.522446
     13          1           0       -2.283542    1.385312   -0.294903
     14          8           0        1.274301   -0.005006   -0.893350
     15          8           0        2.032795    0.001633    0.134608
 ---------------------------------------------------------------------
                    Distance matrix (angstroms):
                    1          2          3          4          5
     1  C    0.000000
     2  C    1.388382   0.000000
     3  H    2.038555   1.330733   0.000000
     4  H    2.127974   1.085676   1.876853   0.000000
     5  H    2.127961   1.085675   1.876873   1.830387   0.000000
     6  C    1.496168   2.512913   3.024324   3.459060   2.702267
     7  H    2.126439   3.086036   3.899555   3.891251   3.171757
     8  H    2.150278   3.342784   3.555739   4.251862   3.665744
     9  H    2.153190   2.652494   2.999522   3.715048   2.440596
    10  C    1.496165   2.512948   3.024412   2.702335   3.459056
    11  H    2.153200   2.652538   2.999748   2.440612   3.715057
    12  H    2.150276   3.342769   3.555719   3.665731   4.251844
    13  H    2.126425   3.086136   3.899678   3.171998   3.891265
    14  O    2.297893   2.736607   1.920310   3.388520   3.388739
    15  O    2.780519   2.540178   1.272838   3.048116   3.048202
                    6          7          8          9         10
     6  C    0.000000
     7  H    1.096187   0.000000
     8  H    1.089637   1.760136   0.000000
     9  H    1.088546   1.765806   1.772005   0.000000
    10  C    2.547357   2.876333   2.765047   3.478918   0.000000
    11  H    3.478939   3.875057   3.742527   4.286014   1.088545
    12  H    2.765116   3.183846   2.535321   3.742506   1.089636
    13  H    2.876226   2.775958   3.183576   3.875006   1.096189
    14  O    2.823056   3.866674   2.700954   3.053334   2.822805
    15  O    3.524958   4.552956   3.700806   3.484595   3.524991
                   11         12         13         14         15
    11  H    0.000000
    12  H    1.772007   0.000000
    13  H    1.765807   1.760132   0.000000
    14  O    3.053108   2.700579   3.866441   0.000000
    15  O    3.484791   3.700711   4.553000   1.277519   0.000000
 Stoichiometry    C4H9O2(2)
 Framework group  C1[X(C4H9O2)]
 Deg. of freedom    39
 Full point group                 C1      NOp   1
 Largest Abelian subgroup         C1      NOp   1
 Largest concise Abelian subgroup C1      NOp   1
                         Standard orientation:                         
 ---------------------------------------------------------------------
 Center     Atomic      Atomic             Coordinates (Angstroms)
 Number     Number       Type             X           Y           Z
 ---------------------------------------------------------------------
      1          6           0        0.724894    0.000348    0.233598
      2          6           0        0.060658    0.002252    1.452774
      3          1           0       -1.177698    0.001644    0.965614
      4          1           0        0.062174   -0.912060    2.038200
      5          1           0        0.062393    0.918326    2.035438
      6          6           0        1.211217    1.273075   -0.384604
      7          1           0        2.282197    1.387695   -0.180912
      8          1           0        1.086847    1.265393   -1.467092
      9          1           0        0.699133    2.143028    0.022685
     10          6           0        1.211102   -1.274279   -0.380762
     11          1           0        0.699096   -2.142982    0.029283
     12          1           0        1.086562   -1.269926   -1.463249
     13          1           0        2.282119   -1.388260   -0.176895
     14          8           0       -1.242559   -0.001629   -0.953598
     15          8           0       -2.048698    0.000225    0.037459
 ---------------------------------------------------------------------
 Rotational constants (GHZ):           4.4144007           2.4611453           2.4553898
 Standard basis: CC-pVTZ+d (5D, 7F)
 There are   345 symmetry adapted cartesian basis functions of A   symmetry.
 There are   306 symmetry adapted basis functions of A   symmetry.
   306 basis functions,   465 primitive gaussians,   345 cartesian basis functions
    25 alpha electrons       24 beta electrons
       nuclear repulsion energy       250.6286452973 Hartrees.
 NAtoms=   15 NActive=   15 NUniq=   15 SFac= 1.00D+00 NAtFMM=   60 NAOKFM=F Big=F
 Integral buffers will be    131072 words long.
 Raffenetti 2 integral format.
 Two-electron integral symmetry is turned on.
 One-electron integrals computed using PRISM.
 NBasis=   306 RedAO= T EigKep=  3.31D-04  NBF=   306
 NBsUse=   306 1.00D-06 EigRej= -1.00D+00 NBFU=   306
 Initial guess from the checkpoint file:  "RtertbO2-OOH-elim-concerted-TS2-b3lyp-c-A.chk"
 B after Tr=    -0.000000   -0.000000   -0.000000
         Rot=    0.999683    0.004039    0.024846    0.000213 Ang=   2.88 deg.
 Initial guess <Sx>= 0.0000 <Sy>= 0.0000 <Sz>= 0.5000 <S**2>= 0.7578 S= 0.5039
 ExpMin= 1.03D-01 ExpMax= 1.53D+04 ExpMxC= 5.22D+02 IAcc=3 IRadAn=         5 AccDes= 0.00D+00
 Harris functional with IExCor=  402 and IRadAn=       5 diagonalized for initial guess.
 HarFok:  IExCor=  402 AccDes= 0.00D+00 IRadAn=         5 IDoV= 1 UseB2=F ITyADJ=14
 ICtDFT=  3500011 ScaDFX=  1.000000  1.000000  1.000000  1.000000
 FoFCou: FMM=F IPFlag=           0 FMFlag=      100000 FMFlg1=           0
         NFxFlg=           0 DoJE=T BraDBF=F KetDBF=T FulRan=T
         wScrn=  0.000000 ICntrl=       500 IOpCl=  0 I1Cent=   200000004 NGrid=           0
         NMat0=    1 NMatS0=      1 NMatT0=    0 NMatD0=    1 NMtDS0=    0 NMtDT0=    0
 Petite list used in FoFCou.
 Requested convergence on RMS density matrix=1.00D-08 within 128 cycles.
 Requested convergence on MAX density matrix=1.00D-06.
 Requested convergence on             energy=1.00D-06.
 No special actions if energy rises.
 Integral accuracy reduced to 1.0D-05 until final iterations.
 Initial convergence to 1.0D-05 achieved.  Increase integral accuracy.
 SCF Done:  E(UB3LYP) =  -308.247982963     A.U. after   16 cycles
            NFock= 16  Conv=0.90D-08     -V/T= 2.0064
 <Sx>= 0.0000 <Sy>= 0.0000 <Sz>= 0.5000 <S**2>= 0.7593 S= 0.5046
 <L.S>= 0.000000000000E+00
 Annihilation of the first spin contaminant:
 S**2 before annihilation     0.7593,   after     0.7501
 Calling FoFJK, ICntrl=      2127 FMM=F ISym2X=0 I1Cent= 0 IOpClX= 1 NMat=1 NMatS=1 NMatT=0.
 ***** Axes restored to original set *****
 -------------------------------------------------------------------
 Center     Atomic                   Forces (Hartrees/Bohr)
 Number     Number              X              Y              Z
 -------------------------------------------------------------------
      1        6           0.001139464   -0.000012038   -0.002674577
      2        6          -0.001658842    0.000022782    0.003525664
      3        1           0.000845688   -0.000004501   -0.000266905
      4        1          -0.000280665    0.000006481    0.000215678
      5        1          -0.000277287   -0.000004245    0.000216154
      6        6          -0.000918577   -0.000163732    0.000235302
      7        1           0.000091659   -0.000141119   -0.000019899
      8        1           0.000005917    0.000099555   -0.000055257
      9        1           0.000076177    0.000016890   -0.000018649
     10        6          -0.000927180    0.000166790    0.000237143
     11        1           0.000077362   -0.000018251   -0.000018396
     12        1           0.000006316   -0.000100435   -0.000053830
     13        1           0.000091771    0.000142552   -0.000021794
     14        8          -0.000002802   -0.000010482   -0.000483784
     15        8           0.001730998   -0.000000249   -0.000816851
 -------------------------------------------------------------------
 Cartesian Forces:  Max     0.003525664 RMS     0.000823736

 GradGradGradGradGradGradGradGradGradGradGradGradGradGradGradGradGradGrad
 Berny optimization.
 FormGI is forming the generalized inverse of G from B-inverse, IUseBI=4.
 Internal  Forces:  Max     0.002940908 RMS     0.000614876
 Search for a saddle point.
 Step number   2 out of a maximum of   69
 All quantities printed in internal units (Hartrees-Bohrs-Radians)
 Swapping is turned off.
 Update second derivatives using D2CorX and points    1    2
 ITU=  0  0
     Eigenvalues ---   -0.05293   0.00121   0.00175   0.00207   0.01425
     Eigenvalues ---    0.01427   0.03358   0.03516   0.05283   0.05426
     Eigenvalues ---    0.05532   0.05707   0.05849   0.07044   0.07836
     Eigenvalues ---    0.12076   0.12320   0.12804   0.12827   0.13831
     Eigenvalues ---    0.13888   0.14235   0.14300   0.18338   0.20204
     Eigenvalues ---    0.27444   0.31242   0.31798   0.32591   0.32825
     Eigenvalues ---    0.33739   0.33907   0.34480   0.34594   0.34971
     Eigenvalues ---    0.34973   0.35126   0.52212   0.54126
 Eigenvectors required to have negative eigenvalues:
                          R7        R4        A10       A23       D6
   1                    0.64773  -0.59693  -0.28008  -0.14858  -0.14592
                          D2        R1        A8        A7        R14
   1                    0.14590   0.12069   0.09366   0.09352  -0.07762
 RFO step:  Lambda0=2.117021345D-06 Lambda=-2.44755240D-04.
 Linear search not attempted -- option 19 set.
 Iteration  1 RMS(Cart)=  0.03003832 RMS(Int)=  0.00057705
 Iteration  2 RMS(Cart)=  0.00060714 RMS(Int)=  0.00004224
 Iteration  3 RMS(Cart)=  0.00000021 RMS(Int)=  0.00004224
 Variable       Old X    -DE/DX   Delta X   Delta X   Delta X     New X
                                 (Linear)    (Quad)   (Total)
    R1        2.62366   0.00231   0.00000   0.00546   0.00546   2.62912
    R2        2.82735   0.00033   0.00000   0.00138   0.00138   2.82873
    R3        2.82734   0.00033   0.00000   0.00138   0.00138   2.82872
    R4        2.51472   0.00294   0.00000   0.04394   0.04394   2.55866
    R5        2.05163   0.00013   0.00000  -0.00005  -0.00005   2.05158
    R6        2.05163   0.00013   0.00000  -0.00005  -0.00005   2.05157
    R7        2.40531   0.00215   0.00000   0.00425   0.00425   2.40957
    R8        2.07149  -0.00008   0.00000  -0.00039  -0.00039   2.07111
    R9        2.05912   0.00006   0.00000  -0.00001  -0.00001   2.05911
   R10        2.05705   0.00001   0.00000   0.00020   0.00020   2.05725
   R11        2.05705   0.00001   0.00000   0.00020   0.00020   2.05726
   R12        2.05911   0.00006   0.00000  -0.00001  -0.00001   2.05911
   R13        2.07150  -0.00008   0.00000  -0.00039  -0.00039   2.07111
   R14        2.41416   0.00039   0.00000   0.00146   0.00146   2.41562
    A1        2.11434   0.00006   0.00000  -0.00292  -0.00309   2.11125
    A2        2.11440   0.00005   0.00000  -0.00298  -0.00315   2.11125
    A3        2.03690  -0.00017   0.00000  -0.00010  -0.00028   2.03662
    A4        1.69486  -0.00010   0.00000  -0.01850  -0.01850   1.67635
    A5        2.06200  -0.00003   0.00000   0.00022   0.00024   2.06224
    A6        2.06198  -0.00002   0.00000   0.00025   0.00028   2.06226
    A7        1.77044   0.00021   0.00000   0.00972   0.00970   1.78013
    A8        1.77046   0.00020   0.00000   0.00972   0.00969   1.78016
    A9        2.00557  -0.00013   0.00000  -0.00078  -0.00082   2.00475
   A10        2.69923   0.00134   0.00000  -0.00482  -0.00482   2.69441
   A11        1.90682   0.00025   0.00000   0.00009   0.00009   1.90691
   A12        1.94699  -0.00016   0.00000   0.00069   0.00069   1.94768
   A13        1.95231  -0.00007   0.00000  -0.00143  -0.00143   1.95088
   A14        1.87219  -0.00001   0.00000   0.00183   0.00183   1.87402
   A15        1.88233  -0.00005   0.00000  -0.00098  -0.00098   1.88135
   A16        1.90037   0.00006   0.00000  -0.00012  -0.00012   1.90026
   A17        1.95233  -0.00007   0.00000  -0.00145  -0.00145   1.95088
   A18        1.94699  -0.00016   0.00000   0.00069   0.00069   1.94768
   A19        1.90681   0.00025   0.00000   0.00011   0.00011   1.90691
   A20        1.90038   0.00006   0.00000  -0.00012  -0.00012   1.90026
   A21        1.88233  -0.00005   0.00000  -0.00099  -0.00099   1.88134
   A22        1.87218  -0.00002   0.00000   0.00184   0.00184   1.87402
   A23        1.70509   0.00069   0.00000   0.00075   0.00075   1.70584
    D1        1.67414   0.00018   0.00000   0.01753   0.01751   1.69165
    D2       -2.74052   0.00036   0.00000   0.01792   0.01791  -2.72261
    D3       -0.19442   0.00000   0.00000   0.01713   0.01711  -0.17732
    D4       -1.67424  -0.00019   0.00000  -0.01742  -0.01740  -1.69164
    D5        0.19429  -0.00001   0.00000  -0.01703  -0.01700   0.17729
    D6        2.74039  -0.00036   0.00000  -0.01782  -0.01780   2.72258
    D7        1.73687  -0.00021   0.00000  -0.07323  -0.07323   1.66364
    D8       -2.47937  -0.00018   0.00000  -0.07049  -0.07049  -2.54986
    D9       -0.34596  -0.00027   0.00000  -0.07116  -0.07117  -0.41713
   D10       -1.20673   0.00011   0.00000  -0.03945  -0.03944  -1.24618
   D11        0.86022   0.00015   0.00000  -0.03671  -0.03670   0.82351
   D12        2.99362   0.00006   0.00000  -0.03739  -0.03738   2.95624
   D13        0.34576   0.00027   0.00000   0.07156   0.07156   0.41732
   D14        2.47919   0.00017   0.00000   0.07086   0.07087   2.55006
   D15       -1.73707   0.00022   0.00000   0.07362   0.07363  -1.66344
   D16       -2.99383  -0.00005   0.00000   0.03779   0.03778  -2.95605
   D17       -0.86040  -0.00015   0.00000   0.03709   0.03708  -0.82332
   D18        1.20653  -0.00011   0.00000   0.03985   0.03985   1.24637
   D19        0.00020  -0.00001   0.00000  -0.00028  -0.00028  -0.00008
   D20       -2.10602  -0.00000   0.00000   0.00263   0.00270  -2.10332
   D21        2.10641  -0.00001   0.00000  -0.00316  -0.00322   2.10319
   D22        0.00003  -0.00002   0.00000  -0.00014  -0.00014  -0.00011
         Item               Value     Threshold  Converged?
 Maximum Force            0.002941     0.000450     NO 
 RMS     Force            0.000615     0.000300     NO 
 Maximum Displacement     0.069495     0.001800     NO 
 RMS     Displacement     0.030057     0.001200     NO 
 Predicted change in Energy=-1.267143D-04
 GradGradGradGradGradGradGradGradGradGradGradGradGradGradGradGradGradGrad

                          Input orientation:                          
 ---------------------------------------------------------------------
 Center     Atomic      Atomic             Coordinates (Angstroms)
 Number     Number       Type             X           Y           Z
 ---------------------------------------------------------------------
      1          6           0       -0.736631    0.001084    0.191756
      2          6           0       -0.158213    0.009505    1.457059
      3          1           0        1.125664    0.007218    1.027027
      4          1           0       -0.201277    0.928181    2.033955
      5          1           0       -0.200586   -0.901640    2.045828
      6          6           0       -1.197074   -1.277379   -0.436118
      7          1           0       -2.267227   -1.411045   -0.240967
      8          1           0       -1.062665   -1.264303   -1.517349
      9          1           0       -0.673964   -2.139811   -0.026567
     10          6           0       -1.198057    1.270951   -0.452623
     11          1           0       -0.675477    2.138999   -0.054418
     12          1           0       -1.063817    1.243899   -1.533616
     13          1           0       -2.268270    1.406411   -0.259043
     14          8           0        1.282113   -0.005416   -0.889776
     15          8           0        2.040721    0.001780    0.139055
 ---------------------------------------------------------------------
                    Distance matrix (angstroms):
                    1          2          3          4          5
     1  C    0.000000
     2  C    1.391270   0.000000
     3  H    2.041044   1.353985   0.000000
     4  H    2.130683   1.085647   1.903378   0.000000
     5  H    2.130690   1.085646   1.903396   1.829859   0.000000
     6  C    1.496897   2.513846   3.030857   3.457942   2.700782
     7  H    2.126988   3.057644   3.889857   3.862045   3.124088
     8  H    2.151405   3.359721   3.588788   4.261541   3.683875
     9  H    2.152910   2.662086   2.993068   3.725823   2.460076
    10  C    1.496896   2.513843   3.030852   2.700765   3.457940
    11  H    2.152910   2.662118   2.993012   2.460131   3.725860
    12  H    2.151406   3.359760   3.588886   3.683913   4.261564
    13  H    2.126988   3.057563   3.889795   3.123940   3.861974
    14  O    2.290214   2.753615   1.923218   3.408848   3.408721
    15  O    2.777852   2.563690   1.275088   3.078216   3.078214
                    6          7          8          9         10
     6  C    0.000000
     7  H    1.095983   0.000000
     8  H    1.089632   1.761152   0.000000
     9  H    1.088652   1.765093   1.772014   0.000000
    10  C    2.548384   2.894999   2.753086   3.476994   0.000000
    11  H    3.476981   3.895032   3.724587   4.278901   1.088653
    12  H    2.753017   3.188709   2.508255   3.724604   1.089633
    13  H    2.895090   2.817514   3.188970   3.895067   1.095983
    14  O    2.823130   3.872280   2.734342   3.021093   2.823377
    15  O    3.528510   4.549604   3.738668   3.461698   3.528535
                   11         12         13         14         15
    11  H    0.000000
    12  H    1.772016   0.000000
    13  H    1.765091   1.761151   0.000000
    14  O    3.021340   2.734722   3.872505   0.000000
    15  O    3.461628   3.738829   4.549601   1.278292   0.000000
 Stoichiometry    C4H9O2(2)
 Framework group  C1[X(C4H9O2)]
 Deg. of freedom    39
 Full point group                 C1      NOp   1
 Largest Abelian subgroup         C1      NOp   1
 Largest concise Abelian subgroup C1      NOp   1
                         Standard orientation:                         
 ---------------------------------------------------------------------
 Center     Atomic      Atomic             Coordinates (Angstroms)
 Number     Number       Type             X           Y           Z
 ---------------------------------------------------------------------
      1          6           0        0.718233   -0.000305    0.223645
      2          6           0        0.083559   -0.002062    1.461715
      3          1           0       -1.179706   -0.001487    0.974438
      4          1           0        0.100112   -0.917803    2.044616
      5          1           0        0.099990    0.912054    2.047162
      6          6           0        1.207183    1.274771   -0.389390
      7          1           0        2.267570    1.409029   -0.147045
      8          1           0        1.121468    1.256235   -1.475487
      9          1           0        0.666724    2.139473   -0.008131
[...]
 ! D16   D(6,1,10,11)         -170.767          -DE/DX =    0.0                 !
 ! D17   D(6,1,10,12)          -48.6011         -DE/DX =    0.0                 !
 ! D18   D(6,1,10,13)           69.9161         -DE/DX =    0.0                 !
 ! D19   D(1,2,3,15)             0.0018         -DE/DX =    0.0                 !
 ! D20   D(4,2,3,15)          -120.5673         -DE/DX =    0.0                 !
 ! D21   D(5,2,3,15)           120.571          -DE/DX =    0.0                 !
 ! D22   D(2,3,15,14)           -0.0026         -DE/DX =    0.0                 !
 --------------------------------------------------------------------------------
 GradGradGradGradGradGradGradGradGradGradGradGradGradGradGradGradGradGrad


 ----------------------------------------------------------------------

 Electric dipole moment (input orientation):
 (Debye = 10**-18 statcoulomb cm , SI units = C m)
                  (au)            (Debye)         (10**-30 SI)
   Tot        0.111895D+01      0.284409D+01      0.948686D+01
   x         -0.106579D+01     -0.270898D+01     -0.903618D+01
   y          0.185696D-02      0.471993D-02      0.157440D-01
   z          0.340779D+00      0.866173D+00      0.288924D+01

 Dipole polarizability, Alpha (input orientation).
 (esu units = cm**3 , SI units = C**2 m**2 J**-1)
 Alpha(0;0):
               (au)            (10**-24 esu)      (10**-40 SI)
   iso        0.647068D+02      0.958856D+01      0.106687D+02
   aniso      0.189385D+02      0.280640D+01      0.312254D+01
   xx         0.758674D+02      0.112424D+02      0.125088D+02
   yx         0.257098D-01      0.380980D-02      0.423898D-02
   yy         0.550781D+02      0.816173D+01      0.908115D+01
   zx         0.312145D+01      0.462551D+00      0.514657D+00
   zy         0.522550D-01      0.774339D-02      0.861568D-02
   zz         0.631749D+02      0.936156D+01      0.104161D+02

 ----------------------------------------------------------------------

 Dipole orientation:
     6         -0.07505374         -0.00023350          1.44585961
     6          2.53132149          0.01255899          1.10452003
     1          2.48794935          0.01234158         -1.43460514
     1          3.55136842          1.74709894          1.50429503
     1          3.56835135         -1.71188079          1.50429698
     6         -1.47378218         -2.41470242          1.90862797
     1         -1.78451498         -2.64628901          3.94305758
     1         -3.32315973         -2.40214294          1.00301441
     1         -0.41766820         -4.04954862          1.24231444
     6         -1.49740651          2.40039177          1.90863940
     1         -0.45741180          4.04551847          1.24227509
     1         -3.34659780          2.36966605          1.00307956
     1         -1.81033806          2.62894197          3.94307543
     8         -0.87199776         -0.00415581         -2.81471868
     8          1.41516771          0.00710494         -3.59129003

 Electric dipole moment (dipole orientation):
 (Debye = 10**-18 statcoulomb cm , SI units = C m)
                  (au)            (Debye)         (10**-30 SI)
   Tot        0.111895D+01      0.284409D+01      0.948686D+01
   x          0.000000D+00      0.000000D+00      0.000000D+00
   y          0.000000D+00      0.000000D+00      0.000000D+00
   z          0.111895D+01      0.284409D+01      0.948686D+01

 Dipole polarizability, Alpha (dipole orientation).
 (esu units = cm**3 , SI units = C**2 m**2 J**-1)
 Alpha(0;0):
               (au)            (10**-24 esu)      (10**-40 SI)
   iso        0.647068D+02      0.958856D+01      0.106687D+02
   aniso      0.189385D+02      0.280640D+01      0.312254D+01
   xx         0.661633D+02      0.980439D+01      0.109089D+02
   yx         0.545003D-01      0.807611D-02      0.898588D-02
   yy         0.550780D+02      0.816172D+01      0.908114D+01
   zx        -0.622424D+01     -0.922338D+00     -0.102624D+01
   zy        -0.305741D-01     -0.453062D-02     -0.504099D-02
   zz         0.728791D+02      0.107996D+02      0.120161D+02

 ----------------------------------------------------------------------
 1\1\GINC-CNODE1163\Freq\UB3LYP\CC-pVTZ+d\C4H9O2(2)\CVANSTADEN\29-Mar-2
 022\0\\#N Geom=AllCheck Guess=TCheck SCRF=Check GenChk UB3LYP/CC-pVTZ+
 d Freq\\RtertbO2-OOH-elim-concerted-TS2-b3lyp-c-A\\0,2\C,-0.7408646133
 ,0.0010980704,0.1951877941\C,-0.1487567867,0.0092389946,1.4538784695\H
 ,1.1240693439,0.0068662777,1.0228070893\H,-0.1847526036,0.9281212134,2
 .0309264022\H,-0.1842344727,-0.9022772775,2.0425244418\C,-1.2010891018
 ,-1.2770716247,-0.4331238272\H,-2.2767466226,-1.3980343172,-0.26166903
 43\H,-1.0426685062,-1.2724065863,-1.511242359\H,-0.6960832847,-2.14210
 11263,-0.006750627\C,-1.2018147825,1.2709459671,-0.4492581742\H,-0.697
 2780764,2.1415893325,-0.0338983576\H,-1.0434190049,1.2527056851,-1.527
 2361494\H,-2.2775348558,1.3934752648,-0.2793146898\O,1.2781894359,-0.0
 052301722,-0.8931421328\O,2.0382249313,0.0015132986,0.1345131546\\Vers
 ion=ES64L-G16RevB.01\State=2-A\HF=-308.2480533\S2=0.759157\S2-1=0.\S2A
 =0.750055\RMSD=7.390e-09\RMSF=4.380e-07\ZeroPoint=0.1203634\Thermal=0.
 1279107\Dipole=-1.065794,0.001857,0.3407785\DipoleDeriv=0.4665673,0.00
 10922,0.170303,0.0003311,0.4101302,0.0010559,0.0502766,0.00102,0.56898
 53,-0.4432109,-0.0021328,-0.3172417,-0.0005923,-0.0006494,-0.0017146,-
 0.0742562,-0.0016466,-0.257441,0.6462359,-0.0005686,-0.1129427,-0.0006
 358,0.1261432,-0.0003007,-0.1240386,-0.0003016,0.0841322,0.1467553,0.0
 198178,0.0648778,-0.0050835,-0.0624545,-0.0632374,0.0015753,-0.0431889
 ,-0.007728,0.1467656,-0.0188771,0.065088,0.0052209,-0.0611044,0.063949
 8,0.0014853,0.0438664,-0.0090851,-0.0260159,-0.0711145,-0.0570245,-0.0
 068776,-0.0715017,-0.0366202,-0.0187216,-0.0354555,0.0379498,-0.140561
 ,-0.0331863,0.0174977,-0.0624275,0.0399681,-0.0243661,0.0085118,-0.015
 8408,0.0640414,0.0811513,0.0108552,0.0502752,-0.0424223,0.044918,0.022
 2448,-0.0188721,-0.021056,-0.1026894,0.036427,0.0849359,-0.0365494,0.0
 215649,-0.0623483,0.0323726,-0.052303,0.0616653,0.0252104,-0.0260654,0
 .0704141,-0.0579446,0.0066688,-0.0705352,0.0379629,-0.0188218,0.036814
 4,0.0370247,0.0364856,-0.0853379,-0.0354518,-0.0221704,-0.0635829,-0.0
 312668,-0.0519927,-0.0605659,0.0263902,0.0811344,-0.0101959,0.0504162,
 0.0421976,0.0448983,-0.0240873,-0.0194233,0.0191753,-0.1026533,-0.1406
 1,0.0333043,0.0170673,0.0624305,0.0405359,0.0246737,0.007715,0.0161434
 ,0.0635251,0.2526171,0.0008751,0.1177941,0.0050107,-0.1996934,-0.00128
 95,0.7683455,-0.001098,-0.4078401,-1.1176762,0.0001186,0.0638354,-0.00
 32151,-0.114724,0.0006227,-0.4594804,0.0004684,-0.0198223\Polar=75.867
 4225,0.0257098,55.0780864,3.1214492,0.052255,63.1749278\Quadrupole=-2.
 2874785,1.8065554,0.4809231,0.0093177,1.6580296,-0.0079338\PG=C01 [X(C
 4H9O2)]\NImag=1\\0.30502569,0.00124614,0.52605726,0.20660665,0.0002635
 3,0.55838003,-0.10126196,-0.00040651,-0.06436658,0.16621993,-0.0008017
 4,-0.10587331,-0.00134216,0.00045212,0.62857498,-0.12676622,-0.0013594
 3,-0.31481895,0.09199850,0.00014561,0.64748638,-0.02080139,-0.00041016
 ,-0.06400124,0.03612434,0.00015984,0.02242925,0.01421045,-0.00006054,-
 0.00382430,0.00027118,-0.00034019,-0.02655882,-0.00003380,0.00030081,0
 .05000590,-0.00878812,0.00028707,0.04189032,-0.05663004,-0.00005609,-0
 .03288360,0.04914887,0.00005648,0.05661406,-0.00222389,-0.01568682,-0.
 01680269,-0.02135674,0.01682938,0.00914726,-0.00811956,0.01377963,0.01
 306054,0.03216459,-0.00018694,0.00046264,-0.00052919,0.00879454,-0.249
 87085,-0.11956439,-0.00084789,-0.00170957,-0.00015906,-0.01100817,0.26
 334156,0.00243302,-0.02493633,-0.01046496,-0.00105745,-0.11778539,-0.1
 2796453,0.00285845,-0.00437532,-0.00426837,-0.00098463,0.13265102,0.13
 420312,-0.00223284,0.01547105,-0.01700058,-0.02134182,-0.01658420,0.00
 929104,-0.00811245,-0.01361673,0.01323411,-0.00215303,0.00200052,-0.00
 092652,0.03215200,0.00021606,0.00079243,0.00037705,-0.00867919,-0.2468
 5806,0.12107618,0.00088034,-0.00165974,0.00013341,-0.00200435,-0.01578
 727,0.01384589,0.01086548,0.25997151,0.00241647,0.02479508,-0.01078565
 ,-0.00101382,0.11929147,-0.13099158,0.00284508,0.00434388,-0.00432550,
 -0.00089342,-0.01351039,0.01072627,-0.00104780,-0.13424538,0.13758529,
 -0.07939025,-0.02530552,-0.02105420,0.00118064,-0.01390849,-0.01031769
 ,0.00019589,-0.00108585,0.00199638,0.00474496,0.00168474,-0.00298656,-
 0.00286024,0.00018755,0.00050144,0.51431314,-0.03015068,-0.18024941,-0
 .04529864,-0.00450701,-0.00074351,-0.00578685,0.00164059,-0.00015043,-
 0.00117489,0.00085097,0.00099997,0.00173372,0.00033581,0.00102102,0.00
 157654,-0.03995906,0.51865120,-0.02232552,-0.04295569,-0.10503086,-0.0
 1540749,-0.02618721,-0.01316118,0.00111807,-0.00072191,-0.00302482,-0.
 00619925,-0.00073331,-0.00169464,0.00318688,-0.00199852,0.00094590,0.0
 0256045,-0.03520553,0.55793035,-0.01219563,-0.00430028,-0.00119969,0.0
 0203059,-0.00117165,0.00027721,-0.00123160,0.00007230,0.00111549,0.000
 18841,-0.00006369,-0.00024398,-0.00056996,0.00015303,0.00001229,-0.283
 82921,-0.02250465,0.04106813,0.31327117,-0.02801911,-0.00351633,0.0038
 0657,0.00100178,-0.00132397,-0.00028935,-0.00057509,-0.00026760,0.0011
 9227,0.00080244,0.00025828,-0.00070774,-0.00024206,0.00002775,-0.00013
 865,-0.02732843,-0.04867776,0.00465794,0.02982379,0.05071788,-0.015242
 69,-0.00218305,0.00014802,0.00032176,-0.00167615,-0.00072624,0.0010390
 0,0.00012802,0.00017605,0.00092957,0.00011886,-0.00066049,-0.00055898,
 0.00024778,-0.00010943,0.03835710,0.00423550,-0.04875719,-0.04360520,-
 0.00272520,0.05171079,-0.00103283,-0.00157826,-0.01354097,0.00125989,-
 0.00205710,-0.00089448,-0.00029508,-0.00002385,0.00037947,-0.00089563,
 -0.00040798,-0.00040470,0.00009636,-0.00012092,0.00024286,-0.04863039,
 0.00254457,0.04107006,-0.00493054,-0.00042184,0.03201168,0.05237132,0.
 00451957,0.00110497,-0.02943563,-0.00189736,-0.00391480,-0.00059055,0.
 00071297,-0.00014675,-0.00075759,-0.00122979,-0.00007068,-0.00061812,0
 .00050012,0.00010979,-0.00015423,0.00134129,-0.04947901,0.00606398,-0.
 00007204,-0.00062649,0.00322011,0.00209799,0.05136010,-0.00023589,-0.0
 0103690,-0.01537665,0.00068996,-0.00249584,0.00021438,0.00090785,0.000
 09799,-0.00043368,-0.00088305,-0.00030100,-0.00025371,0.00049955,-0.00
 013605,0.00031027,0.03903293,0.00489984,-0.30300968,0.00139419,0.00043
 995,-0.00456482,-0.04288061,-0.00273918,0.33060212,0.00406518,-0.01101
 289,0.00486810,0.00015739,-0.00021783,0.00051653,0.00022068,-0.0001007
 8,-0.00018516,-0.00006901,-0.00003749,0.00025812,0.00025507,0.00010305
 ,0.00022781,-0.10451322,0.10139222,-0.05040227,-0.01421562,0.02490429,
 -0.01301573,0.00215463,-0.00540400,0.00198451,0.11121798,0.01422777,-0
 .02399243,0.01295583,-0.00050561,0.00173486,0.00170646,0.00009292,-0.0
 0023815,-0.00016921,0.00003880,0.00045170,0.00007783,0.00023511,0.0004
 5684,-0.00104636,0.09801494,-0.21074447,0.08131766,-0.00145157,0.00346
 155,-0.00215678,-0.00084961,0.00057328,0.00000107,-0.10707990,0.231767
 14,0.00854395,-0.01028358,0.00587047,0.00002171,-0.00122291,0.00042577
 ,0.00004030,0.00004722,-0.00003885,0.00027618,0.00018507,0.00013424,-0
 .00003880,0.00022473,-0.00019931,-0.05098139,0.08363139,-0.09202911,0.
 00268185,-0.00509723,0.00162787,-0.01578810,0.02452968,-0.01055127,0.0
 5683608,-0.08920615,0.09463639,-0.07942171,0.02509362,-0.02139953,0.00
 116988,0.01377774,-0.01049633,0.00019621,0.00111128,0.00198171,-0.0028
 5986,-0.00018333,0.00050468,0.00474636,-0.00172032,-0.00296396,0.00998
 870,-0.00897391,0.00507156,0.00001745,0.00105532,-0.00007865,-0.000285
 87,0.00002333,-0.00028492,-0.00012846,-0.00313638,-0.00148102,0.514268
 01,0.02992222,-0.17908823,0.04622473,0.00431263,-0.00033034,0.00561856
 ,-0.00162628,-0.00012718,0.00113942,-0.00029760,0.00102609,-0.00157726
 ,-0.00092737,0.00098539,-0.00176936,0.00905996,-0.02966251,0.01032815,
 0.00056341,0.00093382,0.00049074,0.00055084,0.00133624,0.00110078,-0.0
 0186873,-0.00317175,-0.00199765,0.03998614,0.51959375,-0.02273098,0.04
 388170,-0.10616087,-0.01547808,0.02601605,-0.01356409,0.00113836,0.000
 68581,-0.00304843,0.00318972,0.00199932,0.00094056,-0.00618845,0.00069
 589,-0.00168151,0.00496294,-0.00985726,0.00727905,-0.00009351,0.000157
 22,0.00017756,0.00015384,-0.00065689,0.00050407,-0.00110308,-0.0035765
 0,-0.00068583,0.00203497,0.03569161,0.55703329,0.00406726,0.01108979,0
 .00473506,0.00015701,0.00022347,0.00051470,0.00022070,0.00009870,-0.00
 018654,0.00025525,-0.00010030,0.00022855,-0.00006901,0.00004048,0.0002
 5769,-0.00013143,0.00185636,-0.00112873,0.00028488,0.00032219,-0.00001
 784,-0.00011400,-0.00016156,-0.00019825,0.00046292,0.00060140,0.000023
 26,-0.10440493,-0.10196560,-0.04906855,0.11110195,-0.01410296,-0.02402
 329,-0.01257381,0.00050499,0.00172894,-0.00172273,-0.00009215,-0.00023
 658,0.00017162,-0.00023573,0.00046697,0.00103801,-0.00003557,0.0004483
 2,-0.00008167,0.00311902,-0.00309794,0.00360651,-0.00013510,0.00032360
 ,0.00014495,0.00006828,0.00031760,0.00009979,-0.00059999,-0.00137981,-
 0.00058467,-0.09859588,-0.21292697,-0.07981085,0.10772633,0.23412556,0
 .00871776,0.01066676,0.00589919,0.00001452,0.00120645,0.00043208,0.000
 04153,-0.00004469,-0.00004047,-0.00003569,-0.00023321,-0.00020963,0.00
 027678,-0.00018891,0.00013761,-0.00152171,0.00202728,-0.00075676,-0.00
 017291,-0.00025067,-0.00015673,-0.00008560,0.00028470,0.00033957,0.000
 03050,0.00061175,0.00075844,-0.04968914,-0.08212464,-0.08995480,0.0554
 2534,0.08746702,0.09239392,-0.00103144,0.00140502,-0.01357652,0.001257
 77,0.00204856,-0.00092088,-0.00029468,0.00002853,0.00037872,0.00009655
 ,0.00012398,0.00024123,-0.00089653,0.00040235,-0.00041021,-0.00028549,
 -0.00054978,0.00016039,-0.00001616,-0.00015143,0.00020184,0.00035240,-
 0.00007338,0.00016071,-0.00011408,-0.00006961,-0.00008454,-0.04862658,
 -0.00202341,0.04109583,0.00215081,0.00065054,-0.01578427,0.05237145,-0
 .00452276,0.00148684,0.02921454,0.00190890,-0.00387290,0.00064187,-0.0
 0070151,-0.00013883,0.00075409,-0.00049375,0.00011328,0.00015687,0.001
 21803,-0.00005815,0.00061544,-0.00002790,0.00133017,0.00064646,0.00007
 337,-0.00003024,0.00001145,0.00007591,-0.00048213,-0.00048382,0.000158
 78,0.00031279,-0.00028439,-0.00084608,-0.04966044,-0.00925231,0.005428
 98,0.00026405,-0.02467559,-0.00264054,0.05147155,-0.00017935,0.0008228
 7,-0.01575964,0.00066437,0.00254802,0.00017461,0.00091689,-0.00010119,
 -0.00044201,0.00050576,0.00013883,0.00030656,-0.00089869,0.00029801,-0
 .00026532,-0.00028388,-0.00111145,0.00050988,0.00000295,-0.00009905,0.
 00000414,0.00015945,0.00049891,0.00069845,-0.00020023,-0.00009957,0.00
 034444,0.03904296,-0.00808911,-0.30283269,0.00191553,-0.00013705,-0.01
 023812,-0.04284495,0.00625320,0.33049060,-0.01221387,0.00428002,-0.001
 25162,0.00203058,0.00117694,0.00026213,-0.00123189,-0.00005873,0.00111
 700,-0.00057004,-0.00015322,0.00001413,0.00018885,0.00006054,-0.000245
 17,0.00001826,-0.00056502,-0.00008631,0.00046820,0.00034154,0.00010809
 ,-0.00001618,-0.00007335,0.00000382,0.00028498,0.00013288,-0.00017474,
 -0.28385485,0.02289287,0.04079005,-0.01420286,0.00147565,0.00266094,-0
 .00492986,0.00008724,0.00139342,0.31330183,0.02781870,-0.00351865,-0.0
 0376141,-0.00099577,-0.00129879,0.00029670,0.00058769,-0.00028394,-0.0
 0118582,0.00023464,0.00002640,0.00013693,-0.00079065,0.00026517,0.0006
 9585,-0.00105668,0.00092451,-0.00016671,-0.00033950,-0.00072733,0.0000
 4126,0.00015398,-0.00002906,0.00009952,-0.00032246,0.00032472,0.000244
 49,0.02768203,-0.04876205,-0.00463584,-0.02507690,0.00354009,0.0050751
 3,0.00082511,-0.00067303,-0.00048852,-0.03022832,0.05075334,-0.0155972
 8,0.00222088,0.00016861,0.00033332,0.00168355,-0.00075121,0.00103178,-
 0.00012158,0.00019265,-0.00056185,-0.00024982,-0.00010807,0.00093975,-
 0.00013008,-0.00066780,-0.00006496,-0.00050022,0.00018583,0.00011240,-
 0.00002943,0.00020353,0.00019989,-0.00001091,0.00000304,-0.00001368,-0
 .00015107,-0.00015797,0.03801788,-0.00421469,-0.04864716,-0.01269969,0
 .00212526,0.00153659,0.03200550,-0.00325170,-0.00451887,-0.04323393,0.
 00271394,0.05164442,0.00900754,-0.00002385,-0.00480129,0.00454564,0.00
 012921,0.02031280,-0.00519447,0.00005222,0.00893284,-0.00297454,-0.000
 57063,0.00038664,-0.00297494,0.00057390,0.00037950,-0.00546091,-0.0020
 1985,0.00128485,0.00111608,0.00091187,0.00052055,-0.00010560,0.0007341
 4,0.00035523,0.00028465,0.00105902,0.00025140,-0.00546574,0.00203307,0
 .00126004,0.00028525,-0.00105600,0.00026469,-0.00010516,-0.00072957,0.
 00036480,0.00111604,-0.00090408,0.00053194,0.21364315,-0.00014983,-0.0
 1405053,0.00018876,-0.00021015,0.00254691,-0.00008219,0.00011274,0.010
 31179,-0.00057231,-0.00002543,-0.00015195,0.00014170,0.00006998,-0.000
 17532,-0.00018002,-0.00687045,-0.00032315,0.00177158,-0.00097684,-0.00
 097527,-0.00014588,-0.00000520,-0.00006003,0.00057758,0.00002709,0.000
 62614,-0.00022020,0.00692191,-0.00032516,-0.00179402,-0.00002652,0.000
 62319,0.00021034,-0.00000338,-0.00007028,-0.00055631,0.00098019,-0.000
 99236,0.00017857,0.00144341,0.01611374,-0.02461375,0.00018298,0.015890
 89,-0.03319928,-0.00009745,-0.01134853,0.01845174,-0.00056961,-0.08034
 244,0.00363712,0.00169015,-0.00321185,0.00363747,-0.00172657,-0.003188
 17,0.00432747,-0.00123378,-0.00213777,0.00017537,0.00152411,0.00155828
 ,-0.00066611,0.00021998,0.00158632,0.00005664,0.00039376,-0.00016539,0
 .00423936,0.00121311,-0.00213068,0.00005723,-0.00040377,-0.00016305,-0
 .00066590,-0.00019938,0.00159605,0.00016387,-0.00149169,0.00157529,0.2
 1831783,0.00248282,0.39743829,-0.01035987,0.00013865,0.02278510,-0.072
 17315,-0.00005624,-0.00535382,-0.00588717,-0.00015679,-0.02555526,0.00
 377253,0.00095588,-0.00032099,0.00377218,-0.00095799,-0.00030876,-0.00
 534046,0.00060946,0.00002917,-0.00038808,-0.00242524,-0.00097050,0.000
 07151,-0.00101791,-0.00054602,-0.00006311,-0.00131016,-0.00012614,-0.0
 0533863,-0.00061214,0.00003690,-0.00006381,0.00130857,-0.00014276,0.00
 007099,0.00101089,-0.00055900,-0.00038920,0.00241222,-0.00100109,-0.20
 771698,-0.00128753,-0.19391907,0.30003324,0.00004409,0.00823233,-0.000
 36133,0.00056684,0.00605966,-0.00005609,-0.00023481,-0.02497582,0.0003
 4059,-0.00155421,0.00044342,0.00021820,0.00150050,0.00046032,-0.000192
 19,0.00213489,0.00020131,-0.00042337,0.00032943,0.00042212,0.00024838,
 -0.00002681,0.00000698,-0.00012372,0.00005865,-0.00018242,0.00003421,-
 0.00219545,0.00017934,0.00045605,-0.00005681,-0.00017372,-0.00003171,0
 .00002743,0.00000731,0.00012241,-0.00034922,0.00045098,-0.00026270,-0.
 00163286,-0.01309773,-0.00198466,0.00138833,0.02196592,0.00776196,-0.0
 0036587,-0.04984994,0.09310860,-0.00002796,-0.00252331,-0.03796593,0.0
 0033752,0.02997508,-0.00438556,-0.00150288,0.00252551,-0.00440578,0.00
 152658,0.00250892,-0.00452831,0.00206437,0.00275100,-0.00152459,-0.002
 44072,-0.00063134,0.00004332,0.00014575,-0.00006840,0.00014187,-0.0006
 5872,0.00003011,-0.00449958,-0.00203441,0.00277153,0.00014224,0.000661
 41,0.00002217,0.00004305,-0.00014673,-0.00006808,-0.00152168,0.0024261
 5,-0.00065890,-0.24836182,-0.00200042,-0.31695725,0.20595223,0.0020159
 3,0.33017291\\0.00000004,0.00000064,0.00000037,-0.00000094,0.00000017,
 0.00000054,-0.00000010,-0.00000096,0.00000005,-0.00000071,-0.00000004,
 0.00000003,-0.00000053,0.00000011,0.00000020,0.00000080,0.00000011,-0.
 00000056,0.00000021,0.00000009,-0.00000050,0.00000045,0.,-0.00000017,0
 .,-0.00000005,-0.00000008,0.00000031,-0.00000011,-0.00000015,0.0000000
 8,-0.00000008,-0.00000013,0.00000039,-0.00000008,-0.00000012,0.0000001
 6,-0.00000003,-0.00000049,-0.00000021,-0.00000059,-0.00000035,0.000000
 08,0.00000080,0.00000136\\\@


 I WANT IT ALL - RICH, THIN, AND CHOCOLATE.
 Job cpu time:       0 days  0 hours  0 minutes 40.3 seconds.
 Elapsed time:       0 days  0 hours  4 minutes 27.8 seconds.
 File lengths (MBytes):  RWF=    221 Int=      0 D2E=      0 Chk=     11 Scr=      1
 Normal termination of Gaussian 16 at Tue Mar 29 19:40:53 2022.
