 Entering Gaussian System, Link 0=g16
 Initial command:
 /apps/chpc/chem/gaussian16/B01/g16/l1.exe "/mnt/lustre/users/cvanstaden/4099586.sched01/Gau-169860.inp" -scrdir="/mnt/lustre/users/cvanstaden/4099586.sched01/"
 Entering Link 1 = /apps/chpc/chem/gaussian16/B01/g16/l1.exe PID=    169863.
  
 Copyright (c) 1988-2017, Gaussian, Inc.  All Rights Reserved.
  
 This is part of the Gaussian(R) 16 program.  It is based on
 the Gaussian(R) 09 system (copyright 2009, Gaussian, Inc.),
 the Gaussian(R) 03 system (copyright 2003, Gaussian, Inc.),
 the Gaussian(R) 98 system (copyright 1998, Gaussian, Inc.),
 the Gaussian(R) 94 system (copyright 1995, Gaussian, Inc.),
 the Gaussian 92(TM) system (copyright 1992, Gaussian, Inc.),
 the Gaussian 90(TM) system (copyright 1990, Gaussian, Inc.),
 the Gaussian 88(TM) system (copyright 1988, Gaussian, Inc.),
 the Gaussian 86(TM) system (copyright 1986, Carnegie Mellon
 University), and the Gaussian 82(TM) system (copyright 1983,
 Carnegie Mellon University). Gaussian is a federally registered
 trademark of Gaussian, Inc.
  
 This software contains proprietary and confidential information,
 including trade secrets, belonging to Gaussian, Inc.
  
 This software is provided under written license and may be
 used, copied, transmitted, or stored only in accord with that
 written license.
  
 The following legend is applicable only to US Government
 contracts under FAR:
  
                    RESTRICTED RIGHTS LEGEND
  
 Use, reproduction and disclosure by the US Government is
 subject to restrictions as set forth in subparagraphs (a)
 and (c) of the Commercial Computer Software - Restricted
 Rights clause in FAR 52.227-19.
  
 Gaussian, Inc.
 340 Quinnipiac St., Bldg. 40, Wallingford CT 06492
  
  
 ---------------------------------------------------------------
 Warning -- This program may not be used in any manner that
 competes with the business of Gaussian, Inc. or will provide
 assistance to any competitor of Gaussian, Inc.  The licensee
 of this program is prohibited from giving any competitor of
 Gaussian, Inc. access to this program.  By using this program,
 the user acknowledges that Gaussian, Inc. is engaged in the
 business of creating and licensing software in the field of
 computational chemistry and represents and warrants to the
 licensee that it is not a competitor of Gaussian, Inc. and that
 it will not use this program in any manner prohibited above.
 ---------------------------------------------------------------
  

 Cite this work as:
 Gaussian 16, Revision B.01,
 M. J. Frisch, G. W. Trucks, H. B. Schlegel, G. E. Scuseria, 
 M. A. Robb, J. R. Cheeseman, G. Scalmani, V. Barone, 
 G. A. Petersson, H. Nakatsuji, X. Li, M. Caricato, A. V. Marenich, 
 J. Bloino, B. G. Janesko, R. Gomperts, B. Mennucci, H. P. Hratchian, 
 J. V. Ortiz, A. F. Izmaylov, J. L. Sonnenberg, D. Williams-Young, 
 F. Ding, F. Lipparini, F. Egidi, J. Goings, B. Peng, A. Petrone, 
 T. Henderson, D. Ranasinghe, V. G. Zakrzewski, J. Gao, N. Rega, 
 G. Zheng, W. Liang, M. Hada, M. Ehara, K. Toyota, R. Fukuda, 
 J. Hasegawa, M. Ishida, T. Nakajima, Y. Honda, O. Kitao, H. Nakai, 
 T. Vreven, K. Throssell, J. A. Montgomery, Jr., J. E. Peralta, 
 F. Ogliaro, M. J. Bearpark, J. J. Heyd, E. N. Brothers, K. N. Kudin, 
 V. N. Staroverov, T. A. Keith, R. Kobayashi, J. Normand, 
 K. Raghavachari, A. P. Rendell, J. C. Burant, S. S. Iyengar, 
 J. Tomasi, M. Cossi, J. M. Millam, M. Klene, C. Adamo, R. Cammi, 
 J. W. Ochterski, R. L. Martin, K. Morokuma, O. Farkas, 
 J. B. Foresman, and D. J. Fox, Gaussian, Inc., Wallingford CT, 2016.
 
 ******************************************
 Gaussian 16:  ES64L-G16RevB.01 20-Dec-2017
                30-Mar-2022 
 ******************************************
 %nprocshared=24
 Will use up to   24 processors via shared memory.
 %lindaworkers=cnode0583.cm.cluster,cnode0588.cm.cluster
 %mem=20GB
 %chk=RtertbO2-T-Shift-TS3-b3lyp-c.chk
 SetLPE:    new flags="-opt 'Tsnet.Node.lindarsharg: ssh'  -nodelist 'cnode0583.cm.cluster cnode0588.cm.cluster' -env GAUSS_MDEF=2684354560 -env GAUSS_EXEDIR="/apps/chpc/chem/gaussian16/B01/g16/bsd:/apps/chpc/chem/gaussian16/B01/g16""
 Will use up to    2 processors via Linda.
 ---------------------------------------------------
 # opt=(calcfc,ts,noeigentest) freq ub3lyp cc-pvtz+d
 ---------------------------------------------------
 1/5=1,10=4,11=1,18=20,26=3,38=1/1,3;
 2/9=110,12=2,17=6,18=5,40=1/2;
 3/5=16,6=1,7=9,11=2,25=1,30=1,71=2,74=-5,116=2,140=1/1,2,3;
 4//1;
 5/5=2,38=5/2;
 8/6=4,10=90,11=11/1;
 11/6=1,8=1,9=11,15=111,16=1/1,2,10;
 10/6=1,13=1/2;
 6/7=2,8=2,9=2,10=2,28=1/1;
 7/10=1,18=20,25=1/1,2,3,16;
 1/5=1,10=4,11=1,18=20,26=3/3(2);
 2/9=110/2;
 99//99;
 2/9=110/2;
 3/5=16,6=1,7=9,11=2,25=1,30=1,71=1,74=-5,116=2/1,2,3;
 4/5=5,16=3,69=1/1;
 5/5=2,38=5/2;
 7//1,2,3,16;
 1/5=1,11=1,18=20,26=3/3(-5);
 2/9=110/2;
 6/7=2,8=2,9=2,10=2,19=2,28=1/1;
 99/9=1/99;
 ----------------------------
 RtertbO2-T-Shift-TS3-b3lyp-c
 ----------------------------
 Symbolic Z-matrix:
 Charge =  0 Multiplicity = 2
 C                    -0.49019   0.00118   0.19699 
 C                     0.17894   0.01723   1.55642 
 H                     1.41461   0.00957   0.91766 
 H                    -0.0286    0.91587   2.13128 
 H                    -0.02798  -0.86706   2.1531 
 C                    -1.24046  -1.28153  -0.14135 
 H                    -2.14698  -1.34015   0.46111 
 H                    -1.52351  -1.30844  -1.19449 
 H                    -0.62636  -2.15513   0.07602 
 C                    -1.29218   1.24792  -0.15364 
 H                    -0.7152    2.14838   0.05547 
 H                    -1.57582   1.2532   -1.20704 
 H                    -2.20069   1.27451   0.44807 
 O                     0.64011   0.02218  -0.78703 
 O                     1.89439   0.00429  -0.13878 
 
 Add virtual bond connecting atoms O15        and H3         Dist= 2.19D+00.

 GradGradGradGradGradGradGradGradGradGradGradGradGradGradGradGradGradGrad
 Berny optimization.
 Initialization pass.
                           ----------------------------
                           !    Initial Parameters    !
                           ! (Angstroms and Degrees)  !
 --------------------------                            --------------------------
 ! Name  Definition              Value          Derivative Info.                !
 --------------------------------------------------------------------------------
 ! R1    R(1,2)                  1.5153         calculate D2E/DX2 analytically  !
 ! R2    R(1,6)                  1.5241         calculate D2E/DX2 analytically  !
 ! R3    R(1,10)                 1.5233         calculate D2E/DX2 analytically  !
 ! R4    R(1,14)                 1.4988         calculate D2E/DX2 analytically  !
 ! R5    R(2,4)                  1.0868         calculate D2E/DX2 analytically  !
 ! R6    R(2,5)                  1.0867         calculate D2E/DX2 analytically  !
 ! R7    R(3,15)                 1.1603         calculate D2E/DX2 analytically  !
 ! R8    R(6,7)                  1.09           calculate D2E/DX2 analytically  !
 ! R9    R(6,8)                  1.0908         calculate D2E/DX2 analytically  !
 ! R10   R(6,9)                  1.0897         calculate D2E/DX2 analytically  !
 ! R11   R(10,11)                1.0897         calculate D2E/DX2 analytically  !
 ! R12   R(10,12)                1.0909         calculate D2E/DX2 analytically  !
 ! R13   R(10,13)                1.09           calculate D2E/DX2 analytically  !
 ! R14   R(14,15)                1.412          calculate D2E/DX2 analytically  !
 ! A1    A(2,1,6)              115.1804         calculate D2E/DX2 analytically  !
 ! A2    A(2,1,10)             115.4881         calculate D2E/DX2 analytically  !
 ! A3    A(2,1,14)             104.824          calculate D2E/DX2 analytically  !
 ! A4    A(6,1,10)             112.2445         calculate D2E/DX2 analytically  !
 ! A5    A(6,1,14)             103.7272         calculate D2E/DX2 analytically  !
 ! A6    A(10,1,14)            103.5595         calculate D2E/DX2 analytically  !
 ! A7    A(1,2,4)              113.5147         calculate D2E/DX2 analytically  !
 ! A8    A(1,2,5)              113.5732         calculate D2E/DX2 analytically  !
 ! A9    A(4,2,5)              110.248          calculate D2E/DX2 analytically  !
 ! A10   A(1,6,7)              109.3881         calculate D2E/DX2 analytically  !
 ! A11   A(1,6,8)              111.2737         calculate D2E/DX2 analytically  !
 ! A12   A(1,6,9)              110.6719         calculate D2E/DX2 analytically  !
 ! A13   A(7,6,8)              108.45           calculate D2E/DX2 analytically  !
 ! A14   A(7,6,9)              108.3788         calculate D2E/DX2 analytically  !
 ! A15   A(8,6,9)              108.6035         calculate D2E/DX2 analytically  !
 ! A16   A(1,10,11)            110.6937         calculate D2E/DX2 analytically  !
 ! A17   A(1,10,12)            111.2907         calculate D2E/DX2 analytically  !
 ! A18   A(1,10,13)            109.3727         calculate D2E/DX2 analytically  !
 ! A19   A(11,10,12)           108.5997         calculate D2E/DX2 analytically  !
 ! A20   A(11,10,13)           108.3746         calculate D2E/DX2 analytically  !
 ! A21   A(12,10,13)           108.4337         calculate D2E/DX2 analytically  !
 ! A22   A(1,14,15)            111.6115         calculate D2E/DX2 analytically  !
 ! A23   A(3,15,14)             92.9028         calculate D2E/DX2 analytically  !
 ! D1    D(6,1,2,4)           -131.4771         calculate D2E/DX2 analytically  !
 ! D2    D(6,1,2,5)             -4.4892         calculate D2E/DX2 analytically  !
 ! D3    D(10,1,2,4)             1.9586         calculate D2E/DX2 analytically  !
 ! D4    D(10,1,2,5)           128.9465         calculate D2E/DX2 analytically  !
 ! D5    D(14,1,2,4)           115.2149         calculate D2E/DX2 analytically  !
 ! D6    D(14,1,2,5)          -117.7972         calculate D2E/DX2 analytically  !
 ! D7    D(2,1,6,7)             71.6121         calculate D2E/DX2 analytically  !
 ! D8    D(2,1,6,8)           -168.5822         calculate D2E/DX2 analytically  !
 ! D9    D(2,1,6,9)            -47.7309         calculate D2E/DX2 analytically  !
 ! D10   D(10,1,6,7)           -63.301          calculate D2E/DX2 analytically  !
 ! D11   D(10,1,6,8)            56.5047         calculate D2E/DX2 analytically  !
 ! D12   D(10,1,6,9)           177.356          calculate D2E/DX2 analytically  !
 ! D13   D(14,1,6,7)          -174.4419         calculate D2E/DX2 analytically  !
 ! D14   D(14,1,6,8)           -54.6362         calculate D2E/DX2 analytically  !
 ! D15   D(14,1,6,9)            66.215          calculate D2E/DX2 analytically  !
 ! D16   D(2,1,10,11)           47.8403         calculate D2E/DX2 analytically  !
 ! D17   D(2,1,10,12)          168.7129         calculate D2E/DX2 analytically  !
 ! D18   D(2,1,10,13)          -71.5012         calculate D2E/DX2 analytically  !
 ! D19   D(6,1,10,11)         -177.3931         calculate D2E/DX2 analytically  !
 ! D20   D(6,1,10,12)          -56.5205         calculate D2E/DX2 analytically  !
 ! D21   D(6,1,10,13)           63.2654         calculate D2E/DX2 analytically  !
 ! D22   D(14,1,10,11)         -66.1472         calculate D2E/DX2 analytically  !
 ! D23   D(14,1,10,12)          54.7254         calculate D2E/DX2 analytically  !
 ! D24   D(14,1,10,13)         174.5113         calculate D2E/DX2 analytically  !
 ! D25   D(2,1,14,15)            1.9394         calculate D2E/DX2 analytically  !
 ! D26   D(6,1,14,15)         -119.2393         calculate D2E/DX2 analytically  !
 ! D27   D(10,1,14,15)         123.3879         calculate D2E/DX2 analytically  !
 ! D28   D(1,14,15,3)           -1.4492         calculate D2E/DX2 analytically  !
 --------------------------------------------------------------------------------
 Trust Radius=3.00D-01 FncErr=1.00D-07 GrdErr=1.00D-06 EigMax=2.50D+02 EigMin=1.00D-04
 Number of steps in this run=     75 maximum allowed number of steps=    100.
 Search for a saddle point of order  1.
 GradGradGradGradGradGradGradGradGradGradGradGradGradGradGradGradGradGrad

                          Input orientation:                          
 ---------------------------------------------------------------------
 Center     Atomic      Atomic             Coordinates (Angstroms)
 Number     Number       Type             X           Y           Z
 ---------------------------------------------------------------------
      1          6           0       -0.490190    0.001182    0.196990
      2          6           0        0.178938    0.017228    1.556419
      3          1           0        1.414606    0.009572    0.917664
      4          1           0       -0.028600    0.915870    2.131281
      5          1           0       -0.027983   -0.867062    2.153097
      6          6           0       -1.240459   -1.281534   -0.141350
      7          1           0       -2.146975   -1.340150    0.461110
      8          1           0       -1.523507   -1.308442   -1.194487
      9          1           0       -0.626362   -2.155133    0.076016
     10          6           0       -1.292183    1.247919   -0.153639
     11          1           0       -0.715201    2.148383    0.055467
     12          1           0       -1.575820    1.253198   -1.207038
     13          1           0       -2.200688    1.274507    0.448068
     14          8           0        0.640115    0.022185   -0.787029
     15          8           0        1.894386    0.004293   -0.138779
 ---------------------------------------------------------------------
                    Distance matrix (angstroms):
                    1          2          3          4          5
     1  C    0.000000
     2  C    1.515268   0.000000
     3  H    2.036588   1.391023   0.000000
     4  H    2.188881   1.086782   2.092149   0.000000
     5  H    2.189483   1.086651   2.091853   1.783066   0.000000
     6  C    1.524053   2.565909   3.136533   3.385563   2.627998
     7  H    2.147991   2.907241   3.836021   3.516619   2.752591
     8  H    2.172341   3.496170   3.851084   4.271188   3.692929
     9  H    2.163994   2.749410   3.091904   3.743326   2.516237
    10  C    1.523314   2.569649   3.163527   2.632063   3.375260
    11  H    2.163592   2.755751   3.139104   2.509883   3.737008
    12  H    2.171965   3.499070   3.873449   3.694869   4.264013
    13  H    2.147138   2.910638   3.858877   2.771244   3.494866
    14  O    1.498774   2.388401   1.872424   3.124482   3.143478
    15  O    2.408102   2.411769   1.160297   3.111595   3.115680
                    6          7          8          9         10
     6  C    0.000000
     7  H    1.090030   0.000000
     8  H    1.090843   1.769384   0.000000
     9  H    1.089742   1.767699   1.770856   0.000000
    10  C    2.530012   2.794045   2.769812   3.475172   0.000000
    11  H    3.475480   3.792675   3.763693   4.304482   1.089710
    12  H    2.770022   3.135983   2.562205   3.763565   1.090930
    13  H    2.793349   2.615241   3.134994   3.792012   1.090018
    14  O    2.377634   3.343902   2.572518   2.662616   2.374317
    15  O    3.388306   4.301162   3.810484   3.326174   3.420680
                   11         12         13         14         15
    11  H    0.000000
    12  H    1.770859   0.000000
    13  H    1.767616   1.769263   0.000000
    14  O    2.658458   2.569469   3.341248   0.000000
    15  O    3.383016   3.839697   4.327524   1.412000   0.000000
 Stoichiometry    C4H9O2(2)
 Framework group  C1[X(C4H9O2)]
 Deg. of freedom    39
 Full point group                 C1      NOp   1
 Largest Abelian subgroup         C1      NOp   1
 Largest concise Abelian subgroup C1      NOp   1
                         Standard orientation:                         
 ---------------------------------------------------------------------
 Center     Atomic      Atomic             Coordinates (Angstroms)
 Number     Number       Type             X           Y           Z
 ---------------------------------------------------------------------
      1          6           0        0.402878    0.000101    0.096472
      2          6           0       -0.284045   -0.017053    1.446982
      3          1           0       -1.511218   -0.009945    0.792047
      4          1           0       -0.083454   -0.915825    2.024103
      5          1           0       -0.085598    0.867096    2.046741
      6          6           0        1.156636    1.283495   -0.231381
      7          1           0        2.055116    1.342449    0.382967
      8          1           0        1.453480    1.311099   -1.280695
      9          1           0        0.539128    2.156567   -0.021697
     10          6           0        1.210276   -1.245916   -0.244170
     11          1           0        0.631222   -2.146877   -0.043084
     12          1           0        1.507735   -1.250498   -1.293753
     13          1           0        2.110814   -1.272164    0.369412
     14          8           0       -0.714384   -0.021213   -0.902326
     15          8           0       -1.977078   -0.004495   -0.270607
 ---------------------------------------------------------------------
 Rotational constants (GHZ):           4.6272767           2.8677517           2.8200577
 Standard basis: CC-pVTZ+d (5D, 7F)
 There are   345 symmetry adapted cartesian basis functions of A   symmetry.
 There are   306 symmetry adapted basis functions of A   symmetry.
   306 basis functions,   465 primitive gaussians,   345 cartesian basis functions
    25 alpha electrons       24 beta electrons
       nuclear repulsion energy       260.6571564991 Hartrees.
 NAtoms=   15 NActive=   15 NUniq=   15 SFac= 1.00D+00 NAtFMM=   60 NAOKFM=F Big=F
 Integral buffers will be    131072 words long.
 Raffenetti 2 integral format.
 Two-electron integral symmetry is turned on.
 One-electron integrals computed using PRISM.
 NBasis=   306 RedAO= T EigKep=  5.77D-04  NBF=   306
 NBsUse=   306 1.00D-06 EigRej= -1.00D+00 NBFU=   306
 ExpMin= 1.03D-01 ExpMax= 1.53D+04 ExpMxC= 5.22D+02 IAcc=3 IRadAn=         5 AccDes= 0.00D+00
 Harris functional with IExCor=  402 and IRadAn=       5 diagonalized for initial guess.
 HarFok:  IExCor=  402 AccDes= 0.00D+00 IRadAn=         5 IDoV= 1 UseB2=F ITyADJ=14
 ICtDFT=  3500011 ScaDFX=  1.000000  1.000000  1.000000  1.000000
 FoFCou: FMM=F IPFlag=           0 FMFlag=      100000 FMFlg1=           0
         NFxFlg=           0 DoJE=T BraDBF=F KetDBF=T FulRan=T
         wScrn=  0.000000 ICntrl=       500 IOpCl=  0 I1Cent=   200000004 NGrid=           0
         NMat0=    1 NMatS0=      1 NMatT0=    0 NMatD0=    1 NMtDS0=    0 NMtDT0=    0
 Petite list used in FoFCou.
 Initial guess <Sx>= 0.0000 <Sy>= 0.0000 <Sz>= 0.5000 <S**2>= 0.7500 S= 0.5000
 Requested convergence on RMS density matrix=1.00D-08 within 128 cycles.
 Requested convergence on MAX density matrix=1.00D-06.
 Requested convergence on             energy=1.00D-06.
 No special actions if energy rises.
 Integral accuracy reduced to 1.0D-05 until final iterations.
 Initial convergence to 1.0D-05 achieved.  Increase integral accuracy.
 SCF Done:  E(UB3LYP) =  -308.214987954     A.U. after   27 cycles
            NFock= 27  Conv=0.81D-08     -V/T= 2.0066
 <Sx>= 0.0000 <Sy>= 0.0000 <Sz>= 0.5000 <S**2>= 0.7573 S= 0.5037
 <L.S>= 0.000000000000E+00
 Annihilation of the first spin contaminant:
 S**2 before annihilation     0.7573,   after     0.7500
 DoSCS=F DFT=T ScalE2(SS,OS)=  1.000000  1.000000
 Range of M.O.s used for correlation:     1   306
 NBasis=   306 NAE=    25 NBE=    24 NFC=     0 NFV=     0
 NROrb=    306 NOA=    25 NOB=    24 NVA=   281 NVB=   282

 **** Warning!!: The largest alpha MO coefficient is  0.12007797D+02


 **** Warning!!: The largest beta MO coefficient is  0.12177289D+02


 **** Warning!!: The smallest beta delta epsilon is  0.68114450D-01

 Symmetrizing basis deriv contribution to polar:
 IMax=3 JMax=2 DiffMx= 0.00D+00
 G2DrvN: will do    16 centers at a time, making    1 passes.
 Calling FoFCou, ICntrl=  3107 FMM=F I1Cent=   0 AccDes= 0.00D+00.
 End of G2Drv F.D. properties file   721 does not exist.
 End of G2Drv F.D. properties file   722 does not exist.
 End of G2Drv F.D. properties file   788 does not exist.
          IDoAtm=111111111111111
          Differentiating once with respect to nuclear coordinates.
 Keep R1 and R2 ints in memory in canonical form, NReq=2234005247.
          There are    48 degrees of freedom in the 1st order CPHF.  IDoFFX=6 NUNeed=     0.
     42 vectors produced by pass  0 Test12= 2.87D-14 2.08D-09 XBig12= 6.24D-01 5.77D-01.
 AX will form    42 AO Fock derivatives at one time.
     42 vectors produced by pass  1 Test12= 2.87D-14 2.08D-09 XBig12= 1.12D-01 7.85D-02.
     42 vectors produced by pass  2 Test12= 2.87D-14 2.08D-09 XBig12= 4.31D-03 1.27D-02.
     42 vectors produced by pass  3 Test12= 2.87D-14 2.08D-09 XBig12= 4.49D-05 9.29D-04.
     42 vectors produced by pass  4 Test12= 2.87D-14 2.08D-09 XBig12= 4.54D-07 9.72D-05.
     42 vectors produced by pass  5 Test12= 2.87D-14 2.08D-09 XBig12= 2.63D-09 5.58D-06.
     27 vectors produced by pass  6 Test12= 2.87D-14 2.08D-09 XBig12= 1.21D-11 2.67D-07.
      7 vectors produced by pass  7 Test12= 2.87D-14 2.08D-09 XBig12= 5.26D-14 1.92D-08.
 InvSVY:  IOpt=1 It=  1 EMax= 1.78D-15
 Solved reduced A of dimension   286 with    42 vectors.
 End of Minotr F.D. properties file   721 does not exist.
 End of Minotr F.D. properties file   722 does not exist.
 End of Minotr F.D. properties file   788 does not exist.

 **********************************************************************

            Population analysis using the SCF Density.

 **********************************************************************

 Orbital symmetries:
 Alpha Orbitals:
       Occupied  (A) (A) (A) (A) (A) (A) (A) (A) (A) (A) (A) (A)
                 (A) (A) (A) (A) (A) (A) (A) (A) (A) (A) (A) (A)
                 (A)
       Virtual   (A) (A) (A) (A) (A) (A) (A) (A) (A) (A) (A) (A)
                 (A) (A) (A) (A) (A) (A) (A) (A) (A) (A) (A) (A)
                 (A) (A) (A) (A) (A) (A) (A) (A) (A) (A) (A) (A)
                 (A) (A) (A) (A) (A) (A) (A) (A) (A) (A) (A) (A)
                 (A) (A) (A) (A) (A) (A) (A) (A) (A) (A) (A) (A)
                 (A) (A) (A) (A) (A) (A) (A) (A) (A) (A) (A) (A)
                 (A) (A) (A) (A) (A) (A) (A) (A) (A) (A) (A) (A)
                 (A) (A) (A) (A) (A) (A) (A) (A) (A) (A) (A) (A)
                 (A) (A) (A) (A) (A) (A) (A) (A) (A) (A) (A) (A)
                 (A) (A) (A) (A) (A) (A) (A) (A) (A) (A) (A) (A)
                 (A) (A) (A) (A) (A) (A) (A) (A) (A) (A) (A) (A)
                 (A) (A) (A) (A) (A) (A) (A) (A) (A) (A) (A) (A)
                 (A) (A) (A) (A) (A) (A) (A) (A) (A) (A) (A) (A)
                 (A) (A) (A) (A) (A) (A) (A) (A) (A) (A) (A) (A)
                 (A) (A) (A) (A) (A) (A) (A) (A) (A) (A) (A) (A)
                 (A) (A) (A) (A) (A) (A) (A) (A) (A) (A) (A) (A)
                 (A) (A) (A) (A) (A) (A) (A) (A) (A) (A) (A) (A)
                 (A) (A) (A) (A) (A) (A) (A) (A) (A) (A) (A) (A)
                 (A) (A) (A) (A) (A) (A) (A) (A) (A) (A) (A) (A)
                 (A) (A) (A) (A) (A) (A) (A) (A) (A) (A) (A) (A)
                 (A) (A) (A) (A) (A) (A) (A) (A) (A) (A) (A) (A)
                 (A) (A) (A) (A) (A) (A) (A) (A) (A) (A) (A) (A)
                 (A) (A) (A) (A) (A) (A) (A) (A) (A) (A) (A) (A)
                 (A) (A) (A) (A) (A)
 Beta  Orbitals:
       Occupied  (A) (A) (A) (A) (A) (A) (A) (A) (A) (A) (A) (A)
                 (A) (A) (A) (A) (A) (A) (A) (A) (A) (A) (A) (A)
       Virtual   (A) (A) (A) (A) (A) (A) (A) (A) (A) (A) (A) (A)
                 (A) (A) (A) (A) (A) (A) (A) (A) (A) (A) (A) (A)
                 (A) (A) (A) (A) (A) (A) (A) (A) (A) (A) (A) (A)
                 (A) (A) (A) (A) (A) (A) (A) (A) (A) (A) (A) (A)
                 (A) (A) (A) (A) (A) (A) (A) (A) (A) (A) (A) (A)
                 (A) (A) (A) (A) (A) (A) (A) (A) (A) (A) (A) (A)
                 (A) (A) (A) (A) (A) (A) (A) (A) (A) (A) (A) (A)
                 (A) (A) (A) (A) (A) (A) (A) (A) (A) (A) (A) (A)
                 (A) (A) (A) (A) (A) (A) (A) (A) (A) (A) (A) (A)
                 (A) (A) (A) (A) (A) (A) (A) (A) (A) (A) (A) (A)
                 (A) (A) (A) (A) (A) (A) (A) (A) (A) (A) (A) (A)
                 (A) (A) (A) (A) (A) (A) (A) (A) (A) (A) (A) (A)
                 (A) (A) (A) (A) (A) (A) (A) (A) (A) (A) (A) (A)
                 (A) (A) (A) (A) (A) (A) (A) (A) (A) (A) (A) (A)
                 (A) (A) (A) (A) (A) (A) (A) (A) (A) (A) (A) (A)
                 (A) (A) (A) (A) (A) (A) (A) (A) (A) (A) (A) (A)
                 (A) (A) (A) (A) (A) (A) (A) (A) (A) (A) (A) (A)
                 (A) (A) (A) (A) (A) (A) (A) (A) (A) (A) (A) (A)
                 (A) (A) (A) (A) (A) (A) (A) (A) (A) (A) (A) (A)
                 (A) (A) (A) (A) (A) (A) (A) (A) (A) (A) (A) (A)
                 (A) (A) (A) (A) (A) (A) (A) (A) (A) (A) (A) (A)
                 (A) (A) (A) (A) (A) (A) (A) (A) (A) (A) (A) (A)
                 (A) (A) (A) (A) (A) (A) (A) (A) (A) (A) (A) (A)
                 (A) (A) (A) (A) (A) (A)
 The electronic state is 2-A.
 Alpha  occ. eigenvalues --  -19.20338 -19.19854 -10.25564 -10.19135 -10.17948
 Alpha  occ. eigenvalues --  -10.17678  -1.13819  -0.90058  -0.79926  -0.71069
 Alpha  occ. eigenvalues --   -0.70785  -0.58257  -0.52201  -0.49035  -0.47998
 Alpha  occ. eigenvalues --   -0.44522  -0.43199  -0.41702  -0.39609  -0.38762
 Alpha  occ. eigenvalues --   -0.36703  -0.36234  -0.35659  -0.27220  -0.25490
 Alpha virt. eigenvalues --    0.02058   0.03105   0.07473   0.07622   0.08379
 Alpha virt. eigenvalues --    0.09481   0.09612   0.12406   0.12794   0.14203
 Alpha virt. eigenvalues --    0.14248   0.17119   0.18210   0.21004   0.23808
 Alpha virt. eigenvalues --    0.25867   0.26151   0.27433   0.31435   0.32684
 Alpha virt. eigenvalues --    0.34498   0.37165   0.38059   0.38146   0.40554
 Alpha virt. eigenvalues --    0.43930   0.44267   0.45053   0.45414   0.45635
 Alpha virt. eigenvalues --    0.46879   0.47024   0.48217   0.49199   0.49709
 Alpha virt. eigenvalues --    0.50641   0.53710   0.59406   0.61071   0.63370
 Alpha virt. eigenvalues --    0.65718   0.66429   0.68105   0.73250   0.75587
 Alpha virt. eigenvalues --    0.79627   0.80522   0.82589   0.83871   0.84936
 Alpha virt. eigenvalues --    0.87199   0.89679   0.90228   0.91009   0.93646
 Alpha virt. eigenvalues --    0.94442   0.95752   0.96827   0.98650   1.02593
 Alpha virt. eigenvalues --    1.03021   1.05532   1.06654   1.08248   1.09912
 Alpha virt. eigenvalues --    1.14422   1.14892   1.17001   1.20546   1.21114
 Alpha virt. eigenvalues --    1.22620   1.23168   1.25011   1.25574   1.28044
 Alpha virt. eigenvalues --    1.29524   1.29614   1.32286   1.32526   1.35222
 Alpha virt. eigenvalues --    1.36560   1.37784   1.40189   1.43664   1.45868
 Alpha virt. eigenvalues --    1.47448   1.47621   1.50201   1.51384   1.54510
 Alpha virt. eigenvalues --    1.56445   1.61565   1.62989   1.64558   1.70893
 Alpha virt. eigenvalues --    1.75095   1.84597   1.86944   1.89077   1.97769
 Alpha virt. eigenvalues --    2.05296   2.09047   2.16069   2.16644   2.25147
 Alpha virt. eigenvalues --    2.26150   2.27787   2.32908   2.35365   2.35695
 Alpha virt. eigenvalues --    2.37127   2.40764   2.46203   2.50729   2.53633
 Alpha virt. eigenvalues --    2.55248   2.56535   2.58864   2.61119   2.63244
 Alpha virt. eigenvalues --    2.68265   2.70783   2.72849   2.73293   2.76970
 Alpha virt. eigenvalues --    2.77478   2.80100   2.83066   2.83683   2.83960
 Alpha virt. eigenvalues --    2.90096   2.90855   2.93660   2.94646   2.95565
 Alpha virt. eigenvalues --    2.98007   3.00412   3.01081   3.02515   3.03361
 Alpha virt. eigenvalues --    3.05218   3.06697   3.09205   3.11816   3.11986
 Alpha virt. eigenvalues --    3.12230   3.12838   3.17640   3.18646   3.21367
 Alpha virt. eigenvalues --    3.26152   3.26896   3.29070   3.32083   3.32958
 Alpha virt. eigenvalues --    3.33133   3.34189   3.34934   3.39823   3.41809
 Alpha virt. eigenvalues --    3.42947   3.43509   3.45142   3.47911   3.50882
 Alpha virt. eigenvalues --    3.52885   3.55050   3.55981   3.58422   3.59441
 Alpha virt. eigenvalues --    3.64452   3.66351   3.67181   3.68376   3.69547
 Alpha virt. eigenvalues --    3.72410   3.75204   3.76933   3.81782   3.82488
 Alpha virt. eigenvalues --    3.84654   3.85742   3.87222   3.88012   3.92314
 Alpha virt. eigenvalues --    3.93160   3.94346   3.97479   3.97925   3.99639
 Alpha virt. eigenvalues --    4.00391   4.04545   4.07158   4.07886   4.09276
 Alpha virt. eigenvalues --    4.11315   4.14244   4.15476   4.17375   4.18346
 Alpha virt. eigenvalues --    4.22014   4.23455   4.26390   4.27331   4.28163
 Alpha virt. eigenvalues --    4.30259   4.33788   4.38381   4.39341   4.41171
 Alpha virt. eigenvalues --    4.43411   4.43836   4.49858   4.56472   4.56897
 Alpha virt. eigenvalues --    4.65574   4.66547   4.75942   4.78703   4.79311
 Alpha virt. eigenvalues --    4.81368   4.82278   4.84709   4.86890   4.88830
 Alpha virt. eigenvalues --    4.92536   4.96771   4.96937   5.00991   5.02257
 Alpha virt. eigenvalues --    5.05741   5.07810   5.10484   5.10755   5.13581
 Alpha virt. eigenvalues --    5.14766   5.17722   5.19401   5.20365   5.21353
 Alpha virt. eigenvalues --    5.27899   5.31588   5.32900   5.35077   5.35746
 Alpha virt. eigenvalues --    5.36866   5.37803   5.39793   5.42140   5.46271
 Alpha virt. eigenvalues --    5.52275   5.53642   5.72734   5.83513   5.84793
 Alpha virt. eigenvalues --    5.88029   5.88887   5.90301   5.91506   5.96810
 Alpha virt. eigenvalues --    6.00161   6.01218   6.16127   6.37640   6.39055
 Alpha virt. eigenvalues --    6.53715   6.55198   6.76286   6.77329   6.83943
 Alpha virt. eigenvalues --    6.91426   7.00999   7.27113   7.29808   7.62960
 Alpha virt. eigenvalues --    9.71765  10.10594  10.77115  12.52606  13.66428
 Alpha virt. eigenvalues --   13.68377
  Beta  occ. eigenvalues --  -19.19431 -19.19088 -10.25552 -10.18432 -10.17907
  Beta  occ. eigenvalues --  -10.17680  -1.12125  -0.88290  -0.78796  -0.70979
  Beta  occ. eigenvalues --   -0.69605  -0.57214  -0.50784  -0.48293  -0.47239
  Beta  occ. eigenvalues --   -0.43678  -0.42223  -0.41273  -0.38610  -0.38282
  Beta  occ. eigenvalues --   -0.36042  -0.35325  -0.34485  -0.22584
  Beta virt. eigenvalues --   -0.15773   0.02613   0.03565   0.07541   0.07804
  Beta virt. eigenvalues --    0.08577   0.09577   0.09771   0.12479   0.13039
  Beta virt. eigenvalues --    0.14291   0.15052   0.17917   0.18664   0.21032
  Beta virt. eigenvalues --    0.24074   0.26244   0.26509   0.27502   0.31666
  Beta virt. eigenvalues --    0.33030   0.34618   0.37532   0.38302   0.38463
  Beta virt. eigenvalues --    0.41745   0.44300   0.44401   0.45188   0.45468
  Beta virt. eigenvalues --    0.45816   0.47026   0.47342   0.48550   0.49469
  Beta virt. eigenvalues --    0.49785   0.51375   0.54053   0.59693   0.61850
  Beta virt. eigenvalues --    0.64268   0.65933   0.66776   0.68601   0.73655
  Beta virt. eigenvalues --    0.75797   0.80021   0.80815   0.82852   0.84024
  Beta virt. eigenvalues --    0.85206   0.87481   0.89866   0.90487   0.91224
  Beta virt. eigenvalues --    0.93990   0.94488   0.96230   0.96879   0.98810
  Beta virt. eigenvalues --    1.02899   1.03485   1.06064   1.06787   1.08689
  Beta virt. eigenvalues --    1.10004   1.14701   1.15048   1.17351   1.21000
  Beta virt. eigenvalues --    1.21653   1.22970   1.23266   1.25421   1.25817
  Beta virt. eigenvalues --    1.28220   1.29705   1.29887   1.32426   1.32817
  Beta virt. eigenvalues --    1.35694   1.36937   1.38252   1.40264   1.44417
  Beta virt. eigenvalues --    1.46145   1.47774   1.47981   1.50296   1.51681
  Beta virt. eigenvalues --    1.54754   1.56803   1.61936   1.63646   1.64797
  Beta virt. eigenvalues --    1.71810   1.75705   1.85795   1.87826   1.89877
  Beta virt. eigenvalues --    1.98349   2.06890   2.09905   2.16410   2.17282
  Beta virt. eigenvalues --    2.25426   2.26401   2.28390   2.33710   2.35603
  Beta virt. eigenvalues --    2.36438   2.37350   2.41104   2.46508   2.50862
  Beta virt. eigenvalues --    2.53845   2.55448   2.56681   2.59337   2.61316
  Beta virt. eigenvalues --    2.64049   2.68647   2.71177   2.73879   2.74061
  Beta virt. eigenvalues --    2.77101   2.77647   2.80175   2.83261   2.83960
  Beta virt. eigenvalues --    2.84299   2.90347   2.91102   2.94168   2.95451
  Beta virt. eigenvalues --    2.95737   2.98224   3.00979   3.01297   3.03471
  Beta virt. eigenvalues --    3.03706   3.06056   3.07388   3.09394   3.12081
  Beta virt. eigenvalues --    3.12357   3.12657   3.13181   3.18250   3.18997
  Beta virt. eigenvalues --    3.22146   3.26531   3.27154   3.29218   3.32443
  Beta virt. eigenvalues --    3.33086   3.33331   3.34751   3.35451   3.40082
  Beta virt. eigenvalues --    3.42066   3.43066   3.43967   3.45673   3.47970
  Beta virt. eigenvalues --    3.50937   3.53138   3.55649   3.56417   3.58903
  Beta virt. eigenvalues --    3.60014   3.64681   3.66450   3.67274   3.69122
  Beta virt. eigenvalues --    3.69834   3.72626   3.75714   3.77139   3.81918
  Beta virt. eigenvalues --    3.82845   3.84919   3.85830   3.87406   3.88343
  Beta virt. eigenvalues --    3.92597   3.93377   3.94535   3.97625   3.98332
  Beta virt. eigenvalues --    4.00016   4.00483   4.04767   4.07512   4.07954
  Beta virt. eigenvalues --    4.09404   4.11466   4.14365   4.15660   4.17516
  Beta virt. eigenvalues --    4.18406   4.22228   4.23999   4.27084   4.27792
  Beta virt. eigenvalues --    4.28275   4.30347   4.34089   4.38879   4.39715
  Beta virt. eigenvalues --    4.41462   4.43593   4.44247   4.50412   4.56578
  Beta virt. eigenvalues --    4.57244   4.66063   4.66777   4.76858   4.78989
  Beta virt. eigenvalues --    4.79758   4.81502   4.82487   4.85312   4.87788
  Beta virt. eigenvalues --    4.89090   4.93647   4.97276   4.97603   5.01544
  Beta virt. eigenvalues --    5.03277   5.06480   5.08241   5.10783   5.11019
  Beta virt. eigenvalues --    5.13641   5.15433   5.18045   5.19847   5.20963
  Beta virt. eigenvalues --    5.21716   5.28165   5.31942   5.33034   5.35302
  Beta virt. eigenvalues --    5.36169   5.36949   5.38099   5.40205   5.42891
  Beta virt. eigenvalues --    5.46758   5.52904   5.54250   5.73521   5.84058
  Beta virt. eigenvalues --    5.85454   5.88653   5.89054   5.90924   5.92022
  Beta virt. eigenvalues --    5.97877   6.01066   6.03523   6.17602   6.39508
  Beta virt. eigenvalues --    6.40845   6.56006   6.58985   6.77846   6.78727
  Beta virt. eigenvalues --    6.85256   6.93809   7.02392   7.28287   7.30699
  Beta virt. eigenvalues --    7.63819   9.72599  10.11761  10.77755  12.53426
  Beta virt. eigenvalues --   13.66455  13.68470
          Condensed to atoms (all electrons):
               1          2          3          4          5          6
     1  C    4.809464   0.351807  -0.015502  -0.041892  -0.040618   0.342162
     2  C    0.351807   5.203275   0.239139   0.398447   0.403108  -0.045763
     3  H   -0.015502   0.239139   0.437708  -0.009312  -0.005185   0.003525
     4  H   -0.041892   0.398447  -0.009312   0.580492  -0.041789   0.004665
     5  H   -0.040618   0.403108  -0.005185  -0.041789   0.570836  -0.004197
     6  C    0.342162  -0.045763   0.003525   0.004665  -0.004197   4.887295
     7  H   -0.036161  -0.004958   0.000486  -0.000575   0.000527   0.384912
     8  H   -0.027572   0.007487  -0.000101  -0.000427   0.000047   0.401491
     9  H   -0.028911  -0.002819  -0.000204   0.000171   0.001680   0.394390
    10  C    0.355063  -0.051831   0.002811  -0.005175   0.004777  -0.062252
    11  H   -0.027156  -0.002956   0.000092   0.001274   0.000245   0.007564
    12  H   -0.028743   0.007197  -0.000163   0.000369  -0.000530  -0.005019
    13  H   -0.038099   0.001615   0.000214   0.001222  -0.000346   0.001151
    14  O    0.224156  -0.040766  -0.047255   0.004778   0.003895  -0.034000
    15  O   -0.055655  -0.088982   0.195143   0.001453  -0.001339   0.000730
               7          8          9         10         11         12
     1  C   -0.036161  -0.027572  -0.028911   0.355063  -0.027156  -0.028743
     2  C   -0.004958   0.007487  -0.002819  -0.051831  -0.002956   0.007197
     3  H    0.000486  -0.000101  -0.000204   0.002811   0.000092  -0.000163
     4  H   -0.000575  -0.000427   0.000171  -0.005175   0.001274   0.000369
     5  H    0.000527   0.000047   0.001680   0.004777   0.000245  -0.000530
     6  C    0.384912   0.401491   0.394390  -0.062252   0.007564  -0.005019
     7  H    0.618866  -0.030588  -0.028148   0.002740  -0.000205  -0.000061
     8  H   -0.030588   0.576570  -0.025823  -0.006451  -0.000122   0.003558
     9  H   -0.028148  -0.025823   0.577977   0.007819  -0.000547  -0.000082
    10  C    0.002740  -0.006451   0.007819   4.891450   0.395502   0.398847
    11  H   -0.000205  -0.000122  -0.000547   0.395502   0.578225  -0.026275
    12  H   -0.000061   0.003558  -0.000082   0.398847  -0.026275   0.574303
    13  H   -0.001962   0.000706  -0.000289   0.378878  -0.029410  -0.027183
    14  O    0.005135  -0.001791   0.000220  -0.035634  -0.001096   0.001869
    15  O   -0.000432  -0.000218   0.002010   0.000155   0.001902  -0.000489
              13         14         15
     1  C   -0.038099   0.224156  -0.055655
     2  C    0.001615  -0.040766  -0.088982
     3  H    0.000214  -0.047255   0.195143
     4  H    0.001222   0.004778   0.001453
     5  H   -0.000346   0.003895  -0.001339
     6  C    0.001151  -0.034000   0.000730
     7  H   -0.001962   0.005135  -0.000432
     8  H    0.000706  -0.001791  -0.000218
     9  H   -0.000289   0.000220   0.002010
    10  C    0.378878  -0.035634   0.000155
    11  H   -0.029410  -0.001096   0.001902
    12  H   -0.027183   0.001869  -0.000489
    13  H    0.618679   0.005642  -0.000190
    14  O    0.005642   7.976831   0.107573
    15  O   -0.000190   0.107573   8.003821
          Atomic-Atomic Spin Densities.
               1          2          3          4          5          6
     1  C    0.002789   0.010898   0.006082  -0.000224   0.000348   0.009998
     2  C    0.010898   0.465211   0.025460   0.006748   0.003815  -0.006469
     3  H    0.006082   0.025460  -0.053349   0.003494  -0.002481  -0.000491
     4  H   -0.000224   0.006748   0.003494  -0.022580   0.002283   0.000019
     5  H    0.000348   0.003815  -0.002481   0.002283  -0.007664  -0.001380
     6  C    0.009998  -0.006469  -0.000491   0.000019  -0.001380   0.014985
     7  H   -0.000631   0.002616  -0.000174   0.000035   0.000532   0.000643
     8  H   -0.001703   0.000499  -0.000034  -0.000004   0.000179  -0.001609
     9  H    0.001209  -0.000412   0.000225   0.000002  -0.000287   0.001750
    10  C    0.000224  -0.000437   0.000147   0.000016  -0.000264   0.002173
    11  H    0.000027  -0.000595  -0.000257   0.000340  -0.000083  -0.000010
    12  H   -0.000788   0.000814   0.000043  -0.000085   0.000082  -0.001213
    13  H   -0.000665  -0.003622   0.000175  -0.000146  -0.000195   0.001041
    14  O   -0.013249  -0.001524   0.003629  -0.000278   0.000565  -0.001388
    15  O   -0.002255  -0.048933  -0.015319  -0.000348   0.001380  -0.000525
               7          8          9         10         11         12
     1  C   -0.000631  -0.001703   0.001209   0.000224   0.000027  -0.000788
     2  C    0.002616   0.000499  -0.000412  -0.000437  -0.000595   0.000814
     3  H   -0.000174  -0.000034   0.000225   0.000147  -0.000257   0.000043
     4  H    0.000035  -0.000004   0.000002   0.000016   0.000340  -0.000085
     5  H    0.000532   0.000179  -0.000287  -0.000264  -0.000083   0.000082
     6  C    0.000643  -0.001609   0.001750   0.002173  -0.000010  -0.001213
     7  H   -0.004993   0.001809  -0.000795  -0.000983  -0.000019   0.000351
     8  H    0.001809   0.001872  -0.000596   0.000185  -0.000029   0.000546
     9  H   -0.000795  -0.000596  -0.000901  -0.000210   0.000021  -0.000047
    10  C   -0.000983   0.000185  -0.000210  -0.010586   0.000868   0.000964
    11  H   -0.000019  -0.000029   0.000021   0.000868  -0.001015  -0.000196
    12  H    0.000351   0.000546  -0.000047   0.000964  -0.000196   0.007627
    13  H   -0.000042  -0.000417   0.000086   0.005612   0.000550  -0.002157
    14  O    0.000282   0.002283  -0.001540   0.000757   0.000500  -0.001078
    15  O    0.000087  -0.000072   0.000001   0.000756  -0.000567   0.000222
              13         14         15
     1  C   -0.000665  -0.013249  -0.002255
     2  C   -0.003622  -0.001524  -0.048933
     3  H    0.000175   0.003629  -0.015319
     4  H   -0.000146  -0.000278  -0.000348
     5  H   -0.000195   0.000565   0.001380
     6  C    0.001041  -0.001388  -0.000525
     7  H   -0.000042   0.000282   0.000087
     8  H   -0.000417   0.002283  -0.000072
     9  H    0.000086  -0.001540   0.000001
    10  C    0.005612   0.000757   0.000756
    11  H    0.000550   0.000500  -0.000567
    12  H   -0.002157  -0.001078   0.000222
    13  H    0.004085  -0.000208  -0.000147
    14  O   -0.000208   0.182081  -0.038917
    15  O   -0.000147  -0.038917   0.527888
 Mulliken charges and spin densities:
               1          2
     1  C    0.257655   0.012060
     2  C   -0.373999   0.454071
     3  H    0.198603  -0.032851
     4  H    0.106298  -0.010729
     5  H    0.108889  -0.003170
     6  C   -0.276655   0.017524
     7  H    0.090423  -0.001282
     8  H    0.103233   0.002910
     9  H    0.102555  -0.001494
    10  C   -0.276699  -0.000776
    11  H    0.102963  -0.000466
    12  H    0.102402   0.005084
    13  H    0.089371   0.003952
    14  O   -0.169557   0.131916
    15  O   -0.165482   0.423252
 Sum of Mulliken charges =  -0.00000   1.00000
 Mulliken charges and spin densities with hydrogens summed into heavy atoms:
               1          2
     1  C    0.257655   0.012060
     2  C   -0.158812   0.440172
     6  C    0.019555   0.017658
    10  C    0.018037   0.007794
    14  O   -0.169557   0.131916
    15  O    0.033122   0.390401
 APT charges:
               1
     1  C    0.123818
     2  C   -0.912711
     3  H    0.140412
     4  H    0.381710
     5  H    0.384081
     6  C   -1.012325
     7  H    0.361342
     8  H    0.358507
     9  H    0.317199
    10  C   -0.997930
    11  H    0.322537
    12  H    0.354576
    13  H    0.359998
    14  O   -0.064687
    15  O   -0.116527
 Sum of APT charges =  -0.00000
 APT charges with hydrogens summed into heavy atoms:
               1
     1  C    0.123818
     2  C   -0.146919
     6  C    0.024723
    10  C    0.039180
    14  O   -0.064687
    15  O    0.023885
 Electronic spatial extent (au):  <R**2>=            583.8162
 Charge=             -0.0000 electrons
 Dipole moment (field-independent basis, Debye):
    X=              2.4246    Y=              0.1367    Z=              1.4651  Tot=              2.8362
 Quadrupole moment (field-independent basis, Debye-Ang):
   XX=            -40.5737   YY=            -37.0550   ZZ=            -38.3175
   XY=             -0.2284   XZ=             -1.9615   YZ=             -0.1361
 Traceless Quadrupole moment (field-independent basis, Debye-Ang):
   XX=             -1.9250   YY=              1.5937   ZZ=              0.3313
   XY=             -0.2284   XZ=             -1.9615   YZ=             -0.1361
 Octapole moment (field-independent basis, Debye-Ang**2):
  XXX=             -3.1286  YYY=             -0.0048  ZZZ=             -4.7175  XYY=             -3.0422
  XXY=              0.4210  XXZ=              0.5839  XZZ=             -1.0233  YZZ=              0.3803
  YYZ=             -0.7437  XYZ=              0.2820
 Hexadecapole moment (field-independent basis, Debye-Ang**3):
 XXXX=           -359.5154 YYYY=           -215.6623 ZZZZ=           -193.4417 XXXY=             -1.3289
 XXXZ=              2.2451 YYYX=             -0.3057 YYYZ=             -0.0618 ZZZX=              2.8648
 ZZZY=              0.2506 XXYY=            -97.6765 XXZZ=            -89.8525 YYZZ=            -67.1301
 XXYZ=             -0.5434 YYXZ=              1.3293 ZZXY=             -0.1258
 N-N= 2.606571564991D+02 E-N=-1.241474231601D+03  KE= 3.062069477554D+02
  Exact polarizability:   0.000   0.000   0.000   0.000   0.000   0.000
 Approx polarizability: 105.451  -0.545  72.248  15.595  -1.139 128.394
                          Isotropic Fermi Contact Couplings
        Atom                 a.u.       MegaHertz       Gauss      10(-4) cm-1
     1  C(13)             -0.01212     -13.62721      -4.86253      -4.54555
     2  C(13)              0.08155      91.68181      32.71435      30.58176
     3  H(1)              -0.01977     -88.34742     -31.52456     -29.46953
     4  H(1)              -0.00459     -20.50151      -7.31545      -6.83857
     5  H(1)              -0.00036      -1.62261      -0.57899      -0.54125
     6  C(13)              0.01602      18.00520       6.42470       6.00589
     7  H(1)              -0.00091      -4.08911      -1.45909      -1.36398
     8  H(1)               0.00058       2.61224       0.93211       0.87135
     9  H(1)              -0.00038      -1.72042      -0.61389      -0.57387
    10  C(13)             -0.00374      -4.20685      -1.50111      -1.40325
    11  H(1)              -0.00015      -0.68122      -0.24308      -0.22723
    12  H(1)               0.00273      12.19383       4.35106       4.06742
    13  H(1)               0.00341      15.24832       5.44098       5.08629
    14  O(17)              0.06222     -37.71588     -13.45797     -12.58066
    15  O(17)              0.02540     -15.39817      -5.49445      -5.13628
 --------------------------------------------------------
       Center         ----  Spin Dipole Couplings  ----
                      3XX-RR        3YY-RR        3ZZ-RR
 --------------------------------------------------------
     1   Atom       -0.018597     -0.025099      0.043696
     2   Atom        0.527669     -0.277311     -0.250357
     3   Atom        0.014458     -0.090227      0.075769
     4   Atom       -0.001973      0.013282     -0.011309
     5   Atom       -0.004372      0.013952     -0.009579
     6   Atom       -0.001663      0.012090     -0.010427
     7   Atom        0.004816     -0.002028     -0.002788
     8   Atom        0.002140     -0.002177      0.000036
     9   Atom       -0.001593      0.005250     -0.003657
    10   Atom        0.004600     -0.005769      0.001170
    11   Atom       -0.000520      0.003409     -0.002889
    12   Atom        0.002249     -0.002061     -0.000187
    13   Atom        0.004359     -0.001894     -0.002465
    14   Atom       -0.359533      0.729368     -0.369835
    15   Atom       -0.775986      0.238045      0.537942
 --------------------------------------------------------
                        XY            XZ            YZ
 --------------------------------------------------------
     1   Atom       -0.009423      0.016320     -0.028098
     2   Atom        0.025993      0.138263      0.002761
     3   Atom        0.013795      0.117194      0.022278
     4   Atom       -0.005675      0.010227     -0.031687
     5   Atom        0.000724      0.007137      0.033372
     6   Atom        0.018706     -0.006300     -0.011728
     7   Atom        0.005100     -0.000126     -0.000620
     8   Atom        0.003600     -0.003455     -0.001897
     9   Atom        0.004823     -0.000648     -0.001779
    10   Atom       -0.006515      0.002064      0.002167
    11   Atom       -0.005084     -0.000584      0.002156
    12   Atom       -0.002928     -0.003581      0.001684
    13   Atom       -0.003652     -0.000442      0.001084
    14   Atom        0.154516      0.019496      0.001853
    15   Atom       -0.485593      0.553143     -1.419557
 --------------------------------------------------------


 ---------------------------------------------------------------------------------
              Anisotropic Spin Dipole Couplings in Principal Axis System
 ---------------------------------------------------------------------------------

       Atom             a.u.   MegaHertz   Gauss  10(-4) cm-1        Axes

              Baa    -0.0360    -4.827    -1.722    -1.610  0.2430  0.9293  0.2780
     1 C(13)  Bbb    -0.0222    -2.983    -1.064    -0.995  0.9411 -0.1564 -0.2997
              Bcc     0.0582     7.809     2.787     2.605  0.2350 -0.3344  0.9126
 
              Baa    -0.2788   -37.407   -13.348   -12.478 -0.0882  0.9370  0.3381
     2 C(13)  Bbb    -0.2736   -36.710   -13.099   -12.245 -0.1484 -0.3480  0.9257
              Bcc     0.5523    74.117    26.447    24.723  0.9850  0.0314  0.1698
 
              Baa    -0.0933   -49.762   -17.756   -16.599  0.0613  0.9832 -0.1721
     3 H(1)   Bbb    -0.0756   -40.340   -14.394   -13.456  0.7922 -0.1528 -0.5908
              Bcc     0.1689    90.103    32.151    30.055  0.6072  0.1001  0.7882
 
              Baa    -0.0339   -18.090    -6.455    -6.034 -0.1699  0.5352  0.8275
     4 H(1)   Bbb    -0.0039    -2.055    -0.733    -0.686  0.9514  0.3080 -0.0039
              Bcc     0.0378    20.145     7.188     6.720 -0.2569  0.7866 -0.5615
 
              Baa    -0.0342   -18.242    -6.509    -6.085 -0.1802 -0.5585  0.8097
     5 H(1)   Bbb    -0.0039    -2.086    -0.744    -0.696  0.9773 -0.1949  0.0831
              Bcc     0.0381    20.328     7.254     6.781  0.1114  0.8063  0.5810
 
              Baa    -0.0162    -2.178    -0.777    -0.726 -0.4468  0.5779  0.6829
     6 C(13)  Bbb    -0.0133    -1.784    -0.637    -0.595  0.7176 -0.2242  0.6593
              Bcc     0.0295     3.962     1.414     1.322  0.5342  0.7847 -0.3146
 
              Baa    -0.0049    -2.595    -0.926    -0.865 -0.4513  0.8622  0.2301
     7 H(1)   Bbb    -0.0027    -1.435    -0.512    -0.479  0.1421 -0.1852  0.9724
              Bcc     0.0076     4.029     1.438     1.344  0.8810  0.4715 -0.0390
 
              Baa    -0.0042    -2.250    -0.803    -0.750 -0.5015  0.8649 -0.0216
     8 H(1)   Bbb    -0.0023    -1.250    -0.446    -0.417  0.4382  0.2755  0.8557
              Bcc     0.0066     3.500     1.249     1.167  0.7460  0.4196 -0.5171
 
              Baa    -0.0043    -2.277    -0.812    -0.759  0.6612 -0.4476 -0.6021
     9 H(1)   Bbb    -0.0038    -2.015    -0.719    -0.672  0.6000 -0.1663  0.7826
              Bcc     0.0080     4.291     1.531     1.431  0.4504  0.8786 -0.1585
 
              Baa    -0.0097    -1.297    -0.463    -0.433  0.4320  0.8649 -0.2554
    10 C(13)  Bbb     0.0018     0.240     0.086     0.080 -0.0222  0.2933  0.9558
              Bcc     0.0079     1.057     0.377     0.353  0.9016 -0.4073  0.1459
 
              Baa    -0.0045    -2.382    -0.850    -0.795  0.6415  0.5583 -0.5261
    11 H(1)   Bbb    -0.0029    -1.530    -0.546    -0.510  0.5420  0.1554  0.8259
              Bcc     0.0073     3.912     1.396     1.305 -0.5428  0.8150  0.2029
 
              Baa    -0.0036    -1.895    -0.676    -0.632  0.4935  0.8648  0.0924
    12 H(1)   Bbb    -0.0026    -1.405    -0.501    -0.469  0.4213 -0.3306  0.8445
              Bcc     0.0062     3.300     1.178     1.101  0.7609 -0.3779 -0.5275
 
              Baa    -0.0040    -2.139    -0.763    -0.714  0.3303  0.8145 -0.4769
    13 H(1)   Bbb    -0.0021    -1.129    -0.403    -0.377  0.2833  0.3964  0.8733
              Bcc     0.0061     3.269     1.166     1.090  0.9004 -0.4235 -0.0998
 
              Baa    -0.3953    28.604    10.207     9.541  0.7932 -0.1080 -0.5994
    14 O(17)  Bbb    -0.3556    25.730     9.181     8.583  0.5932 -0.0858  0.8005
              Bcc     0.7509   -54.334   -19.388   -18.124  0.1379  0.9904  0.0040
 
              Baa    -1.0406    75.294    26.867    25.115 -0.1201  0.7169  0.6868
    15 O(17)  Bbb    -0.9693    70.140    25.028    23.396  0.9593  0.2618 -0.1055
              Bcc     2.0099  -145.434   -51.895   -48.512  0.2554 -0.6462  0.7192
 

 ---------------------------------------------------------------------------------

 Calling FoFJK, ICntrl=    100147 FMM=F ISym2X=0 I1Cent= 0 IOpClX= 1 NMat=1 NMatS=1 NMatT=0.
 ***** Axes restored to original set *****
 -------------------------------------------------------------------
 Center     Atomic                   Forces (Hartrees/Bohr)
 Number     Number              X              Y              Z
 -------------------------------------------------------------------
      1        6           0.009925340   -0.003107266   -0.014120532
      2        6          -0.018111660    0.004818523    0.001605422
      3        1           0.000421364   -0.000540188    0.015487055
      4        1           0.004248824    0.000921500   -0.000100103
      5        1           0.010494847   -0.002385347   -0.000369508
      6        6          -0.004470185   -0.002207425    0.008174407
      7        1          -0.001673362   -0.001646920   -0.000459764
      8        1           0.001005398    0.001618095    0.001068449
      9        1           0.000238296    0.000396654   -0.000376597
     10        6           0.000855637   -0.000661655    0.004013546
     11        1           0.000350608   -0.000481777   -0.000377338
     12        1           0.000618310   -0.000963556    0.000654339
     13        1          -0.001720666    0.000557913    0.000568071
     14        8           0.011775223    0.009910499   -0.011168197
     15        8          -0.013957975   -0.006229051   -0.004599250
 -------------------------------------------------------------------
 Cartesian Forces:  Max     0.018111660 RMS     0.006286848
 FormGI is forming the generalized inverse of G from B-inverse, IUseBI=4.

 GradGradGradGradGradGradGradGradGradGradGradGradGradGradGradGradGradGrad
 Berny optimization.
 Internal  Forces:  Max     0.027858225 RMS     0.005223029
 Search for a saddle point.
 Step number   1 out of a maximum of   75
 All quantities printed in internal units (Hartrees-Bohrs-Radians)
 Swapping is turned off.
 Second derivative matrix not updated -- analytic derivatives used.
 ITU=  0
     Eigenvalues ---   -0.86440  -0.00093   0.00224   0.00320   0.00865
     Eigenvalues ---    0.01846   0.03900   0.04254   0.04374   0.04477
     Eigenvalues ---    0.04614   0.06881   0.07591   0.09944   0.11006
     Eigenvalues ---    0.12119   0.12417   0.13397   0.13918   0.14249
     Eigenvalues ---    0.14529   0.15763   0.16175   0.20401   0.21239
     Eigenvalues ---    0.27145   0.27370   0.30514   0.32138   0.33312
     Eigenvalues ---    0.33456   0.33497   0.33663   0.34314   0.34396
     Eigenvalues ---    0.34605   0.35291   0.39915   1.16215
 Eigenvectors required to have negative eigenvalues:
                          R7        R14       A23       A22       R4
   1                    0.73622  -0.54101  -0.25337  -0.15359   0.14112
                          A7        R1        D3        A3        D16
   1                   -0.07879  -0.07871   0.07334  -0.04946  -0.04819
 RFO step:  Lambda0=1.886264619D-04 Lambda=-1.31023159D-02.
 Linear search not attempted -- option 19 set.
 Maximum step size (   0.300) exceeded in Quadratic search.
    -- Step size scaled by   0.928
 Iteration  1 RMS(Cart)=  0.09133472 RMS(Int)=  0.05365833
 Iteration  2 RMS(Cart)=  0.07007578 RMS(Int)=  0.00738165
 Iteration  3 RMS(Cart)=  0.01281323 RMS(Int)=  0.00176553
 Iteration  4 RMS(Cart)=  0.00017627 RMS(Int)=  0.00175983
 Iteration  5 RMS(Cart)=  0.00000005 RMS(Int)=  0.00175983
 Variable       Old X    -DE/DX   Delta X   Delta X   Delta X     New X
                                 (Linear)    (Quad)   (Total)
    R1        2.86344  -0.00043   0.00000   0.06975   0.06975   2.93320
    R2        2.88004   0.00209   0.00000   0.00479   0.00479   2.88484
    R3        2.87865  -0.00244   0.00000  -0.00273  -0.00273   2.87592
    R4        2.83227  -0.00110   0.00000  -0.10622  -0.10622   2.72606
    R5        2.05372  -0.00010   0.00000  -0.00213  -0.00213   2.05159
    R6        2.05347  -0.00026   0.00000  -0.00286  -0.00286   2.05062
    R7        2.19264   0.01392   0.00000   0.12350   0.12350   2.31614
    R8        2.05986   0.00123   0.00000   0.00447   0.00447   2.06432
    R9        2.06139  -0.00133   0.00000  -0.00346  -0.00346   2.05794
   R10        2.05931  -0.00026   0.00000   0.00101   0.00101   2.06032
   R11        2.05925  -0.00028   0.00000  -0.00167  -0.00167   2.05758
   R12        2.06156  -0.00080   0.00000  -0.00103  -0.00103   2.06053
   R13        2.05984   0.00176   0.00000   0.00340   0.00340   2.06324
   R14        2.66829  -0.00694   0.00000   0.07968   0.07968   2.74797
    A1        2.01028   0.00078   0.00000  -0.07195  -0.07398   1.93630
    A2        2.01565  -0.00181   0.00000  -0.04294  -0.04589   1.96975
    A3        1.82952  -0.00440   0.00000  -0.00133   0.00194   1.83146
    A4        1.95904  -0.00027   0.00000   0.00325  -0.00377   1.95527
    A5        1.81038   0.00400   0.00000   0.11200   0.11187   1.92226
    A6        1.80745   0.00228   0.00000   0.03637   0.03454   1.84199
    A7        1.98121   0.00334   0.00000   0.05441   0.04961   2.03082
    A8        1.98223   0.00904   0.00000   0.05373   0.04893   2.03115
    A9        1.92419  -0.00125   0.00000   0.04337   0.03689   1.96108
   A10        1.90918   0.00361   0.00000   0.04271   0.04280   1.95198
   A11        1.94209  -0.00317   0.00000  -0.02943  -0.02950   1.91259
   A12        1.93159  -0.00041   0.00000  -0.00882  -0.00914   1.92245
   A13        1.89281  -0.00033   0.00000  -0.00074  -0.00043   1.89238
   A14        1.89157  -0.00073   0.00000  -0.00010  -0.00025   1.89131
   A15        1.89549   0.00105   0.00000  -0.00314  -0.00362   1.89187
   A16        1.93197  -0.00049   0.00000  -0.00414  -0.00437   1.92760
   A17        1.94239  -0.00173   0.00000  -0.02391  -0.02394   1.91845
   A18        1.90891   0.00146   0.00000   0.02810   0.02810   1.93701
   A19        1.89542   0.00070   0.00000  -0.00302  -0.00327   1.89215
   A20        1.89149  -0.00000   0.00000   0.00958   0.00939   1.90088
   A21        1.89252   0.00010   0.00000  -0.00604  -0.00584   1.88668
   A22        1.94799  -0.02786   0.00000  -0.07344  -0.07344   1.87455
   A23        1.62146   0.01490   0.00000   0.06170   0.06170   1.68316
    D1       -2.29471  -0.00138   0.00000  -0.21712  -0.21995  -2.51466
    D2       -0.07835   0.00769   0.00000  -0.06203  -0.06224  -0.14059
    D3        0.03418  -0.00293   0.00000  -0.33850  -0.33809  -0.30391
    D4        2.25054   0.00613   0.00000  -0.18340  -0.18039   2.07015
    D5        2.01088  -0.00384   0.00000  -0.31640  -0.31789   1.69299
    D6       -2.05595   0.00523   0.00000  -0.16130  -0.16018  -2.21613
    D7        1.24987   0.00042   0.00000  -0.09326  -0.09187   1.15800
    D8       -2.94231   0.00037   0.00000  -0.08490  -0.08385  -3.02616
    D9       -0.83306  -0.00070   0.00000  -0.11465  -0.11328  -0.94635
   D10       -1.10481   0.00266   0.00000   0.04387   0.04409  -1.06072
   D11        0.98619   0.00261   0.00000   0.05223   0.05211   1.03831
   D12        3.09545   0.00154   0.00000   0.02248   0.02268   3.11812
   D13       -3.04459  -0.00201   0.00000  -0.05935  -0.06060  -3.10519
   D14       -0.95358  -0.00206   0.00000  -0.05099  -0.05258  -1.00616
   D15        1.15567  -0.00313   0.00000  -0.08073  -0.08202   1.07365
   D16        0.83497  -0.00074   0.00000   0.07539   0.07552   0.91049
   D17        2.94460  -0.00135   0.00000   0.05265   0.05292   2.99751
   D18       -1.24793  -0.00136   0.00000   0.04839   0.04844  -1.19949
   D19       -3.09609  -0.00175   0.00000  -0.07591  -0.07599   3.11110
   D20       -0.98647  -0.00235   0.00000  -0.09865  -0.09859  -1.08506
   D21        1.10419  -0.00237   0.00000  -0.10291  -0.10307   1.00112
   D22       -1.15449   0.00399   0.00000   0.07455   0.07445  -1.08004
   D23        0.95514   0.00339   0.00000   0.05181   0.05185   1.00699
   D24        3.04580   0.00337   0.00000   0.04756   0.04737   3.09317
   D25        0.03385   0.00691   0.00000   0.40667   0.40776   0.44161
   D26       -2.08112   0.00617   0.00000   0.43710   0.43777  -1.64335
   D27        2.15353   0.00396   0.00000   0.37439   0.37264   2.52616
   D28       -0.02529   0.00113   0.00000  -0.29616  -0.29616  -0.32146
         Item               Value     Threshold  Converged?
 Maximum Force            0.027858     0.000450     NO 
 RMS     Force            0.005223     0.000300     NO 
 Maximum Displacement     0.572774     0.001800     NO 
 RMS     Displacement     0.139850     0.001200     NO 
 Predicted change in Energy=-1.101520D-02
 GradGradGradGradGradGradGradGradGradGradGradGradGradGradGradGradGradGrad

                          Input orientation:                          
 ---------------------------------------------------------------------
 Center     Atomic      Atomic             Coordinates (Angstroms)
 Number     Number       Type             X           Y           Z
 ---------------------------------------------------------------------
      1          6           0       -0.461793    0.056536    0.112658
      2          6           0        0.161765    0.070938    1.534006
      3          1           0        1.368754   -0.240488    1.034934
      4          1           0        0.149762    1.022798    2.055990
      5          1           0       -0.098152   -0.759056    2.182914
      6          6           0       -1.182210   -1.262739   -0.153775
      7          1           0       -2.057881   -1.384398    0.487882
      8          1           0       -1.508873   -1.297045   -1.192075
      9          1           0       -0.507928   -2.101137    0.022663
     10          6           0       -1.356068    1.258989   -0.152800
     11          1           0       -0.827626    2.183477    0.074385
     12          1           0       -1.649513    1.279126   -1.202763
     13          1           0       -2.263729    1.212340    0.452218
     14          8           0        0.657448    0.201477   -0.785835
     15          8           0        1.836122   -0.298805   -0.096608
 ---------------------------------------------------------------------
                    Distance matrix (angstroms):
                    1          2          3          4          5
     1  C    0.000000
     2  C    1.552180   0.000000
     3  H    2.071163   1.342714   0.000000
     4  H    2.254817   1.085656   2.030859   0.000000
     5  H    2.254636   1.085140   1.933542   1.803490   0.000000
     6  C    1.526589   2.536449   2.994235   3.446867   2.624690
     7  H    2.182792   2.852930   3.653714   3.623154   2.665468
     8  H    2.151949   3.477632   3.789012   4.322345   3.697312
     9  H    2.160042   2.729571   2.829954   3.784963   2.576001
    10  C    1.521871   2.561367   3.329234   2.683666   3.333229
    11  H    2.158513   2.751765   3.409156   2.495841   3.692767
    12  H    2.153076   3.497192   4.052955   3.731295   4.245434
    13  H    2.167523   2.890689   3.955401   2.903953   3.401681
    14  O    1.442567   2.375796   2.004118   3.001381   3.210456
    15  O    2.334624   2.366238   1.225651   3.037124   3.024809
                    6          7          8          9         10
     6  C    0.000000
     7  H    1.092394   0.000000
     8  H    1.089014   1.769547   0.000000
     9  H    1.090274   1.769886   1.767496   0.000000
    10  C    2.527715   2.809006   2.763468   3.469954   0.000000
    11  H    3.471915   3.796609   3.765906   4.296836   1.088826
    12  H    2.789233   3.181101   2.580029   3.772408   1.090384
    13  H    2.768200   2.605129   3.093626   3.774452   1.091820
    14  O    2.434702   3.392694   2.665248   2.704405   2.360787
    15  O    3.169032   4.084531   3.658622   2.959256   3.552458
                   11         12         13         14         15
    11  H    0.000000
    12  H    1.767613   0.000000
    13  H    1.774332   1.766546   0.000000
    14  O    2.621783   2.580160   3.329849   0.000000
    15  O    3.645067   3.982850   4.403810   1.454162   0.000000
 Stoichiometry    C4H9O2(2)
 Framework group  C1[X(C4H9O2)]
 Deg. of freedom    39
 Full point group                 C1      NOp   1
 Largest Abelian subgroup         C1      NOp   1
 Largest concise Abelian subgroup C1      NOp   1
                         Standard orientation:                         
 ---------------------------------------------------------------------
 Center     Atomic      Atomic             Coordinates (Angstroms)
 Number     Number       Type             X           Y           Z
 ---------------------------------------------------------------------
      1          6           0        0.374135    0.006027    0.029193
      2          6           0       -0.298237   -0.166089    1.417558
      3          1           0       -1.518366   -0.052549    0.868673
      4          1           0       -0.141900   -1.118837    1.914025
      5          1           0       -0.216507    0.673467    2.100196
      6          6           0        0.862531    1.439064   -0.166638
      7          1           0        1.674567    1.689060    0.519964
      8          1           0        1.222800    1.565757   -1.186494
      9          1           0        0.044483    2.140551   -0.001072
     10          6           0        1.476342   -1.012317   -0.224201
     11          1           0        1.109124   -2.022040   -0.047705
     12          1           0        1.814008   -0.944581   -1.258769
     13          1           0        2.334602   -0.829293    0.425385
     14          8           0       -0.662228   -0.300398   -0.926345
     15          8           0       -1.939201   -0.037307   -0.282364
 ---------------------------------------------------------------------
 Rotational constants (GHZ):           4.6609173           2.9123635           2.8395608
 Standard basis: CC-pVTZ+d (5D, 7F)
 There are   345 symmetry adapted cartesian basis functions of A   symmetry.
 There are   306 symmetry adapted basis functions of A   symmetry.
   306 basis functions,   465 primitive gaussians,   345 cartesian basis functions
    25 alpha electrons       24 beta electrons
       nuclear repulsion energy       260.8694188554 Hartrees.
 NAtoms=   15 NActive=   15 NUniq=   15 SFac= 1.00D+00 NAtFMM=   60 NAOKFM=F Big=F
 Integral buffers will be    131072 words long.
 Raffenetti 2 integral format.
 Two-electron integral symmetry is turned on.
 One-electron integrals computed using PRISM.
 NBasis=   306 RedAO= T EigKep=  6.34D-04  NBF=   306
 NBsUse=   306 1.00D-06 EigRej= -1.00D+00 NBFU=   306
 Initial guess from the checkpoint file:  "RtertbO2-T-Shift-TS3-b3lyp-c.chk"
 B after Tr=     0.000000   -0.000000   -0.000000
         Rot=    0.997056   -0.012975    0.012059   -0.074602 Ang=  -8.80 deg.
 Initial guess <Sx>= 0.0000 <Sy>= 0.0000 <Sz>= 0.5000 <S**2>= 0.7572 S= 0.5036
 ExpMin= 1.03D-01 ExpMax= 1.53D+04 ExpMxC= 5.22D+02 IAcc=3 IRadAn=         5 AccDes= 0.00D+00
 Harris functional with IExCor=  402 and IRadAn=       5 diagonalized for initial guess.
 HarFok:  IExCor=  402 AccDes= 0.00D+00 IRadAn=         5 IDoV= 1 UseB2=F ITyADJ=14
 ICtDFT=  3500011 ScaDFX=  1.000000  1.000000  1.000000  1.000000
 FoFCou: FMM=F IPFlag=           0 FMFlag=      100000 FMFlg1=           0
         NFxFlg=           0 DoJE=T BraDBF=F KetDBF=T FulRan=T
         wScrn=  0.000000 ICntrl=       500 IOpCl=  0 I1Cent=   200000004 NGrid=           0
         NMat0=    1 NMatS0=      1 NMatT0=    0 NMatD0=    1 NMtDS0=    0 NMtDT0=    0
 Petite list used in FoFCou.
 Requested convergence on RMS density matrix=1.00D-08 within 128 cycles.
 Requested convergence on MAX density matrix=1.00D-06.
 Requested convergence on             energy=1.00D-06.
 No special actions if energy rises.
 Integral accuracy reduced to 1.0D-05 until final iterations.
 Initial convergence to 1.0D-05 achieved.  Increase integral accuracy.
 SCF Done:  E(UB3LYP) =  -308.223941311     A.U. after   23 cycles
            NFock= 23  Conv=0.60D-08     -V/T= 2.0068
 <Sx>= 0.0000 <Sy>= 0.0000 <Sz>= 0.5000 <S**2>= 0.7587 S= 0.5043
 <L.S>= 0.000000000000E+00
 Annihilation of the first spin contaminant:
 S**2 before annihilation     0.7587,   after     0.7500
 Calling FoFJK, ICntrl=      2127 FMM=F ISym2X=0 I1Cent= 0 IOpClX= 1 NMat=1 NMatS=1 NMatT=0.
 ***** Axes restored to original set *****
 -------------------------------------------------------------------
 Center     Atomic                   Forces (Hartrees/Bohr)
 Number     Number              X              Y              Z
 -------------------------------------------------------------------
      1        6          -0.001815389   -0.003536001    0.013325744
      2        6          -0.002948721   -0.002447291   -0.005742814
      3        1          -0.006232070    0.007270617   -0.000312078
      4        1           0.003776984    0.000674646   -0.001444661
      5        1           0.000021129   -0.000881126    0.000086308
      6        6           0.001059948   -0.002538811   -0.000164639
      7        1           0.001142798    0.001072976   -0.000112033
      8        1          -0.000500091   -0.000466559   -0.000525391
      9        1          -0.000117256   -0.000115730   -0.000547999
     10        6           0.000249025    0.000553851   -0.001118248
     11        1          -0.000046636    0.000232978   -0.000253120
     12        1          -0.000546108    0.000417483   -0.000330277
     13        1           0.000943011   -0.000770141    0.000024961
     14        8           0.018767582    0.002089624    0.004614656
     15        8          -0.013754207   -0.001556515   -0.007500410
 -------------------------------------------------------------------
 Cartesian Forces:  Max     0.018767582 RMS     0.004693047

 GradGradGradGradGradGradGradGradGradGradGradGradGradGradGradGradGradGrad
 Berny optimization.
 FormGI is forming the generalized inverse of G from B-inverse, IUseBI=4.
 Internal  Forces:  Max     0.027407794 RMS     0.005328011
 Search for a saddle point.
 Step number   2 out of a maximum of   75
 All quantities printed in internal units (Hartrees-Bohrs-Radians)
 Swapping is turned off.
 Update second derivatives using D2CorX and points    1    2
 ITU=  0  0
     Eigenvalues ---   -0.86229  -0.00434   0.00224   0.00327   0.00835
     Eigenvalues ---    0.02576   0.03823   0.04257   0.04380   0.04476
     Eigenvalues ---    0.04613   0.06897   0.07648   0.09999   0.10986
     Eigenvalues ---    0.12114   0.12407   0.13332   0.13861   0.14236
     Eigenvalues ---    0.14521   0.15741   0.16172   0.20350   0.21212
     Eigenvalues ---    0.27144   0.27475   0.30559   0.32158   0.33312
     Eigenvalues ---    0.33456   0.33498   0.33663   0.34314   0.34397
     Eigenvalues ---    0.34606   0.35316   0.39922   1.16522
 Eigenvectors required to have negative eigenvalues:
                          R7        R14       A23       A22       R4
   1                    0.73999  -0.53859  -0.25169  -0.15437   0.13835
                          R1        A7        D3        D27       A3
   1                   -0.07676  -0.07035   0.06490   0.05538  -0.05189
 RFO step:  Lambda0=6.502106553D-04 Lambda=-8.28578379D-03.
 Linear search not attempted -- option 19 set.
 Maximum step size (   0.300) exceeded in Quadratic search.
    -- Step size scaled by   0.945
 Iteration  1 RMS(Cart)=  0.08904534 RMS(Int)=  0.02577157
 Iteration  2 RMS(Cart)=  0.03107592 RMS(Int)=  0.00136404
 Iteration  3 RMS(Cart)=  0.00147434 RMS(Int)=  0.00040321
 Iteration  4 RMS(Cart)=  0.00000334 RMS(Int)=  0.00040320
 Iteration  5 RMS(Cart)=  0.00000000 RMS(Int)=  0.00040320
 Variable       Old X    -DE/DX   Delta X   Delta X   Delta X     New X
                                 (Linear)    (Quad)   (Total)
    R1        2.93320  -0.00619   0.00000  -0.07022  -0.07022   2.86298
    R2        2.88484   0.00126   0.00000   0.00891   0.00891   2.89375
    R3        2.87592   0.00028   0.00000  -0.01028  -0.01028   2.86564
    R4        2.72606   0.00183   0.00000   0.13156   0.13156   2.85762
    R5        2.05159  -0.00014   0.00000  -0.00008  -0.00008   2.05152
    R6        2.05062   0.00072   0.00000  -0.00216  -0.00216   2.04846
    R7        2.31614   0.00243   0.00000  -0.19826  -0.19826   2.11788
    R8        2.06432  -0.00110   0.00000  -0.00380  -0.00380   2.06052
    R9        2.05794   0.00067   0.00000   0.00125   0.00125   2.05919
   R10        2.06032  -0.00007   0.00000  -0.00058  -0.00058   2.05974
   R11        2.05758   0.00012   0.00000  -0.00037  -0.00037   2.05722
   R12        2.06053   0.00047   0.00000   0.00285   0.00285   2.06337
   R13        2.06324  -0.00074   0.00000  -0.00332  -0.00332   2.05992
   R14        2.74797  -0.02187   0.00000  -0.11578  -0.11578   2.63219
    A1        1.93630  -0.00078   0.00000  -0.00500  -0.00592   1.93038
    A2        1.96975   0.00291   0.00000   0.03787   0.03766   2.00741
    A3        1.83146  -0.00339   0.00000   0.01222   0.01269   1.84415
    A4        1.95527  -0.00053   0.00000   0.02207   0.02113   1.97640
    A5        1.92226   0.00126   0.00000  -0.02436  -0.02429   1.89796
    A6        1.84199   0.00042   0.00000  -0.04764  -0.04748   1.79452
    A7        2.03082   0.00112   0.00000   0.01352   0.01228   2.04310
    A8        2.03115  -0.00004   0.00000   0.01739   0.01615   2.04731
    A9        1.96108   0.00070   0.00000   0.03466   0.03310   1.99418
   A10        1.95198  -0.00186   0.00000  -0.01971  -0.01970   1.93228
   A11        1.91259   0.00098   0.00000   0.01541   0.01542   1.92801
   A12        1.92245   0.00062   0.00000   0.00190   0.00183   1.92428
   A13        1.89238   0.00030   0.00000   0.00327   0.00335   1.89574
   A14        1.89131   0.00055   0.00000   0.00116   0.00110   1.89242
   A15        1.89187  -0.00057   0.00000  -0.00172  -0.00179   1.89008
   A16        1.92760   0.00047   0.00000   0.00786   0.00778   1.93538
   A17        1.91845   0.00105   0.00000   0.01482   0.01478   1.93323
   A18        1.93701  -0.00166   0.00000  -0.02180  -0.02176   1.91525
   A19        1.89215  -0.00048   0.00000   0.00054   0.00038   1.89253
   A20        1.90088   0.00046   0.00000   0.00141   0.00142   1.90231
   A21        1.88668   0.00018   0.00000  -0.00268  -0.00261   1.88407
   A22        1.87455  -0.02741   0.00000  -0.01738  -0.01738   1.85717
   A23        1.68316  -0.01859   0.00000   0.00482   0.00482   1.68798
    D1       -2.51466  -0.00298   0.00000  -0.28716  -0.28742  -2.80208
    D2       -0.14059  -0.00048   0.00000  -0.19169  -0.19140  -0.33199
    D3       -0.30391  -0.00202   0.00000  -0.23163  -0.23210  -0.53601
    D4        2.07015   0.00047   0.00000  -0.13616  -0.13607   1.93408
    D5        1.69299  -0.00209   0.00000  -0.26277  -0.26288   1.43011
    D6       -2.21613   0.00040   0.00000  -0.16730  -0.16685  -2.38299
    D7        1.15800   0.00211   0.00000  -0.01275  -0.01288   1.14512
    D8       -3.02616   0.00193   0.00000  -0.01103  -0.01124  -3.03740
    D9       -0.94635   0.00222   0.00000  -0.00245  -0.00262  -0.94896
   D10       -1.06072  -0.00073   0.00000  -0.07667  -0.07662  -1.13733
   D11        1.03831  -0.00091   0.00000  -0.07494  -0.07497   0.96334
   D12        3.11812  -0.00062   0.00000  -0.06636  -0.06635   3.05177
   D13       -3.10519  -0.00174   0.00000  -0.01542  -0.01522  -3.12041
   D14       -1.00616  -0.00192   0.00000  -0.01369  -0.01358  -1.01974
   D15        1.07365  -0.00163   0.00000  -0.00511  -0.00495   1.06870
   D16        0.91049  -0.00117   0.00000  -0.01797  -0.01855   0.89194
   D17        2.99751  -0.00080   0.00000  -0.00297  -0.00344   2.99407
   D18       -1.19949  -0.00096   0.00000  -0.01054  -0.01110  -1.21059
   D19        3.11110  -0.00032   0.00000   0.02388   0.02419   3.13529
   D20       -1.08506   0.00005   0.00000   0.03888   0.03930  -1.04577
   D21        1.00112  -0.00010   0.00000   0.03131   0.03164   1.03276
   D22       -1.08004   0.00119   0.00000  -0.02328  -0.02314  -1.10318
   D23        1.00699   0.00155   0.00000  -0.00828  -0.00804   0.99895
   D24        3.09317   0.00140   0.00000  -0.01585  -0.01569   3.07748
   D25        0.44161  -0.00369   0.00000   0.27811   0.27795   0.71956
   D26       -1.64335  -0.00148   0.00000   0.28954   0.29024  -1.35311
   D27        2.52616  -0.00178   0.00000   0.30482   0.30427   2.83043
   D28       -0.32146  -0.01067   0.00000  -0.28388  -0.28388  -0.60534
         Item               Value     Threshold  Converged?
 Maximum Force            0.027408     0.000450     NO 
 RMS     Force            0.005328     0.000300     NO 
 Maximum Displacement     0.373687     0.001800     NO 
 RMS     Displacement     0.115864     0.001200     NO 
 Predicted change in Energy=-6.675955D-03
 GradGradGradGradGradGradGradGradGradGradGradGradGradGradGradGradGradGrad

                          Input orientation:                          
 ---------------------------------------------------------------------
 Center     Atomic      Atomic             Coordinates (Angstroms)
 Number     Number       Type             X           Y           Z
 ---------------------------------------------------------------------
      1          6           0       -0.487614    0.091229    0.185296
      2          6           0        0.074300    0.085968    1.592251
      3          1           0        1.471109   -0.349451    0.866225
      4          1           0        0.254996    1.051005    2.055516
      5          1           0       -0.295899   -0.672347    2.272664
      6          6           0       -1.127299   -1.260410   -0.144508
      7          1           0       -2.001840   -1.436398    0.482499
      8          1           0       -1.436270   -1.290994   -1.189016
      9          1           0       -0.413908   -2.066863    0.025001
     10          6           0       -1.380229    1.271977   -0.144310
     11          1           0       -0.891766    2.210900    0.110534
     12          1           0       -1.624416    1.287518   -1.208433
     13          1           0       -2.313606    1.194812    0.413448
     14          8           0        0.699273    0.302801   -0.727528
     15          8           0        1.733246   -0.477735   -0.215844
 ---------------------------------------------------------------------
                    Distance matrix (angstroms):
                    1          2          3          4          5
     1  C    0.000000
     2  C    1.515024   0.000000
     3  H    2.120014   1.633334   0.000000
     4  H    2.229431   1.085616   2.203320   0.000000
     5  H    2.230899   1.083998   2.281370   1.822245   0.000000
     6  C    1.531306   2.504577   2.933113   3.477569   2.622931
     7  H    2.171372   2.803481   3.659245   3.708755   2.588185
     8  H    2.167769   3.451563   3.682848   4.344229   3.696809
     9  H    2.165292   2.707268   2.685228   3.780413   2.647752
    10  C    1.516433   2.556935   3.432250   2.749914   3.286021
    11  H    2.159151   2.764798   3.565059   2.538381   3.652804
    12  H    2.160070   3.489009   4.070153   3.773789   4.209995
    13  H    2.145739   2.884650   4.112642   3.052013   3.318751
    14  O    1.512187   2.412256   1.887117   2.915908   3.307935
    15  O    2.327412   2.517750   1.120734   3.111485   3.216827
                    6          7          8          9         10
     6  C    0.000000
     7  H    1.090381   0.000000
     8  H    1.089676   1.770585   0.000000
     9  H    1.089966   1.768706   1.766644   0.000000
    10  C    2.544987   2.848611   2.768280   3.479985   0.000000
    11  H    3.488627   3.830589   3.774729   4.305221   1.088632
    12  H    2.805530   3.228222   2.585440   3.773401   1.091891
[...]
 ! D24   D(14,1,10,13)        -177.4712         -DE/DX =    0.0                 !
 ! D25   D(2,1,14,15)           42.4624         -DE/DX =    0.0                 !
 ! D26   D(6,1,14,15)          -76.3795         -DE/DX =    0.0                 !
 ! D27   D(10,1,14,15)         161.619          -DE/DX =    0.0                 !
 ! D28   D(1,14,15,3)          -32.2549         -DE/DX =    0.0                 !
 --------------------------------------------------------------------------------
 GradGradGradGradGradGradGradGradGradGradGradGradGradGradGradGradGradGrad


 ----------------------------------------------------------------------

 Electric dipole moment (input orientation):
 (Debye = 10**-18 statcoulomb cm , SI units = C m)
                  (au)            (Debye)         (10**-30 SI)
   Tot        0.123503D+01      0.313914D+01      0.104710D+02
   x         -0.995585D+00     -0.253052D+01     -0.844092D+01
   y          0.635721D-01      0.161584D+00      0.538987D+00
   z          0.728061D+00      0.185055D+01      0.617276D+01

 Dipole polarizability, Alpha (input orientation).
 (esu units = cm**3 , SI units = C**2 m**2 J**-1)
 Alpha(0;0):
               (au)            (10**-24 esu)      (10**-40 SI)
   iso        0.616747D+02      0.913925D+01      0.101688D+02
   aniso      0.115739D+02      0.171507D+01      0.190827D+01
   xx         0.630786D+02      0.934729D+01      0.104003D+02
   yx        -0.411236D+01     -0.609389D+00     -0.678037D+00
   yy         0.566895D+02      0.840052D+01      0.934684D+01
   zx        -0.209175D+01     -0.309965D+00     -0.344883D+00
   zy         0.188154D+01      0.278816D+00      0.310224D+00
   zz         0.652560D+02      0.966994D+01      0.107593D+02

 ----------------------------------------------------------------------

 Dipole orientation:
     6         -0.30461570          0.12997953          0.87497938
     6          2.51397697          0.03160366          1.54514896
     1          2.95667005         -0.78738047         -0.87101617
     1          3.47894612          1.83969885          1.66692697
     1          3.13716047         -1.35312879          2.92158876
     6         -1.59408264         -2.40613413          1.35389554
     1         -1.57358995         -2.86815499          3.36280806
     1         -3.55273386         -2.33064309          0.72299776
     1         -0.63335303         -3.90571295          0.32405257
     6         -1.70305069          2.32302768          2.10186654
     1         -0.77719321          4.10935142          1.66974724
     1         -3.64616857          2.40637119          1.41921900
     1         -1.75260546          2.07828288          4.14724306
     8         -0.24790002          0.69226685         -1.81550123
     8          1.71176608         -0.87609445         -2.76655922

 Electric dipole moment (dipole orientation):
 (Debye = 10**-18 statcoulomb cm , SI units = C m)
                  (au)            (Debye)         (10**-30 SI)
   Tot        0.123503D+01      0.313914D+01      0.104710D+02
   x          0.000000D+00      0.000000D+00      0.000000D+00
   y          0.000000D+00      0.000000D+00      0.000000D+00
   z          0.123503D+01      0.313914D+01      0.104710D+02

 Dipole polarizability, Alpha (dipole orientation).
 (esu units = cm**3 , SI units = C**2 m**2 J**-1)
 Alpha(0;0):
               (au)            (10**-24 esu)      (10**-40 SI)
   iso        0.616747D+02      0.913925D+01      0.101688D+02
   aniso      0.115739D+02      0.171507D+01      0.190827D+01
   xx         0.624478D+02      0.925381D+01      0.102962D+02
   yx        -0.115541D+01     -0.171214D+00     -0.190501D+00
   yy         0.563145D+02      0.834494D+01      0.928500D+01
   zx         0.172487D+01      0.255599D+00      0.284393D+00
   zy         0.389298D+01      0.576879D+00      0.641865D+00
   zz         0.662619D+02      0.981900D+01      0.109251D+02

 ----------------------------------------------------------------------
 1\1\GINC-CNODE0583\Freq\UB3LYP\CC-pVTZ+d\C4H9O2(2)\CVANSTADEN\30-Mar-2
 022\0\\#N Geom=AllCheck Guess=TCheck SCRF=Check GenChk UB3LYP/CC-pVTZ+
 d Freq\\RtertbO2-T-Shift-TS3-b3lyp-c\\0,2\C,-0.4667486602,0.0882929984
 ,0.1394697431\C,0.1277688364,0.0935129213,1.5535690649\H,1.2856352594,
 -0.3988506221,1.0109889174\H,0.4026754727,1.0653681977,1.9539449861\H,
 -0.2835685887,-0.5919329454,2.2865118791\C,-1.1094715847,-1.2562913224
 ,-0.1921112337\H,-1.9664066841,-1.4453710118,0.4559040954\H,-1.4520369
 534,-1.2606520281,-1.2265016972\H,-0.39032486,-2.0632915323,-0.0626993
 395\C,-1.3973010027,1.2609703654,-0.1340794482\H,-0.898648718,2.205696
 0345,0.0774146476\H,-1.7128230504,1.2595630537,-1.1782011311\H,-2.2887
 028255,1.1867021371,0.4895117118\O,0.7064689787,0.3128443763,-0.690959
 122\O,1.7035609105,-0.5145477125,-0.1089692539\\Version=ES64L-G16RevB.
 01\State=2-A\HF=-308.2281776\S2=0.758651\S2-1=0.\S2A=0.750036\RMSD=3.6
 41e-10\RMSF=1.901e-05\ZeroPoint=0.1201658\Thermal=0.1271151\Dipole=-0.
 995585,0.0635721,0.7280611\DipoleDeriv=0.4650652,0.0598837,0.2611134,0
 .0874935,0.412279,0.0471568,0.1444405,-0.0695385,0.0557551,0.1234471,-
 0.0237352,-0.7011971,-0.0346869,0.101919,0.1666603,-0.1351367,0.010472
 8,0.0477007,-0.0267779,0.1140118,0.5904669,0.0292599,0.1108546,-0.1146
 169,0.2846714,-0.1179411,-0.5785243,0.0334195,0.0038039,0.1427889,-0.0
 428227,-0.0705845,-0.1096484,-0.0346787,-0.0306168,-0.0098002,0.044831
 3,-0.0615399,0.1392674,-0.0366662,0.0153077,0.0110759,0.0099418,0.0458
 891,-0.0051668,-0.0006989,-0.0092379,-0.0269711,-0.0454133,-0.1216877,
 -0.0079835,-0.0571,-0.0536835,0.0818922,-0.0529201,-0.0454683,0.058489
 1,-0.0241614,0.0535092,-0.019019,0.103324,0.0206794,-0.0041409,0.03995
 85,-0.0206874,-0.0430767,-0.0152118,0.0491234,0.0327403,-0.0826101,-0.
 0169968,-0.0951294,0.0078825,0.100725,-0.0141267,0.0451151,-0.0395052,
 0.0172195,-0.0202775,0.0135181,0.0508626,-0.0192045,0.0551124,-0.05141
 31,0.0572997,-0.0229964,0.0070115,-0.1154196,0.0579163,0.1665727,0.020
 5644,-0.0855424,-0.0203233,-0.037334,-0.0909088,-0.0247321,-0.0247086,
 -0.0379227,0.049811,0.0393147,0.0184885,-0.0147309,0.0361601,0.0422034
 ,-0.041787,-0.0814156,0.0181955,-0.0853466,-0.0379545,-0.002,0.0441806
 ,-0.0246829,0.0573168,0.0462919,0.1006887,0.0078268,-0.0006142,-0.2209
 516,-0.1670817,-0.6546155,-0.1749808,-0.2161848,0.3634281,0.1132391,0.
 0331849,-0.4714958,-0.4159757,0.0632675,0.2901481,0.1806319,-0.2806458
 ,-0.3737973,-0.2049588,0.1190166,0.7976241\Polar=63.0786327,-4.1123627
 ,56.68952,-2.0917506,1.8815406,65.2560095\Quadrupole=-1.8070269,0.7446
 392,1.0623877,0.0807028,1.6906415,0.0717883\PG=C01 [X(C4H9O2)]\NImag=1
 \\0.44212826,-0.02224129,0.50901395,0.07372465,-0.00851516,0.40924675,
 -0.05440751,-0.01023566,-0.05284288,0.19388768,-0.02193886,-0.08048905
 ,0.00177863,0.16945843,0.53703590,-0.05007402,-0.00014815,-0.13088579,
 -0.00424268,-0.03597128,0.49466925,-0.03992657,0.01004045,0.00249835,0
 .05246780,-0.02560984,-0.01775059,-0.01146911,0.00865897,0.00099995,0.
 00232614,-0.02042797,-0.01798685,0.00544316,0.00352766,0.04486987,0.02
 410393,-0.00033250,-0.02334438,-0.11756333,0.04433477,0.02538284,0.124
 23046,-0.04963122,-0.05422771,-0.00506670,-0.01163358,-0.00251517,-0.0
 3750599,-0.06307023,-0.02376528,-0.01031281,0.01281940,0.01856308,0.04
 439828,0.00099740,0.00115461,0.00218112,-0.07442997,-0.27291557,-0.088
 15690,0.00168780,-0.00662880,-0.00542881,0.07408198,0.28587026,-0.0058
 7092,-0.02529073,-0.00402278,-0.03003723,-0.08667269,-0.08957006,0.000
 66775,-0.00467792,-0.00318849,0.03173530,0.09598294,0.08756993,0.00460
 915,0.00599244,-0.00813685,-0.07358171,-0.08397922,0.07307831,-0.00879
 079,-0.00624537,0.01188910,0.00051018,-0.00236211,0.00472925,0.0722971
 9,0.00068652,0.00244849,-0.00141252,-0.07861847,-0.15869534,0.11857234
 ,0.00537632,0.00161027,-0.00747622,-0.01053706,-0.01184247,0.01843133,
 0.08536980,0.16439524,0.01298481,0.01431162,-0.00587024,0.06698649,0.1
 2035172,-0.17815138,-0.00017394,0.00275314,-0.00095713,-0.00483505,-0.
 00803366,0.01000393,-0.07523538,-0.12970428,0.18481656,-0.08870132,-0.
 02494932,-0.01385543,-0.00709415,-0.01214136,-0.00881702,0.00030099,-0
 .00105376,-0.00103753,-0.00043920,0.00022313,-0.00132002,0.00073186,-0
 .00051504,0.00079971,0.55682945,-0.02694775,-0.15696340,-0.02419505,-0
 .00352857,-0.00172035,-0.00475707,-0.00021885,0.00052030,-0.00065921,0
 .00027496,0.00121611,0.00159397,0.00031937,0.00037481,0.00087735,-0.04
 787394,0.48646017,-0.01759248,-0.02672120,-0.08143478,-0.01411977,-0.0
 3051738,-0.01329433,0.00018070,-0.00021990,0.00183062,-0.00305466,-0.0
 0017973,-0.00500297,-0.00011872,-0.00040615,0.00107115,-0.00766559,-0.
 02334911,0.57288934,-0.01010433,0.00111834,0.00738528,-0.00085236,0.00
 038681,0.00084045,0.00120909,-0.00012135,-0.00115220,0.00044257,0.0000
 4450,-0.00031435,0.00006255,0.00000370,-0.00073907,-0.20661872,-0.0349
 4608,0.12132739,0.22400513,-0.02027732,-0.00152785,0.01785160,-0.00012
 755,0.00093531,0.00050506,0.00045032,-0.00021531,-0.00075575,0.0001806
 9,0.00004381,0.00000315,0.00011383,0.00006487,-0.00034604,-0.03347816,
 -0.05454366,0.02423642,0.03891084,0.05664250,-0.00591387,-0.00066466,0
 .00274603,0.00005442,0.00018702,0.00032154,-0.00065483,0.00007978,0.00
 059787,-0.00010332,0.00017292,0.00016029,-0.00024029,-0.00022704,-0.00
 003715,0.12262491,0.02563143,-0.14027792,-0.13509105,-0.02736909,0.149
 73330,-0.00656208,-0.00076951,-0.01371532,0.00038585,-0.00323506,-0.00
 009081,-0.00023540,0.00027126,0.00086780,-0.00053604,0.00003475,-0.000
 79497,-0.00001237,0.00017539,0.00001937,-0.07221939,0.00137512,-0.0771
 9866,0.00937406,0.00023934,0.02467324,0.07431856,-0.01003431,-0.001011
 31,-0.02903794,-0.00174075,-0.00556649,-0.00097124,-0.00044550,-0.0001
 5598,0.00086033,-0.00086423,0.00013827,-0.00152834,0.00005269,0.000112
 24,-0.00008037,0.00137139,-0.04758959,0.00425905,0.00239671,-0.0010054
 1,0.00502302,0.00090588,0.05105305,-0.00219316,0.00068406,-0.00791165,
 0.00035372,-0.00198752,0.00032630,-0.00046026,0.00014717,0.00078860,-0
 .00044167,0.00000507,-0.00019839,0.00001052,0.00008031,0.00041313,-0.0
 7843324,0.00118522,-0.28518757,-0.00595394,0.00024084,-0.01677836,0.08
 676955,-0.00108142,0.30922252,0.01058178,-0.01147998,0.00186204,0.0009
 5805,0.00028109,0.00016134,-0.00015833,-0.00026703,-0.00019700,-0.0000
 4852,0.00002816,0.00022298,-0.00004051,0.00021980,0.00019827,-0.165493
 23,0.13268814,-0.02230467,-0.01592068,0.01793648,-0.00408276,-0.006155
 29,0.00568422,-0.00054746,0.17773322,0.02084392,-0.02330381,0.00439313
 ,0.00084156,0.00087091,0.00064712,-0.00069497,-0.00049679,-0.00002848,
 -0.00000468,0.00020911,0.00006052,-0.00001328,0.00002566,-0.00048081,0
 .12889915,-0.19020824,0.02346667,-0.00455956,0.00533723,-0.00160328,-0
 .00086797,0.00048064,0.00030463,-0.14246841,0.20884425,0.00675485,-0.0
 0540882,-0.00086798,-0.00033241,-0.00000115,0.00065000,0.00062489,-0.0
 0049058,-0.00093988,0.00032773,0.00014810,-0.00002480,0.00021700,-0.00
 003844,-0.00025609,-0.02256097,0.02354452,-0.05260135,0.01238691,-0.01
 556709,0.00231482,-0.02069061,0.02319562,-0.00244085,0.02498259,-0.024
 64060,0.05215948,-0.10489187,0.04121710,-0.01053092,-0.01038669,0.0093
 9921,-0.00779141,0.00109235,-0.00007467,-0.00260140,0.00162345,0.00023
 241,0.00060109,-0.00025805,-0.00004395,0.00005509,0.01217135,-0.008073
 03,0.00129450,-0.00018456,0.00038690,0.00021351,0.00003167,-0.00028759
 ,0.00019263,-0.00131943,-0.00434897,-0.00090119,0.53390673,0.04685650,
 -0.14353373,0.01481597,0.00455670,-0.00207614,0.00450292,-0.00106114,0
 .00010416,0.00282136,-0.00104384,0.00099406,-0.00137613,0.00022283,-0.
 00046863,-0.00075051,0.01772080,-0.03100459,0.00404721,0.00073888,0.00
 105169,0.00017314,0.00091726,0.00160711,0.00074671,-0.00223405,-0.0043
 0469,-0.00092752,0.05718872,0.51308763,-0.02302800,0.02060214,-0.07800
 175,-0.01161808,0.01826772,-0.00957949,-0.01014669,0.00238467,0.009269
 27,-0.00066229,0.00080631,0.00147631,-0.00013277,-0.00001600,-0.001464
 84,0.00357463,-0.00549329,0.00233996,0.00036235,0.00032426,-0.00015183
 ,0.00025829,-0.00093156,0.00014054,-0.00034468,-0.00188860,0.00021526,
 -0.01155839,0.01875163,0.55862911,0.00891496,0.01878120,0.00430244,0.0
 0104248,0.00024242,0.00085692,-0.00015502,0.00013271,0.00023523,0.0000
 1081,-0.00014703,-0.00008443,-0.00009070,0.00001050,0.00001997,-0.0025
 0190,0.00242451,-0.00039692,0.00009552,0.00012989,-0.00020821,-0.00012
 681,0.00000982,0.00009083,0.00054918,0.00111636,0.00015985,-0.10554598
 ,-0.10883959,-0.02562960,0.11180956,-0.01310062,-0.02436308,-0.0050374
 3,-0.00073012,0.00072262,-0.00121259,-0.00017200,-0.00004722,-0.000011
 02,0.00040308,0.00047298,0.00087401,-0.00001161,0.00029372,0.00000281,
 0.00509927,-0.00281013,0.00137246,-0.00005292,0.00034433,0.00011427,0.
 00003684,0.00029729,0.00001101,-0.00085199,-0.00149050,-0.00036436,-0.
 10514606,-0.24301533,-0.04476871,0.11531653,0.26650852,0.00388806,0.00
 542070,-0.00120212,0.00031971,0.00121956,0.00058521,0.00052506,-0.0000
 9720,-0.00062267,-0.00002414,-0.00010278,-0.00014473,-0.00006777,-0.00
 004363,0.00003103,-0.00082300,0.00082903,0.00002927,-0.00024879,-0.000
 24218,0.00005604,0.00011467,0.00030723,0.00036952,0.00009735,0.0002985
 3,0.00068222,-0.02580058,-0.04559863,-0.05833683,0.02875801,0.04870562
 ,0.05867161,-0.00879208,0.00006958,-0.02013716,0.00044909,0.00231901,-
 0.00054230,-0.00220013,0.00054193,0.00220515,-0.00027144,0.00016104,0.
 00029894,-0.00049496,0.00026593,-0.00046090,0.00017675,-0.00115355,0.0
 0011758,0.00011191,-0.00002755,0.00013753,0.00048438,0.00017096,0.0002
 7309,-0.00009253,-0.00014217,0.00020593,-0.06610101,-0.00144079,-0.071
 06003,-0.00447977,0.00063885,-0.01435358,0.06973804,0.00801291,-0.0009
 2586,0.02587696,0.00071190,-0.00231077,-0.00011322,0.00214871,-0.00042
 863,-0.00207426,0.00033833,0.00008540,0.00012989,0.00003829,0.00019457
 ,0.00040718,-0.00005034,0.00131109,0.00100753,-0.00002347,-0.00013413,
 0.00000312,-0.00000845,-0.00053418,-0.00045794,-0.00006859,0.00028775,
 -0.00039989,-0.00146260,-0.04818442,-0.00348218,-0.00664136,0.00088100
 ,-0.02716254,-0.00138453,0.04976376,-0.00222181,-0.00009687,-0.0058391
 0,-0.00026063,0.00107768,0.00067880,-0.00047730,0.00000157,0.00042794,
 0.00013017,0.00005036,0.00014975,-0.00014076,0.00010026,-0.00010568,0.
 00025281,-0.00056090,0.00019368,-0.00005134,0.00000572,0.00000459,0.00
 023381,0.00039157,0.00055900,0.00007339,0.00000206,0.00036334,-0.07159
 013,-0.00259565,-0.28661009,-0.00087008,-0.00023942,-0.00463489,0.0795
 9910,0.00234499,0.31172288,-0.01553294,-0.00451956,0.01135162,-0.00054
 976,0.00004271,0.00017410,0.00142691,-0.00037043,-0.00118624,0.0001006
 4,-0.00011087,-0.00015909,-0.00007314,0.00011737,-0.00025004,0.0004178
 4,-0.00098116,0.00021672,0.00058103,0.00033417,-0.00015886,0.00007441,
 0.00006654,-0.00008078,0.00009897,-0.00000239,-0.00037818,-0.22000203,
 -0.01480674,0.12391234,-0.01132990,-0.00031249,0.00780111,0.00897282,0
 .00054125,-0.00534044,0.24002079,0.01870415,0.00348329,-0.01659313,0.0
 0034534,0.00029506,-0.00026239,-0.00080664,0.00016326,0.00066427,-0.00
 017258,-0.00000451,0.00015143,0.00004351,-0.00000044,0.00017849,-0.000
 50359,0.00081408,-0.00025560,0.00003912,-0.00072531,0.00009995,0.00002
 298,-0.00011738,-0.00006068,-0.00008478,0.00031745,0.00020865,-0.01645
 969,-0.04880735,0.01170815,-0.02211090,-0.00048601,0.01717130,0.000333
 41,-0.00085024,-0.00048491,0.01561720,0.05002875,-0.00546604,-0.000832
 32,0.00217306,-0.00052468,-0.00005662,0.00032185,0.00059943,-0.0001699
 7,-0.00072805,0.00008817,-0.00011906,-0.00000076,-0.00001300,0.0000903
 1,0.00011698,0.00012181,-0.00003789,-0.00006222,-0.00014115,-0.0001708
 1,0.00036502,0.00016833,0.00000635,-0.00003151,-0.00018934,-0.00012774
 ,0.00002548,0.12403945,0.01092578,-0.13198552,-0.00659639,0.00037997,0
 .00377675,0.02607124,0.00221536,-0.01675123,-0.13598631,-0.01335082,0.
 14136235,-0.07274512,-0.02483843,0.02520124,-0.04555197,0.01372685,0.0
 1763712,0.04363830,-0.00755975,-0.06677510,0.01029171,-0.00227730,-0.0
 0105212,0.00646916,-0.00337618,0.00178397,-0.02883287,-0.01222124,0.02
 128625,-0.00353460,-0.00597106,-0.00107786,0.00225269,0.00272361,0.000
 65740,0.00055664,0.00154427,-0.00099425,-0.03437063,0.00710379,0.02243
 178,0.00157769,-0.00112028,-0.00064427,0.00308505,-0.00247938,0.001231
 45,-0.00365564,0.00281096,-0.00155798,0.23000070,-0.01852598,-0.082687
 33,0.02725101,0.02648880,-0.00245071,0.00770009,-0.02053066,0.00495983
 ,0.04134916,-0.00772526,0.00222752,0.00329200,-0.00243205,0.00341142,-
 0.00026001,-0.03130115,-0.00518738,0.02257468,-0.00263138,-0.00682181,
 -0.00189582,0.00058566,0.00168318,0.00000221,0.00174624,0.00145438,0.0
 0136806,0.02675506,0.00071423,-0.01814268,-0.00016052,0.00185010,-0.00
 043501,-0.00134610,0.00179154,-0.00077137,0.00431033,-0.00393413,0.001
 07768,-0.03658956,0.17111223,0.01383393,0.03961435,-0.09754552,0.01397
 782,0.02556543,-0.05598673,0.00066117,0.01525190,-0.04510303,0.0016053
 5,-0.00141310,-0.00028379,0.00286203,-0.00548836,-0.00873584,0.0070844
 6,0.00620876,-0.00078857,-0.00070148,0.00088669,0.00201211,0.00033732,
 0.00026715,0.00164300,-0.00011629,0.00001232,-0.00039069,-0.00077723,-
 0.00490681,0.00615322,-0.00010998,0.00001526,0.00007226,0.00000666,-0.
 00042648,0.00032869,-0.00276103,0.00194258,0.00044395,-0.03014781,-0.1
 1619464,0.25346858,-0.05950363,0.03344822,-0.00459191,-0.01926082,0.01
 411804,0.02032586,-0.02688728,0.01016839,0.00841806,-0.00319695,0.0018
 3611,0.00137783,-0.00133786,0.00086536,-0.00115330,0.00127254,-0.00113
 794,-0.00197168,0.00133338,0.00119919,-0.00017255,-0.00107426,-0.00000
 945,-0.00023721,-0.00124933,-0.00014286,0.00019785,-0.00576530,-0.0058
 7934,0.00364113,0.00022987,0.00000354,0.00045816,-0.00058611,0.0003273
 4,-0.00056825,-0.00055001,0.00222151,-0.00061355,-0.10918111,0.0613565
 7,-0.00575491,0.22575687,0.02830577,-0.00229488,-0.01168332,-0.0125636
 8,0.00435146,-0.00577785,0.02630833,-0.02726805,-0.02363242,0.00695301
 ,-0.00102080,-0.00097343,0.00289087,-0.00192442,0.00077339,-0.00144709
 ,-0.00066922,0.00068504,-0.00130412,0.00055376,0.00027524,0.00031651,0
 .00060857,0.00018033,-0.00112929,0.00197665,-0.00062649,0.00071716,0.0
 0383599,0.00187815,-0.00026454,0.00084170,-0.00027001,0.00099398,-0.00
 094689,0.00077491,0.00007406,-0.00017652,0.00016978,0.06852371,-0.0881
 2308,0.03866497,-0.11837467,0.11025571,-0.02292995,-0.01262247,0.02276
 023,0.14984952,-0.05757588,-0.04546800,-0.10032420,0.02689926,0.090814
 18,-0.01704820,0.00408722,0.00307656,-0.00870068,0.00753810,-0.0008744
 4,0.00005447,-0.00081777,0.00029567,0.00209098,0.00039722,-0.00106634,
 -0.00095199,-0.00067945,-0.00091428,0.00018422,-0.00041547,0.00111103,
 0.00515498,-0.00062946,-0.01209332,-0.00052763,0.00015813,0.00066730,-
 0.00236126,0.00213150,-0.00048767,0.00284509,-0.00111729,0.00097385,0.
 01202019,0.03308464,-0.05528762,-0.01935554,-0.00043830,-0.00350716\\0
 .00001498,-0.00001648,-0.00007762,-0.00004275,0.00002337,0.00003097,0.
 00001910,-0.00001941,0.00000894,0.00000023,0.00000249,-0.00000266,0.00
 000492,-0.00000203,0.00000163,-0.00001089,0.00000512,0.00003234,-0.000
 00189,-0.00000553,-0.00000051,-0.00000159,0.00000104,0.00000037,0.0000
 0242,0.00000137,-0.00000153,-0.00000108,0.00000025,0.00002795,0.000000
 47,-0.00000040,-0.00000099,0.00000787,-0.00000077,-0.00000158,-0.00000
 254,-0.00000079,-0.00000392,-0.00002710,0.00002236,-0.00002342,0.00003
 786,-0.00001058,0.00001003\\\@


 IT IS BY EATING THE LIGHT OF A STAR THAT WE EXIST, 
 IN THE FINAL ANALYSIS, 
 JUST AS IT IS BY PERCEIVING THE LIGHT OF STARS
 THAT WE DEFINE THE WORLD AROUND US.

                                    -- GILBERT GROSVENOR
 Job cpu time:       0 days  0 hours  0 minutes 44.1 seconds.
 Elapsed time:       0 days  0 hours  4 minutes 25.2 seconds.
 File lengths (MBytes):  RWF=    221 Int=      0 D2E=      0 Chk=     11 Scr=      1
 Normal termination of Gaussian 16 at Wed Mar 30 17:00:08 2022.
