 Entering Gaussian System, Link 0=g16
 Initial command:
 /apps/chpc/chem/gaussian16/B01/g16/l1.exe "/mnt/lustre/users/cvanstaden/4105905.sched01/Gau-68491.inp" -scrdir="/mnt/lustre/users/cvanstaden/4105905.sched01/"
 Entering Link 1 = /apps/chpc/chem/gaussian16/B01/g16/l1.exe PID=     68493.
  
 Copyright (c) 1988-2017, Gaussian, Inc.  All Rights Reserved.
  
 This is part of the Gaussian(R) 16 program.  It is based on
 the Gaussian(R) 09 system (copyright 2009, Gaussian, Inc.),
 the Gaussian(R) 03 system (copyright 2003, Gaussian, Inc.),
 the Gaussian(R) 98 system (copyright 1998, Gaussian, Inc.),
 the Gaussian(R) 94 system (copyright 1995, Gaussian, Inc.),
 the Gaussian 92(TM) system (copyright 1992, Gaussian, Inc.),
 the Gaussian 90(TM) system (copyright 1990, Gaussian, Inc.),
 the Gaussian 88(TM) system (copyright 1988, Gaussian, Inc.),
 the Gaussian 86(TM) system (copyright 1986, Carnegie Mellon
 University), and the Gaussian 82(TM) system (copyright 1983,
 Carnegie Mellon University). Gaussian is a federally registered
 trademark of Gaussian, Inc.
  
 This software contains proprietary and confidential information,
 including trade secrets, belonging to Gaussian, Inc.
  
 This software is provided under written license and may be
 used, copied, transmitted, or stored only in accord with that
 written license.
  
 The following legend is applicable only to US Government
 contracts under FAR:
  
                    RESTRICTED RIGHTS LEGEND
  
 Use, reproduction and disclosure by the US Government is
 subject to restrictions as set forth in subparagraphs (a)
 and (c) of the Commercial Computer Software - Restricted
 Rights clause in FAR 52.227-19.
  
 Gaussian, Inc.
 340 Quinnipiac St., Bldg. 40, Wallingford CT 06492
  
  
 ---------------------------------------------------------------
 Warning -- This program may not be used in any manner that
 competes with the business of Gaussian, Inc. or will provide
 assistance to any competitor of Gaussian, Inc.  The licensee
 of this program is prohibited from giving any competitor of
 Gaussian, Inc. access to this program.  By using this program,
 the user acknowledges that Gaussian, Inc. is engaged in the
 business of creating and licensing software in the field of
 computational chemistry and represents and warrants to the
 licensee that it is not a competitor of Gaussian, Inc. and that
 it will not use this program in any manner prohibited above.
 ---------------------------------------------------------------
  

 Cite this work as:
 Gaussian 16, Revision B.01,
 M. J. Frisch, G. W. Trucks, H. B. Schlegel, G. E. Scuseria, 
 M. A. Robb, J. R. Cheeseman, G. Scalmani, V. Barone, 
 G. A. Petersson, H. Nakatsuji, X. Li, M. Caricato, A. V. Marenich, 
 J. Bloino, B. G. Janesko, R. Gomperts, B. Mennucci, H. P. Hratchian, 
 J. V. Ortiz, A. F. Izmaylov, J. L. Sonnenberg, D. Williams-Young, 
 F. Ding, F. Lipparini, F. Egidi, J. Goings, B. Peng, A. Petrone, 
 T. Henderson, D. Ranasinghe, V. G. Zakrzewski, J. Gao, N. Rega, 
 G. Zheng, W. Liang, M. Hada, M. Ehara, K. Toyota, R. Fukuda, 
 J. Hasegawa, M. Ishida, T. Nakajima, Y. Honda, O. Kitao, H. Nakai, 
 T. Vreven, K. Throssell, J. A. Montgomery, Jr., J. E. Peralta, 
 F. Ogliaro, M. J. Bearpark, J. J. Heyd, E. N. Brothers, K. N. Kudin, 
 V. N. Staroverov, T. A. Keith, R. Kobayashi, J. Normand, 
 K. Raghavachari, A. P. Rendell, J. C. Burant, S. S. Iyengar, 
 J. Tomasi, M. Cossi, J. M. Millam, M. Klene, C. Adamo, R. Cammi, 
 J. W. Ochterski, R. L. Martin, K. Morokuma, O. Farkas, 
 J. B. Foresman, and D. J. Fox, Gaussian, Inc., Wallingford CT, 2016.
 
 ******************************************
 Gaussian 16:  ES64L-G16RevB.01 20-Dec-2017
                 2-Apr-2022 
 ******************************************
 %nprocshared=24
 Will use up to   24 processors via shared memory.
 %lindaworkers=cnode0654.cm.cluster,cnode0687.cm.cluster
 %mem=20GB
 %chk=QOOHtertb-OH-Elim-TS5-b3lyp-c.chk
 SetLPE:    new flags="-opt 'Tsnet.Node.lindarsharg: ssh'  -nodelist 'cnode0654.cm.cluster cnode0687.cm.cluster' -env GAUSS_MDEF=2684354560 -env GAUSS_EXEDIR="/apps/chpc/chem/gaussian16/B01/g16/bsd:/apps/chpc/chem/gaussian16/B01/g16""
 Will use up to    2 processors via Linda.
 ---------------------------------------------------
 # opt=(calcfc,ts,noeigentest) freq ub3lyp cc-pvtz+d
 ---------------------------------------------------
 1/5=1,10=4,11=1,18=20,26=3,38=1/1,3;
 2/9=110,12=2,17=6,18=5,40=1/2;
 3/5=16,6=1,7=9,11=2,25=1,30=1,71=2,74=-5,116=2,140=1/1,2,3;
 4//1;
 5/5=2,38=5/2;
 8/6=4,10=90,11=11/1;
 11/6=1,8=1,9=11,15=111,16=1/1,2,10;
 10/6=1,13=1/2;
 6/7=2,8=2,9=2,10=2,28=1/1;
 7/10=1,18=20,25=1/1,2,3,16;
 1/5=1,10=4,11=1,18=20,26=3/3(2);
 2/9=110/2;
 99//99;
 2/9=110/2;
 3/5=16,6=1,7=9,11=2,25=1,30=1,71=1,74=-5,116=2/1,2,3;
 4/5=5,16=3,69=1/1;
 5/5=2,38=5/2;
 7//1,2,3,16;
 1/5=1,11=1,18=20,26=3/3(-5);
 2/9=110/2;
 6/7=2,8=2,9=2,10=2,19=2,28=1/1;
 99/9=1/99;
 -----------------------------
 QOOHtertb-OH-Elim-TS5-b3lyp-c
 -----------------------------
 Symbolic Z-matrix:
 Charge =  0 Multiplicity = 2
 C                     0.53096   0.00165   0.12162 
 C                     0.23157  -0.87081   1.15386 
 H                    -2.1968    0.44558  -1.08609 
 H                     0.6135   -1.87977   1.13095 
 H                    -0.60497  -0.66167   1.80256 
 C                     0.36255   1.49372   0.33191 
 H                     1.24548   1.87676   0.84366 
 H                     0.27495   2.01358  -0.62388 
 H                    -0.51106   1.71757   0.93738 
 C                     1.77026  -0.33689  -0.69502 
 H                     1.78798  -1.39687  -0.94543 
 H                     1.79655   0.24125  -1.61871 
 H                     2.66166  -0.10818  -0.11096 
 O                    -0.5288   -0.64904  -0.53017 
 O                    -1.99159   0.02177  -0.24983 
 

 GradGradGradGradGradGradGradGradGradGradGradGradGradGradGradGradGradGrad
 Berny optimization.
 Initialization pass.
                           ----------------------------
                           !    Initial Parameters    !
                           ! (Angstroms and Degrees)  !
 --------------------------                            --------------------------
 ! Name  Definition              Value          Derivative Info.                !
 --------------------------------------------------------------------------------
 ! R1    R(1,2)                  1.3843         calculate D2E/DX2 analytically  !
 ! R2    R(1,6)                  1.5162         calculate D2E/DX2 analytically  !
 ! R3    R(1,10)                 1.5223         calculate D2E/DX2 analytically  !
 ! R4    R(1,14)                 1.404          calculate D2E/DX2 analytically  !
 ! R5    R(2,4)                  1.0791         calculate D2E/DX2 analytically  !
 ! R6    R(2,5)                  1.079          calculate D2E/DX2 analytically  !
 ! R7    R(3,15)                 0.9597         calculate D2E/DX2 analytically  !
 ! R8    R(6,7)                  1.09           calculate D2E/DX2 analytically  !
 ! R9    R(6,8)                  1.0915         calculate D2E/DX2 analytically  !
 ! R10   R(6,9)                  1.0862         calculate D2E/DX2 analytically  !
 ! R11   R(10,11)                1.0893         calculate D2E/DX2 analytically  !
 ! R12   R(10,12)                1.09           calculate D2E/DX2 analytically  !
 ! R13   R(10,13)                1.09           calculate D2E/DX2 analytically  !
 ! R14   R(14,15)                1.6335         calculate D2E/DX2 analytically  !
 ! A1    A(2,1,6)              119.5226         calculate D2E/DX2 analytically  !
 ! A2    A(2,1,10)             115.8437         calculate D2E/DX2 analytically  !
 ! A3    A(2,1,14)              83.7329         calculate D2E/DX2 analytically  !
 ! A4    A(6,1,10)             112.5619         calculate D2E/DX2 analytically  !
 ! A5    A(6,1,14)             115.8887         calculate D2E/DX2 analytically  !
 ! A6    A(10,1,14)            105.2113         calculate D2E/DX2 analytically  !
 ! A7    A(1,2,4)              119.7963         calculate D2E/DX2 analytically  !
 ! A8    A(1,2,5)              119.5898         calculate D2E/DX2 analytically  !
 ! A9    A(4,2,5)              117.9292         calculate D2E/DX2 analytically  !
 ! A10   A(1,6,7)              108.7213         calculate D2E/DX2 analytically  !
 ! A11   A(1,6,8)              110.8638         calculate D2E/DX2 analytically  !
 ! A12   A(1,6,9)              111.6816         calculate D2E/DX2 analytically  !
 ! A13   A(7,6,8)              107.9833         calculate D2E/DX2 analytically  !
 ! A14   A(7,6,9)              108.5025         calculate D2E/DX2 analytically  !
 ! A15   A(8,6,9)              108.9882         calculate D2E/DX2 analytically  !
 ! A16   A(1,10,11)            110.669          calculate D2E/DX2 analytically  !
 ! A17   A(1,10,12)            110.8715         calculate D2E/DX2 analytically  !
 ! A18   A(1,10,13)            109.3704         calculate D2E/DX2 analytically  !
 ! A19   A(11,10,12)           108.7185         calculate D2E/DX2 analytically  !
 ! A20   A(11,10,13)           108.3043         calculate D2E/DX2 analytically  !
 ! A21   A(12,10,13)           108.8483         calculate D2E/DX2 analytically  !
 ! A22   A(1,14,15)            113.9489         calculate D2E/DX2 analytically  !
 ! A23   A(3,15,14)            102.9024         calculate D2E/DX2 analytically  !
 ! D1    D(6,1,2,4)           -161.8472         calculate D2E/DX2 analytically  !
 ! D2    D(6,1,2,5)             37.0959         calculate D2E/DX2 analytically  !
 ! D3    D(10,1,2,4)           -22.0094         calculate D2E/DX2 analytically  !
 ! D4    D(10,1,2,5)           176.9337         calculate D2E/DX2 analytically  !
 ! D5    D(14,1,2,4)            81.8829         calculate D2E/DX2 analytically  !
 ! D6    D(14,1,2,5)           -79.174          calculate D2E/DX2 analytically  !
 ! D7    D(2,1,6,7)             82.2182         calculate D2E/DX2 analytically  !
 ! D8    D(2,1,6,8)           -159.2251         calculate D2E/DX2 analytically  !
 ! D9    D(2,1,6,9)            -37.4728         calculate D2E/DX2 analytically  !
 ! D10   D(10,1,6,7)           -58.8381         calculate D2E/DX2 analytically  !
 ! D11   D(10,1,6,8)            59.7186         calculate D2E/DX2 analytically  !
 ! D12   D(10,1,6,9)          -178.5291         calculate D2E/DX2 analytically  !
 ! D13   D(14,1,6,7)           179.9995         calculate D2E/DX2 analytically  !
 ! D14   D(14,1,6,8)           -61.4438         calculate D2E/DX2 analytically  !
 ! D15   D(14,1,6,9)            60.3085         calculate D2E/DX2 analytically  !
 ! D16   D(2,1,10,11)           45.3088         calculate D2E/DX2 analytically  !
 ! D17   D(2,1,10,12)          166.0343         calculate D2E/DX2 analytically  !
 ! D18   D(2,1,10,13)          -73.9294         calculate D2E/DX2 analytically  !
 ! D19   D(6,1,10,11)         -172.1165         calculate D2E/DX2 analytically  !
 ! D20   D(6,1,10,12)          -51.391          calculate D2E/DX2 analytically  !
 ! D21   D(6,1,10,13)           68.6453         calculate D2E/DX2 analytically  !
 ! D22   D(14,1,10,11)         -45.0351         calculate D2E/DX2 analytically  !
 ! D23   D(14,1,10,12)          75.6904         calculate D2E/DX2 analytically  !
 ! D24   D(14,1,10,13)        -164.2733         calculate D2E/DX2 analytically  !
 ! D25   D(2,1,14,15)           88.8327         calculate D2E/DX2 analytically  !
 ! D26   D(6,1,14,15)          -31.0172         calculate D2E/DX2 analytically  !
 ! D27   D(10,1,14,15)        -156.0419         calculate D2E/DX2 analytically  !
 ! D28   D(1,14,15,3)          107.6842         calculate D2E/DX2 analytically  !
 --------------------------------------------------------------------------------
 Trust Radius=3.00D-01 FncErr=1.00D-07 GrdErr=1.00D-06 EigMax=2.50D+02 EigMin=1.00D-04
 Number of steps in this run=     75 maximum allowed number of steps=    100.
 Search for a saddle point of order  1.
 GradGradGradGradGradGradGradGradGradGradGradGradGradGradGradGradGradGrad

                          Input orientation:                          
 ---------------------------------------------------------------------
 Center     Atomic      Atomic             Coordinates (Angstroms)
 Number     Number       Type             X           Y           Z
 ---------------------------------------------------------------------
      1          6           0        0.530958    0.001653    0.121618
      2          6           0        0.231574   -0.870805    1.153864
      3          1           0       -2.196802    0.445582   -1.086087
      4          1           0        0.613498   -1.879774    1.130953
      5          1           0       -0.604967   -0.661667    1.802557
      6          6           0        0.362555    1.493716    0.331915
      7          1           0        1.245483    1.876761    0.843660
      8          1           0        0.274946    2.013579   -0.623878
      9          1           0       -0.511059    1.717574    0.937380
     10          6           0        1.770258   -0.336892   -0.695015
     11          1           0        1.787977   -1.396868   -0.945427
     12          1           0        1.796548    0.241247   -1.618706
     13          1           0        2.661658   -0.108183   -0.110961
     14          8           0       -0.528803   -0.649044   -0.530170
     15          8           0       -1.991586    0.021775   -0.249832
 ---------------------------------------------------------------------
                    Distance matrix (angstroms):
                    1          2          3          4          5
     1  C    0.000000
     2  C    1.384322   0.000000
     3  H    3.016007   3.556299   0.000000
     4  H    2.136665   1.079078   4.268528   0.000000
     5  H    2.134450   1.079047   3.479109   1.849187   0.000000
     6  C    1.516191   2.506734   3.107993   3.475898   2.782906
     7  H    2.132585   2.945057   4.197800   3.820144   3.284398
     8  H    2.160822   3.388498   2.963408   4.283952   3.717361
     9  H    2.166945   2.701495   2.924741   3.773991   2.533404
    10  C    1.522290   2.463933   4.062360   2.655699   3.461942
    11  H    2.162069   2.665738   4.392365   2.433917   3.717273
    12  H    2.165145   3.372380   4.033891   3.668646   4.276397
    13  H    2.146169   2.843710   4.986197   2.979236   3.826060
    14  O    1.404039   1.861000   2.071104   2.361965   2.334004
    15  O    2.549825   2.776599   0.959713   3.508406   2.569456
                    6          7          8          9         10
     6  C    0.000000
     7  H    1.090031   0.000000
     8  H    1.091546   1.764746   0.000000
     9  H    1.086233   1.766229   1.772837   0.000000
    10  C    2.527318   2.746483   2.786706   3.477061   0.000000
    11  H    3.466829   3.769851   3.744837   4.304681   1.089298
    12  H    2.725791   3.006963   2.538920   3.746754   1.090019
    13  H    2.836916   2.618560   3.234401   3.807695   1.089964
    14  O    2.475708   3.378637   2.782868   2.784762   2.326004
    15  O    2.836727   3.887842   3.040454   2.545028   3.805036
                   11         12         13         14         15
    11  H    0.000000
    12  H    1.771101   0.000000
    13  H    1.766454   1.773080   0.000000
    14  O    2.469645   2.717496   3.263021   0.000000
    15  O    4.096522   4.033850   4.657129   1.633500   0.000000
 Stoichiometry    C4H9O2(2)
 Framework group  C1[X(C4H9O2)]
 Deg. of freedom    39
 Full point group                 C1      NOp   1
 Largest Abelian subgroup         C1      NOp   1
 Largest concise Abelian subgroup C1      NOp   1
                         Standard orientation:                         
 ---------------------------------------------------------------------
 Center     Atomic      Atomic             Coordinates (Angstroms)
 Number     Number       Type             X           Y           Z
 ---------------------------------------------------------------------
      1          6           0        0.481097    0.038866    0.139076
      2          6           0        0.189710   -0.834463    1.172873
      3          1           0       -2.236374    0.389311   -1.121414
      4          1           0        0.602737   -1.831337    1.165176
      5          1           0       -0.664608   -0.646223    1.804576
      6          6           0        0.263209    1.526603    0.334015
      7          1           0        1.124444    1.940567    0.858490
      8          1           0        0.177254    2.036182   -0.627450
      9          1           0       -0.627816    1.728083    0.921706
     10          6           0        1.744964   -0.267599   -0.652180
     11          1           0        1.799756   -1.328414   -0.893506
     12          1           0        1.770461    0.303981   -1.579966
     13          1           0        2.618070   -0.007078   -0.053987
     14          8           0       -0.546085   -0.649134   -0.526415
     15          8           0       -2.033640   -0.021555   -0.278125
 ---------------------------------------------------------------------
 Rotational constants (GHZ):           5.0202485           2.9340914           2.6193774
 Standard basis: CC-pVTZ+d (5D, 7F)
 There are   345 symmetry adapted cartesian basis functions of A   symmetry.
 There are   306 symmetry adapted basis functions of A   symmetry.
   306 basis functions,   465 primitive gaussians,   345 cartesian basis functions
    25 alpha electrons       24 beta electrons
       nuclear repulsion energy       261.4566348929 Hartrees.
 NAtoms=   15 NActive=   15 NUniq=   15 SFac= 1.00D+00 NAtFMM=   60 NAOKFM=F Big=F
 Integral buffers will be    131072 words long.
 Raffenetti 2 integral format.
 Two-electron integral symmetry is turned on.
 One-electron integrals computed using PRISM.
 NBasis=   306 RedAO= T EigKep=  3.61D-04  NBF=   306
 NBsUse=   306 1.00D-06 EigRej= -1.00D+00 NBFU=   306
 ExpMin= 1.03D-01 ExpMax= 1.53D+04 ExpMxC= 5.22D+02 IAcc=3 IRadAn=         5 AccDes= 0.00D+00
 Harris functional with IExCor=  402 and IRadAn=       5 diagonalized for initial guess.
 HarFok:  IExCor=  402 AccDes= 0.00D+00 IRadAn=         5 IDoV= 1 UseB2=F ITyADJ=14
 ICtDFT=  3500011 ScaDFX=  1.000000  1.000000  1.000000  1.000000
 FoFCou: FMM=F IPFlag=           0 FMFlag=      100000 FMFlg1=           0
         NFxFlg=           0 DoJE=T BraDBF=F KetDBF=T FulRan=T
         wScrn=  0.000000 ICntrl=       500 IOpCl=  0 I1Cent=   200000004 NGrid=           0
         NMat0=    1 NMatS0=      1 NMatT0=    0 NMatD0=    1 NMtDS0=    0 NMtDT0=    0
 Petite list used in FoFCou.
 Initial guess <Sx>= 0.0000 <Sy>= 0.0000 <Sz>= 0.5000 <S**2>= 0.7500 S= 0.5000
 Requested convergence on RMS density matrix=1.00D-08 within 128 cycles.
 Requested convergence on MAX density matrix=1.00D-06.
 Requested convergence on             energy=1.00D-06.
 No special actions if energy rises.
 Integral accuracy reduced to 1.0D-05 until final iterations.
 Initial convergence to 1.0D-05 achieved.  Increase integral accuracy.
 SCF Done:  E(UB3LYP) =  -308.198725999     A.U. after   21 cycles
            NFock= 21  Conv=0.63D-08     -V/T= 2.0049
 <Sx>= 0.0000 <Sy>= 0.0000 <Sz>= 0.5000 <S**2>= 0.7737 S= 0.5118
 <L.S>= 0.000000000000E+00
 Annihilation of the first spin contaminant:
 S**2 before annihilation     0.7737,   after     0.7501
 DoSCS=F DFT=T ScalE2(SS,OS)=  1.000000  1.000000
 Range of M.O.s used for correlation:     1   306
 NBasis=   306 NAE=    25 NBE=    24 NFC=     0 NFV=     0
 NROrb=    306 NOA=    25 NOB=    24 NVA=   281 NVB=   282

 **** Warning!!: The largest alpha MO coefficient is  0.11328066D+02


 **** Warning!!: The smallest alpha delta epsilon is  0.88490921D-01

 Symmetrizing basis deriv contribution to polar:
 IMax=3 JMax=2 DiffMx= 0.00D+00
 G2DrvN: will do    16 centers at a time, making    1 passes.
 Calling FoFCou, ICntrl=  3107 FMM=F I1Cent=   0 AccDes= 0.00D+00.
 End of G2Drv F.D. properties file   721 does not exist.
 End of G2Drv F.D. properties file   722 does not exist.
 End of G2Drv F.D. properties file   788 does not exist.
          IDoAtm=111111111111111
          Differentiating once with respect to nuclear coordinates.
 Keep R1 and R2 ints in memory in canonical form, NReq=2234005247.
          There are    48 degrees of freedom in the 1st order CPHF.  IDoFFX=6 NUNeed=     0.
     42 vectors produced by pass  0 Test12= 2.87D-14 2.08D-09 XBig12= 3.79D-01 3.59D-01.
 AX will form    42 AO Fock derivatives at one time.
     42 vectors produced by pass  1 Test12= 2.87D-14 2.08D-09 XBig12= 1.48D-01 8.74D-02.
     42 vectors produced by pass  2 Test12= 2.87D-14 2.08D-09 XBig12= 2.98D-03 1.19D-02.
     42 vectors produced by pass  3 Test12= 2.87D-14 2.08D-09 XBig12= 2.21D-05 8.04D-04.
     42 vectors produced by pass  4 Test12= 2.87D-14 2.08D-09 XBig12= 1.69D-07 4.01D-05.
     42 vectors produced by pass  5 Test12= 2.87D-14 2.08D-09 XBig12= 1.18D-09 2.96D-06.
     30 vectors produced by pass  6 Test12= 2.87D-14 2.08D-09 XBig12= 6.29D-12 1.81D-07.
      9 vectors produced by pass  7 Test12= 2.87D-14 2.08D-09 XBig12= 2.57D-14 1.62D-08.
 InvSVY:  IOpt=1 It=  1 EMax= 2.89D-15
 Solved reduced A of dimension   291 with    42 vectors.
 End of Minotr F.D. properties file   721 does not exist.
 End of Minotr F.D. properties file   722 does not exist.
 End of Minotr F.D. properties file   788 does not exist.

 **********************************************************************

            Population analysis using the SCF Density.

 **********************************************************************

 Orbital symmetries:
 Alpha Orbitals:
       Occupied  (A) (A) (A) (A) (A) (A) (A) (A) (A) (A) (A) (A)
                 (A) (A) (A) (A) (A) (A) (A) (A) (A) (A) (A) (A)
                 (A)
       Virtual   (A) (A) (A) (A) (A) (A) (A) (A) (A) (A) (A) (A)
                 (A) (A) (A) (A) (A) (A) (A) (A) (A) (A) (A) (A)
                 (A) (A) (A) (A) (A) (A) (A) (A) (A) (A) (A) (A)
                 (A) (A) (A) (A) (A) (A) (A) (A) (A) (A) (A) (A)
                 (A) (A) (A) (A) (A) (A) (A) (A) (A) (A) (A) (A)
                 (A) (A) (A) (A) (A) (A) (A) (A) (A) (A) (A) (A)
                 (A) (A) (A) (A) (A) (A) (A) (A) (A) (A) (A) (A)
                 (A) (A) (A) (A) (A) (A) (A) (A) (A) (A) (A) (A)
                 (A) (A) (A) (A) (A) (A) (A) (A) (A) (A) (A) (A)
                 (A) (A) (A) (A) (A) (A) (A) (A) (A) (A) (A) (A)
                 (A) (A) (A) (A) (A) (A) (A) (A) (A) (A) (A) (A)
                 (A) (A) (A) (A) (A) (A) (A) (A) (A) (A) (A) (A)
                 (A) (A) (A) (A) (A) (A) (A) (A) (A) (A) (A) (A)
                 (A) (A) (A) (A) (A) (A) (A) (A) (A) (A) (A) (A)
                 (A) (A) (A) (A) (A) (A) (A) (A) (A) (A) (A) (A)
                 (A) (A) (A) (A) (A) (A) (A) (A) (A) (A) (A) (A)
                 (A) (A) (A) (A) (A) (A) (A) (A) (A) (A) (A) (A)
                 (A) (A) (A) (A) (A) (A) (A) (A) (A) (A) (A) (A)
                 (A) (A) (A) (A) (A) (A) (A) (A) (A) (A) (A) (A)
                 (A) (A) (A) (A) (A) (A) (A) (A) (A) (A) (A) (A)
                 (A) (A) (A) (A) (A) (A) (A) (A) (A) (A) (A) (A)
                 (A) (A) (A) (A) (A) (A) (A) (A) (A) (A) (A) (A)
                 (A) (A) (A) (A) (A) (A) (A) (A) (A) (A) (A) (A)
                 (A) (A) (A) (A) (A)
 Beta  Orbitals:
       Occupied  (A) (A) (A) (A) (A) (A) (A) (A) (A) (A) (A) (A)
                 (A) (A) (A) (A) (A) (A) (A) (A) (A) (A) (A) (A)
       Virtual   (A) (A) (A) (A) (A) (A) (A) (A) (A) (A) (A) (A)
                 (A) (A) (A) (A) (A) (A) (A) (A) (A) (A) (A) (A)
                 (A) (A) (A) (A) (A) (A) (A) (A) (A) (A) (A) (A)
                 (A) (A) (A) (A) (A) (A) (A) (A) (A) (A) (A) (A)
                 (A) (A) (A) (A) (A) (A) (A) (A) (A) (A) (A) (A)
                 (A) (A) (A) (A) (A) (A) (A) (A) (A) (A) (A) (A)
                 (A) (A) (A) (A) (A) (A) (A) (A) (A) (A) (A) (A)
                 (A) (A) (A) (A) (A) (A) (A) (A) (A) (A) (A) (A)
                 (A) (A) (A) (A) (A) (A) (A) (A) (A) (A) (A) (A)
                 (A) (A) (A) (A) (A) (A) (A) (A) (A) (A) (A) (A)
                 (A) (A) (A) (A) (A) (A) (A) (A) (A) (A) (A) (A)
                 (A) (A) (A) (A) (A) (A) (A) (A) (A) (A) (A) (A)
                 (A) (A) (A) (A) (A) (A) (A) (A) (A) (A) (A) (A)
                 (A) (A) (A) (A) (A) (A) (A) (A) (A) (A) (A) (A)
                 (A) (A) (A) (A) (A) (A) (A) (A) (A) (A) (A) (A)
                 (A) (A) (A) (A) (A) (A) (A) (A) (A) (A) (A) (A)
                 (A) (A) (A) (A) (A) (A) (A) (A) (A) (A) (A) (A)
                 (A) (A) (A) (A) (A) (A) (A) (A) (A) (A) (A) (A)
                 (A) (A) (A) (A) (A) (A) (A) (A) (A) (A) (A) (A)
                 (A) (A) (A) (A) (A) (A) (A) (A) (A) (A) (A) (A)
                 (A) (A) (A) (A) (A) (A) (A) (A) (A) (A) (A) (A)
                 (A) (A) (A) (A) (A) (A) (A) (A) (A) (A) (A) (A)
                 (A) (A) (A) (A) (A) (A) (A) (A) (A) (A) (A) (A)
                 (A) (A) (A) (A) (A) (A)
 The electronic state is 2-A.
 Alpha  occ. eigenvalues --  -19.18738 -19.14233 -10.23736 -10.19333 -10.17528
 Alpha  occ. eigenvalues --  -10.17103  -1.08207  -0.95107  -0.78687  -0.70907
 Alpha  occ. eigenvalues --   -0.70724  -0.56827  -0.51244  -0.47953  -0.47555
 Alpha  occ. eigenvalues --   -0.43950  -0.41673  -0.40945  -0.38775  -0.38474
 Alpha  occ. eigenvalues --   -0.37503  -0.34492  -0.31784  -0.28679  -0.16258
 Alpha virt. eigenvalues --   -0.07409   0.03088   0.06554   0.07632   0.08598
 Alpha virt. eigenvalues --    0.09074   0.09700   0.10739   0.13822   0.14393
 Alpha virt. eigenvalues --    0.15248   0.17820   0.20389   0.20787   0.24187
 Alpha virt. eigenvalues --    0.26376   0.27576   0.30235   0.33047   0.35170
 Alpha virt. eigenvalues --    0.35860   0.40007   0.40231   0.41016   0.42854
 Alpha virt. eigenvalues --    0.44353   0.44985   0.46081   0.46262   0.46688
 Alpha virt. eigenvalues --    0.46924   0.47385   0.49244   0.49713   0.50924
 Alpha virt. eigenvalues --    0.51861   0.57593   0.60159   0.63556   0.64599
 Alpha virt. eigenvalues --    0.66410   0.68289   0.68891   0.73001   0.73473
 Alpha virt. eigenvalues --    0.74638   0.76862   0.79005   0.81161   0.85165
 Alpha virt. eigenvalues --    0.86586   0.88348   0.90228   0.91324   0.93549
 Alpha virt. eigenvalues --    0.94799   0.95441   0.96273   0.97164   1.00307
 Alpha virt. eigenvalues --    1.05335   1.06156   1.07575   1.10485   1.11482
 Alpha virt. eigenvalues --    1.13713   1.16440   1.17243   1.18622   1.20326
 Alpha virt. eigenvalues --    1.22782   1.24693   1.24836   1.27627   1.28250
 Alpha virt. eigenvalues --    1.29926   1.31411   1.32351   1.33096   1.37588
 Alpha virt. eigenvalues --    1.39267   1.39941   1.41904   1.43466   1.46410
 Alpha virt. eigenvalues --    1.49334   1.50367   1.52596   1.53059   1.58025
 Alpha virt. eigenvalues --    1.60647   1.61728   1.65264   1.68308   1.70175
 Alpha virt. eigenvalues --    1.71410   1.79176   1.86289   1.90660   1.95573
 Alpha virt. eigenvalues --    2.01480   2.06271   2.11718   2.18464   2.19979
 Alpha virt. eigenvalues --    2.26385   2.32890   2.35080   2.38455   2.39623
 Alpha virt. eigenvalues --    2.41217   2.44615   2.46524   2.48575   2.51980
 Alpha virt. eigenvalues --    2.54806   2.57581   2.59425   2.61065   2.63498
 Alpha virt. eigenvalues --    2.64967   2.66754   2.73084   2.75058   2.77616
 Alpha virt. eigenvalues --    2.79680   2.80979   2.82159   2.84359   2.86368
 Alpha virt. eigenvalues --    2.88815   2.89562   2.92311   2.94160   2.95449
 Alpha virt. eigenvalues --    2.98611   2.99349   3.00366   3.03613   3.06377
 Alpha virt. eigenvalues --    3.08263   3.08766   3.10822   3.12071   3.13195
 Alpha virt. eigenvalues --    3.14702   3.16841   3.18549   3.19292   3.21326
 Alpha virt. eigenvalues --    3.24346   3.28763   3.29149   3.30630   3.32603
 Alpha virt. eigenvalues --    3.34077   3.36117   3.39630   3.40574   3.42687
 Alpha virt. eigenvalues --    3.43530   3.43949   3.46074   3.47292   3.49068
 Alpha virt. eigenvalues --    3.49375   3.50501   3.54656   3.58087   3.61243
 Alpha virt. eigenvalues --    3.63389   3.65589   3.66452   3.68653   3.70859
 Alpha virt. eigenvalues --    3.73320   3.74487   3.77772   3.77994   3.80970
 Alpha virt. eigenvalues --    3.82953   3.84151   3.87799   3.88864   3.93156
 Alpha virt. eigenvalues --    3.94170   3.96277   3.96397   3.97898   3.99149
 Alpha virt. eigenvalues --    3.99189   4.01781   4.04757   4.08017   4.11231
 Alpha virt. eigenvalues --    4.11444   4.11903   4.13051   4.15365   4.16949
 Alpha virt. eigenvalues --    4.17955   4.19780   4.24890   4.25423   4.28333
 Alpha virt. eigenvalues --    4.29147   4.34442   4.36049   4.38766   4.41370
 Alpha virt. eigenvalues --    4.42454   4.45505   4.46572   4.48525   4.49047
 Alpha virt. eigenvalues --    4.53635   4.69273   4.72267   4.77500   4.80814
 Alpha virt. eigenvalues --    4.82267   4.83729   4.87558   4.89504   4.91001
 Alpha virt. eigenvalues --    4.92589   4.99707   5.01032   5.02117   5.06462
 Alpha virt. eigenvalues --    5.10252   5.12600   5.14814   5.15552   5.17659
 Alpha virt. eigenvalues --    5.18691   5.22621   5.23192   5.25943   5.26332
 Alpha virt. eigenvalues --    5.30384   5.33503   5.34818   5.37175   5.38692
 Alpha virt. eigenvalues --    5.41244   5.43927   5.44578   5.49131   5.56150
 Alpha virt. eigenvalues --    5.60225   5.68284   5.74395   5.81723   5.85878
 Alpha virt. eigenvalues --    5.88012   5.90642   5.93488   5.95889   6.01562
 Alpha virt. eigenvalues --    6.04572   6.11974   6.37159   6.42569   6.47553
 Alpha virt. eigenvalues --    6.60189   6.64681   6.70844   6.77036   6.78983
 Alpha virt. eigenvalues --    6.93480   7.02681   7.12859   7.22749   7.64224
 Alpha virt. eigenvalues --   10.12930  11.05962  11.39378  13.38797  13.83927
 Alpha virt. eigenvalues --   13.89106
  Beta  occ. eigenvalues --  -19.17777 -19.13496 -10.23766 -10.18466 -10.17510
  Beta  occ. eigenvalues --  -10.17092  -1.06321  -0.93586  -0.78029  -0.70681
  Beta  occ. eigenvalues --   -0.69413  -0.55916  -0.50129  -0.47485  -0.47031
  Beta  occ. eigenvalues --   -0.43201  -0.41377  -0.40470  -0.38503  -0.37921
  Beta  occ. eigenvalues --   -0.36994  -0.33886  -0.29155  -0.27929
  Beta virt. eigenvalues --   -0.04515  -0.03738   0.03185   0.06848   0.07839
  Beta virt. eigenvalues --    0.08709   0.09200   0.09812   0.10920   0.13864
  Beta virt. eigenvalues --    0.14448   0.15357   0.18097   0.20549   0.20956
  Beta virt. eigenvalues --    0.24361   0.26610   0.28868   0.30762   0.33355
  Beta virt. eigenvalues --    0.35287   0.36622   0.40417   0.41047   0.41374
  Beta virt. eigenvalues --    0.43272   0.44685   0.45262   0.46244   0.46416
  Beta virt. eigenvalues --    0.46933   0.47179   0.47572   0.49586   0.49912
  Beta virt. eigenvalues --    0.51230   0.52293   0.57973   0.60450   0.63879
  Beta virt. eigenvalues --    0.64898   0.67046   0.68850   0.69181   0.73324
  Beta virt. eigenvalues --    0.73869   0.74983   0.77166   0.79503   0.81415
  Beta virt. eigenvalues --    0.85317   0.86918   0.88543   0.90504   0.91564
  Beta virt. eigenvalues --    0.93666   0.95251   0.95640   0.96558   0.97670
  Beta virt. eigenvalues --    1.00711   1.05655   1.06342   1.07784   1.10821
  Beta virt. eigenvalues --    1.11948   1.13918   1.16847   1.17594   1.19005
  Beta virt. eigenvalues --    1.20609   1.22901   1.24970   1.25085   1.27832
  Beta virt. eigenvalues --    1.28768   1.30176   1.31695   1.32535   1.33286
  Beta virt. eigenvalues --    1.37902   1.39629   1.40265   1.42171   1.44045
  Beta virt. eigenvalues --    1.46841   1.49570   1.50523   1.52770   1.53277
  Beta virt. eigenvalues --    1.58661   1.61248   1.62559   1.65778   1.68688
  Beta virt. eigenvalues --    1.70523   1.72125   1.79968   1.86730   1.91620
  Beta virt. eigenvalues --    1.95970   2.02202   2.06507   2.12504   2.19039
  Beta virt. eigenvalues --    2.20251   2.27204   2.34328   2.35450   2.38674
  Beta virt. eigenvalues --    2.39770   2.41837   2.45305   2.47016   2.48838
  Beta virt. eigenvalues --    2.52485   2.54993   2.58158   2.59745   2.61909
  Beta virt. eigenvalues --    2.63736   2.65301   2.67794   2.73821   2.75328
  Beta virt. eigenvalues --    2.77878   2.79729   2.81172   2.82340   2.84783
  Beta virt. eigenvalues --    2.86926   2.89506   2.90707   2.93026   2.94505
  Beta virt. eigenvalues --    2.95857   2.98922   2.99716   3.01292   3.03929
  Beta virt. eigenvalues --    3.07019   3.08729   3.09388   3.11198   3.12564
  Beta virt. eigenvalues --    3.13510   3.15330   3.17059   3.19293   3.19996
  Beta virt. eigenvalues --    3.22301   3.24862   3.28954   3.29374   3.30997
  Beta virt. eigenvalues --    3.32833   3.34587   3.36699   3.39820   3.40813
  Beta virt. eigenvalues --    3.42790   3.43742   3.44164   3.46385   3.47512
  Beta virt. eigenvalues --    3.49262   3.49911   3.50640   3.54984   3.58342
  Beta virt. eigenvalues --    3.61586   3.63699   3.65829   3.66716   3.68749
  Beta virt. eigenvalues --    3.71149   3.73634   3.74695   3.77993   3.78296
  Beta virt. eigenvalues --    3.81114   3.83266   3.84581   3.87956   3.89076
  Beta virt. eigenvalues --    3.93411   3.94372   3.96513   3.96570   3.98201
  Beta virt. eigenvalues --    3.99313   3.99414   4.02011   4.04910   4.08149
  Beta virt. eigenvalues --    4.11565   4.11663   4.12163   4.13218   4.15505
  Beta virt. eigenvalues --    4.17126   4.18068   4.20023   4.25060   4.25765
  Beta virt. eigenvalues --    4.28874   4.29491   4.34669   4.36186   4.39232
  Beta virt. eigenvalues --    4.41837   4.42844   4.45928   4.47287   4.48903
  Beta virt. eigenvalues --    4.49525   4.54061   4.69674   4.72412   4.78016
  Beta virt. eigenvalues --    4.81030   4.82463   4.84051   4.87865   4.89731
  Beta virt. eigenvalues --    4.91737   4.93293   5.00441   5.01293   5.03004
  Beta virt. eigenvalues --    5.07261   5.10473   5.12747   5.15264   5.16091
  Beta virt. eigenvalues --    5.18152   5.18987   5.22946   5.23388   5.26269
  Beta virt. eigenvalues --    5.27179   5.30747   5.34051   5.35110   5.37309
  Beta virt. eigenvalues --    5.38988   5.41928   5.44255   5.45579   5.49754
  Beta virt. eigenvalues --    5.57148   5.61029   5.69069   5.74595   5.82325
  Beta virt. eigenvalues --    5.86190   5.88624   5.91214   5.94359   5.96636
  Beta virt. eigenvalues --    6.01894   6.05093   6.12816   6.39172   6.43017
  Beta virt. eigenvalues --    6.49612   6.61766   6.66306   6.71587   6.79111
  Beta virt. eigenvalues --    6.80668   6.94772   7.03058   7.13977   7.24164
  Beta virt. eigenvalues --    7.65937  10.13379  11.06724  11.40344  13.39232
  Beta virt. eigenvalues --   13.84498  13.89175
          Condensed to atoms (all electrons):
               1          2          3          4          5          6
     1  C    4.698826   0.393570  -0.005880  -0.043709  -0.035609   0.334214
     2  C    0.393570   5.279547  -0.002309   0.413564   0.414815  -0.050349
     3  H   -0.005880  -0.002309   0.486722  -0.000031  -0.001024   0.000508
     4  H   -0.043709   0.413564  -0.000031   0.534213  -0.028758   0.006431
     5  H   -0.035609   0.414815  -0.001024  -0.028758   0.512569  -0.007426
     6  C    0.334214  -0.050349   0.000508   0.006431  -0.007426   4.964685
     7  H   -0.040397  -0.001152  -0.000179  -0.000048   0.000257   0.391183
     8  H   -0.030796   0.008729   0.001505  -0.000471   0.000045   0.390038
     9  H   -0.026061  -0.006184  -0.000852  -0.000191   0.003518   0.391335
    10  C    0.349935  -0.060798  -0.000768  -0.007593   0.006366  -0.067651
    11  H   -0.021250  -0.006646   0.000007   0.003904  -0.000249   0.009093
    12  H   -0.031544   0.008275  -0.000011   0.000025  -0.000381  -0.006707
    13  H   -0.040128   0.001275  -0.000016   0.000110   0.000207   0.000044
    14  O    0.186341  -0.130321   0.004213  -0.000385  -0.009824  -0.060443
    15  O   -0.018904   0.029586   0.306386  -0.000218   0.010195   0.018821
               7          8          9         10         11         12
     1  C   -0.040397  -0.030796  -0.026061   0.349935  -0.021250  -0.031544
     2  C   -0.001152   0.008729  -0.006184  -0.060798  -0.006646   0.008275
     3  H   -0.000179   0.001505  -0.000852  -0.000768   0.000007  -0.000011
     4  H   -0.000048  -0.000471  -0.000191  -0.007593   0.003904   0.000025
     5  H    0.000257   0.000045   0.003518   0.006366  -0.000249  -0.000381
     6  C    0.391183   0.390038   0.391335  -0.067651   0.009093  -0.006707
     7  H    0.605724  -0.028751  -0.024177  -0.003917  -0.000179   0.000077
     8  H   -0.028751   0.597865  -0.026710  -0.006234  -0.000271   0.004151
     9  H   -0.024177  -0.026710   0.557174   0.006951  -0.000484  -0.000091
    10  C   -0.003917  -0.006234   0.006951   4.908641   0.393201   0.400461
    11  H   -0.000179  -0.000271  -0.000484   0.393201   0.579595  -0.027274
    12  H    0.000077   0.004151  -0.000091   0.400461  -0.027274   0.585600
    13  H    0.001025   0.000406  -0.000240   0.384025  -0.027412  -0.026887
    14  O    0.003843   0.001465   0.002196  -0.020675   0.000260   0.001030
    15  O    0.002130  -0.000016   0.011899   0.000987   0.000088  -0.000060
              13         14         15
     1  C   -0.040128   0.186341  -0.018904
     2  C    0.001275  -0.130321   0.029586
     3  H   -0.000016   0.004213   0.306386
     4  H    0.000110  -0.000385  -0.000218
     5  H    0.000207  -0.009824   0.010195
     6  C    0.000044  -0.060443   0.018821
     7  H    0.001025   0.003843   0.002130
     8  H    0.000406   0.001465  -0.000016
     9  H   -0.000240   0.002196   0.011899
    10  C    0.384025  -0.020675   0.000987
    11  H   -0.027412   0.000260   0.000088
    12  H   -0.026887   0.001030  -0.000060
    13  H    0.610875   0.003389  -0.000120
    14  O    0.003389   8.228855  -0.045671
    15  O   -0.000120  -0.045671   8.013809
          Atomic-Atomic Spin Densities.
               1          2          3          4          5          6
     1  C    0.003879   0.045165  -0.001554   0.002030   0.000721   0.003163
     2  C    0.045165   0.714306  -0.004136   0.004239   0.005392   0.002213
     3  H   -0.001554  -0.004136   0.009408  -0.000003  -0.000051  -0.001396
     4  H    0.002030   0.004239  -0.000003  -0.026984   0.002798   0.000048
     5  H    0.000721   0.005392  -0.000051   0.002798  -0.022219   0.000566
     6  C    0.003163   0.002213  -0.001396   0.000048   0.000566   0.014605
     7  H   -0.000185   0.000473   0.000007  -0.000022  -0.000001   0.001393
     8  H    0.000948  -0.000468   0.000130   0.000011  -0.000048  -0.001268
     9  H    0.000079  -0.000925   0.001158  -0.000001  -0.000282  -0.007505
    10  C   -0.004955  -0.009469   0.000307  -0.000522  -0.000122  -0.002112
    11  H    0.000800   0.001726  -0.000063   0.000371   0.000019   0.000331
    12  H    0.000713  -0.000305  -0.000015  -0.000040   0.000002   0.000078
    13  H   -0.001594  -0.002864  -0.000035   0.000058  -0.000070   0.001599
    14  O   -0.067335  -0.194161   0.012844  -0.001898  -0.001844  -0.017222
    15  O    0.016165   0.044343  -0.008254  -0.000014   0.000486   0.005266
               7          8          9         10         11         12
     1  C   -0.000185   0.000948   0.000079  -0.004955   0.000800   0.000713
     2  C    0.000473  -0.000468  -0.000925  -0.009469   0.001726  -0.000305
     3  H    0.000007   0.000130   0.001158   0.000307  -0.000063  -0.000015
     4  H   -0.000022   0.000011  -0.000001  -0.000522   0.000371  -0.000040
     5  H   -0.000001  -0.000048  -0.000282  -0.000122   0.000019   0.000002
     6  C    0.001393  -0.001268  -0.007505  -0.002112   0.000331   0.000078
     7  H   -0.001313   0.000045  -0.000292   0.000060   0.000011   0.000022
     8  H    0.000045  -0.000089   0.000901   0.000076  -0.000013  -0.000221
     9  H   -0.000292   0.000901   0.006456   0.000473  -0.000073  -0.000004
    10  C    0.000060   0.000076   0.000473   0.016333  -0.001990   0.001153
    11  H    0.000011  -0.000013  -0.000073  -0.001990  -0.000715   0.000156
    12  H    0.000022  -0.000221  -0.000004   0.001153   0.000156  -0.000998
    13  H    0.000065  -0.000145  -0.000261  -0.002921   0.001685  -0.000872
    14  O    0.000033   0.000044   0.006174   0.007097  -0.001303  -0.000707
    15  O   -0.000087  -0.000081  -0.003512  -0.001665   0.000337   0.000145
              13         14         15
     1  C   -0.001594  -0.067335   0.016165
     2  C   -0.002864  -0.194161   0.044343
     3  H   -0.000035   0.012844  -0.008254
     4  H    0.000058  -0.001898  -0.000014
     5  H   -0.000070  -0.001844   0.000486
     6  C    0.001599  -0.017222   0.005266
     7  H    0.000065   0.000033  -0.000087
     8  H   -0.000145   0.000044  -0.000081
     9  H   -0.000261   0.006174  -0.003512
    10  C   -0.002921   0.007097  -0.001665
    11  H    0.001685  -0.001303   0.000337
    12  H   -0.000872  -0.000707   0.000145
    13  H    0.011362  -0.000687   0.000146
    14  O   -0.000687   0.605313  -0.167891
    15  O    0.000146  -0.167891   0.349056
 Mulliken charges and spin densities:
               1          2
     1  C    0.331391  -0.001958
     2  C   -0.291601   0.605528
     3  H    0.211729   0.008348
     4  H    0.123155  -0.019929
     5  H    0.135299  -0.014654
     6  C   -0.313778  -0.000242
     7  H    0.094561   0.000209
     8  H    0.089043  -0.000179
     9  H    0.111916   0.002386
    10  C   -0.282930   0.001744
    11  H    0.097616   0.001278
    12  H    0.093336  -0.000893
    13  H    0.093446   0.005466
    14  O   -0.164273   0.178457
    15  O   -0.328911   0.234439
 Sum of Mulliken charges =  -0.00000   1.00000
 Mulliken charges and spin densities with hydrogens summed into heavy atoms:
               1          2
     1  C    0.331391  -0.001958
     2  C   -0.033147   0.570946
     6  C   -0.018258   0.002174
    10  C    0.001468   0.007595
    14  O   -0.164273   0.178457
    15  O   -0.117181   0.242787
 APT charges:
               1
     1  C    0.144482
     2  C   -0.796549
     3  H    0.524352
     4  H    0.419475
     5  H    0.350065
     6  C   -0.994253
     7  H    0.388394
     8  H    0.308750
     9  H    0.305523
    10  C   -1.021948
    11  H    0.342954
    12  H    0.332325
    13  H    0.375710
    14  O    0.028087
    15  O   -0.707368
 Sum of APT charges =  -0.00000
 APT charges with hydrogens summed into heavy atoms:
               1
     1  C    0.144482
     2  C   -0.027009
     6  C    0.008414
    10  C    0.029042
    14  O    0.028087
    15  O   -0.183017
 Electronic spatial extent (au):  <R**2>=            585.9992
 Charge=             -0.0000 electrons
 Dipole moment (field-independent basis, Debye):
    X=              1.6047    Y=              1.1119    Z=             -0.3865  Tot=              1.9901
 Quadrupole moment (field-independent basis, Debye-Ang):
   XX=            -38.9084   YY=            -37.2841   ZZ=            -36.1165
   XY=             -2.3552   XZ=              1.4018   YZ=             -1.8480
 Traceless Quadrupole moment (field-independent basis, Debye-Ang):
   XX=             -1.4720   YY=              0.1522   ZZ=              1.3198
   XY=             -2.3552   XZ=              1.4018   YZ=             -1.8480
 Octapole moment (field-independent basis, Debye-Ang**2):
  XXX=             -8.2660  YYY=             -4.2089  ZZZ=             -7.7166  XYY=             -1.8339
  XXY=              3.8217  XXZ=             -7.3981  XZZ=             -9.9155  YZZ=              1.1045
  YYZ=             -0.4302  XYZ=              2.8304
 Hexadecapole moment (field-independent basis, Debye-Ang**3):
 XXXX=           -380.6021 YYYY=           -223.2913 ZZZZ=           -159.7893 XXXY=             -8.4238
 XXXZ=             22.1530 YYYX=             -3.6934 YYYZ=             -1.5274 ZZZX=              4.2558
 ZZZY=             -1.8803 XXYY=           -100.2830 XXZZ=            -79.3060 YYZZ=            -62.1819
 XXYZ=             -2.6719 YYXZ=              2.1459 ZZXY=             -0.6806
 N-N= 2.614566348929D+02 E-N=-1.243982443197D+03  KE= 3.066952572142D+02
  Exact polarizability:   0.000   0.000   0.000   0.000   0.000   0.000
 Approx polarizability: 130.147 -18.735  81.157  33.003 -14.067 112.667
                          Isotropic Fermi Contact Couplings
        Atom                 a.u.       MegaHertz       Gauss      10(-4) cm-1
     1  C(13)              0.00223       2.51075       0.89590       0.83750
     2  C(13)              0.02338      26.28858       9.38042       8.76893
     3  H(1)              -0.00166      -7.41404      -2.64552      -2.47306
     4  H(1)              -0.00809     -36.16848     -12.90581     -12.06451
     5  H(1)              -0.00575     -25.68347      -9.16450      -8.56708
     6  C(13)              0.00526       5.91531       2.11073       1.97313
     7  H(1)              -0.00003      -0.11743      -0.04190      -0.03917
     8  H(1)               0.00007       0.33334       0.11894       0.11119
     9  H(1)               0.00001       0.05226       0.01865       0.01743
    10  C(13)              0.00655       7.36420       2.62773       2.45643
    11  H(1)               0.00081       3.60039       1.28471       1.20096
    12  H(1)              -0.00016      -0.70999      -0.25334      -0.23683
    13  H(1)               0.00306      13.68890       4.88454       4.56613
    14  O(17)              0.61784    -374.53015    -133.64167    -124.92981
    15  O(17)              0.16901    -102.45475     -36.55840     -34.17523
 --------------------------------------------------------
       Center         ----  Spin Dipole Couplings  ----
                      3XX-RR        3YY-RR        3ZZ-RR
 --------------------------------------------------------
     1   Atom        0.006336      0.016234     -0.022570
     2   Atom        0.072722     -0.290812      0.218090
     3   Atom       -0.006402     -0.021548      0.027950
     4   Atom       -0.012266      0.032068     -0.019802
     5   Atom        0.019484     -0.039869      0.020385
     6   Atom       -0.004757      0.012622     -0.007865
     7   Atom       -0.002096      0.005612     -0.003516
     8   Atom       -0.002251      0.004446     -0.002195
     9   Atom       -0.004023      0.008336     -0.004313
    10   Atom        0.013675     -0.010251     -0.003424
    11   Atom        0.003536     -0.003879      0.000342
    12   Atom        0.001357     -0.002662      0.001305
    13   Atom        0.004921     -0.004474     -0.000447
    14   Atom       -0.141635     -0.782956      0.924591
    15   Atom        0.763789     -0.274366     -0.489424
 --------------------------------------------------------
                        XY            XZ            YZ
 --------------------------------------------------------
     1   Atom        0.037812     -0.030436     -0.017530
     2   Atom        0.163098      0.496622      0.189467
     3   Atom       -0.017659      0.005768     -0.027698
     4   Atom       -0.025662      0.025031      0.006964
     5   Atom       -0.006822     -0.020217      0.018572
     6   Atom        0.000518      0.003122     -0.005568
     7   Atom        0.004303      0.000801     -0.000291
     8   Atom        0.002593     -0.000410     -0.003056
     9   Atom       -0.001144      0.002057      0.002700
    10   Atom        0.006475     -0.005617     -0.001739
    11   Atom       -0.003342     -0.005689      0.002404
    12   Atom        0.002673     -0.003977     -0.002920
    13   Atom        0.002979     -0.002903     -0.001166
    14   Atom        0.143708     -1.221848      0.593248
    15   Atom       -0.536215     -0.138112      0.070479
 --------------------------------------------------------


 ---------------------------------------------------------------------------------
              Anisotropic Spin Dipole Couplings in Principal Axis System
 ---------------------------------------------------------------------------------

       Atom             a.u.   MegaHertz   Gauss  10(-4) cm-1        Axes

              Baa    -0.0427    -5.725    -2.043    -1.910  0.6054 -0.1563  0.7804
     1 C(13)  Bbb    -0.0200    -2.678    -0.955    -0.893 -0.4630  0.7284  0.5050
              Bcc     0.0626     8.403     2.998     2.803  0.6474  0.6671 -0.3686
 
              Baa    -0.3566   -47.849   -17.074   -15.961  0.7258  0.1403 -0.6735
     2 C(13)  Bbb    -0.3532   -47.396   -16.912   -15.810 -0.2662  0.9600 -0.0870
              Bcc     0.7098    95.246    33.986    31.771  0.6343  0.2424  0.7341
 
              Baa    -0.0399   -21.309    -7.603    -7.108  0.3986  0.8605  0.3172
     3 H(1)   Bbb    -0.0037    -1.964    -0.701    -0.655  0.8814 -0.2638 -0.3918
              Bcc     0.0436    23.272     8.304     7.763  0.2534 -0.4358  0.8637
 
              Baa    -0.0477   -25.469    -9.088    -8.495  0.6799  0.2779 -0.6786
     4 H(1)   Bbb     0.0036     1.929     0.688     0.643  0.5862  0.3499  0.7307
              Bcc     0.0441    23.540     8.400     7.852 -0.4405  0.8946 -0.0750
 
              Baa    -0.0452   -24.091    -8.596    -8.036  0.0180  0.9634 -0.2674
     5 H(1)   Bbb     0.0010     0.559     0.199     0.186  0.7557  0.1620  0.6345
              Bcc     0.0441    23.532     8.397     7.850 -0.6546  0.2136  0.7252
 
              Baa    -0.0109    -1.463    -0.522    -0.488 -0.4569  0.2144  0.8633
     6 C(13)  Bbb    -0.0031    -0.422    -0.150    -0.141  0.8894  0.1260  0.4394
              Bcc     0.0140     1.884     0.672     0.629 -0.0145  0.9686 -0.2482
 
              Baa    -0.0047    -2.483    -0.886    -0.828  0.7326 -0.3240 -0.5986
     7 H(1)   Bbb    -0.0029    -1.538    -0.549    -0.513  0.5447 -0.2485  0.8010
              Bcc     0.0075     4.020     1.435     1.341  0.4083  0.9128  0.0056
 
              Baa    -0.0038    -2.012    -0.718    -0.671 -0.5577  0.4382  0.7049
     8 H(1)   Bbb    -0.0026    -1.404    -0.501    -0.468  0.7795 -0.0153  0.6262
              Bcc     0.0064     3.415     1.219     1.139  0.2852  0.8987 -0.3331
 
              Baa    -0.0067    -3.597    -1.283    -1.200 -0.6410 -0.1822  0.7456
     9 H(1)   Bbb    -0.0022    -1.167    -0.416    -0.389  0.7655 -0.0806  0.6384
              Bcc     0.0089     4.764     1.700     1.589 -0.0562  0.9800  0.1911
 
              Baa    -0.0119    -1.597    -0.570    -0.533 -0.2364  0.9707  0.0424
    10 C(13)  Bbb    -0.0051    -0.684    -0.244    -0.228  0.2784  0.0258  0.9601
              Bcc     0.0170     2.282     0.814     0.761  0.9309  0.2388 -0.2763
 
              Baa    -0.0052    -2.768    -0.988    -0.923  0.2879  0.9505 -0.1170
    11 H(1)   Bbb    -0.0040    -2.114    -0.754    -0.705  0.5809 -0.0762  0.8104
              Bcc     0.0091     4.881     1.742     1.628  0.7614 -0.3013 -0.5741
 
              Baa    -0.0043    -2.299    -0.820    -0.767 -0.1951  0.9199  0.3402
    12 H(1)   Bbb    -0.0026    -1.403    -0.500    -0.468  0.7339 -0.0931  0.6728
              Bcc     0.0069     3.702     1.321     1.235 -0.6506 -0.3809  0.6569
 
              Baa    -0.0054    -2.861    -1.021    -0.954 -0.2575  0.9633  0.0765
    13 H(1)   Bbb    -0.0017    -0.914    -0.326    -0.305  0.3891  0.0309  0.9207
              Bcc     0.0071     3.775     1.347     1.259  0.8845  0.2668 -0.3827
 
              Baa    -1.3388    96.877    34.568    32.315 -0.5722  0.6630 -0.4827
    14 O(17)  Bbb    -0.4554    32.950    11.757    10.991  0.6360  0.7303  0.2492
              Bcc     1.7942  -129.827   -46.325   -43.306 -0.5177  0.1644  0.8396
 
              Baa    -0.5146    37.237    13.287    12.421 -0.1791 -0.6230  0.7614
    15 O(17)  Bbb    -0.4924    35.629    12.713    11.885  0.3601  0.6787  0.6401
              Bcc     1.0070   -72.866   -26.000   -24.305  0.9156 -0.3888 -0.1028
 

 ---------------------------------------------------------------------------------

 Calling FoFJK, ICntrl=    100147 FMM=F ISym2X=0 I1Cent= 0 IOpClX= 1 NMat=1 NMatS=1 NMatT=0.
 ***** Axes restored to original set *****
 -------------------------------------------------------------------
 Center     Atomic                   Forces (Hartrees/Bohr)
 Number     Number              X              Y              Z
 -------------------------------------------------------------------
      1        6           0.032224641    0.046353506   -0.023028862
      2        6           0.010994023   -0.043590980    0.062932752
      3        1           0.003235604    0.001350973   -0.009072505
      4        1           0.001922044    0.000673188    0.003313485
      5        1           0.000272704   -0.000123845    0.000441121
      6        6           0.000661490    0.002854698    0.001290310
      7        1           0.000661722    0.000321904    0.000028783
      8        1          -0.000296215   -0.000547125    0.000443302
      9        1          -0.000658218   -0.000584980   -0.000886653
     10        6           0.007574229    0.002321950    0.000444183
     11        1          -0.000315409    0.000389788    0.000092556
     12        1          -0.000505187   -0.000152947    0.000416588
     13        1           0.001614474    0.000651097   -0.000995580
     14        8          -0.040042325   -0.019007528   -0.039232594
     15        8          -0.017343577    0.009090301    0.003813113
 -------------------------------------------------------------------
 Cartesian Forces:  Max     0.062932752 RMS     0.017506485
 FormGI is forming the generalized inverse of G from B-inverse, IUseBI=4.

 GradGradGradGradGradGradGradGradGradGradGradGradGradGradGradGradGradGrad
 Berny optimization.
 Internal  Forces:  Max     0.074001153 RMS     0.013810131
 Search for a saddle point.
 Step number   1 out of a maximum of   75
 All quantities printed in internal units (Hartrees-Bohrs-Radians)
 Swapping is turned off.
 Second derivative matrix not updated -- analytic derivatives used.
 ITU=  0
     Eigenvalues ---   -0.88636   0.00174   0.00243   0.00292   0.00604
     Eigenvalues ---    0.01178   0.02047   0.02751   0.04277   0.04405
     Eigenvalues ---    0.04538   0.04653   0.07977   0.10410   0.10720
     Eigenvalues ---    0.11160   0.11829   0.12251   0.12533   0.12896
     Eigenvalues ---    0.14392   0.14520   0.15296   0.16822   0.20816
     Eigenvalues ---    0.23362   0.28847   0.29697   0.33280   0.33542
     Eigenvalues ---    0.33618   0.33838   0.34364   0.34788   0.35185
     Eigenvalues ---    0.36379   0.36713   0.52543   0.53618
 Eigenvectors required to have negative eigenvalues:
                          R14       A3        R4        R1        A6
   1                    0.70728  -0.31192  -0.25630  -0.17062   0.15476
                          D15       D14       D13       D22       A1
   1                   -0.15230  -0.14606  -0.14522   0.14398   0.13969
 RFO step:  Lambda0=1.705612690D-03 Lambda=-3.01296845D-02.
 Linear search not attempted -- option 19 set.
 Iteration  1 RMS(Cart)=  0.09980286 RMS(Int)=  0.01380950
 Iteration  2 RMS(Cart)=  0.02163731 RMS(Int)=  0.00055603
 Iteration  3 RMS(Cart)=  0.00064970 RMS(Int)=  0.00015470
 Iteration  4 RMS(Cart)=  0.00000064 RMS(Int)=  0.00015470
 Variable       Old X    -DE/DX   Delta X   Delta X   Delta X     New X
                                 (Linear)    (Quad)   (Total)
    R1        2.61599   0.07400   0.00000   0.10637   0.10637   2.72235
    R2        2.86519   0.00209   0.00000  -0.00252  -0.00252   2.86267
    R3        2.87671   0.00612   0.00000   0.00696   0.00696   2.88367
    R4        2.65325   0.06550   0.00000   0.10444   0.10444   2.75769
    R5        2.03916  -0.00002   0.00000  -0.00040  -0.00040   2.03876
    R6        2.03910   0.00003   0.00000   0.00307   0.00307   2.04217
    R7        1.81359   0.00781   0.00000   0.01351   0.01351   1.82710
    R8        2.05986   0.00066   0.00000   0.00222   0.00222   2.06208
    R9        2.06272  -0.00062   0.00000  -0.00346  -0.00346   2.05926
   R10        2.05268  -0.00009   0.00000  -0.00063  -0.00063   2.05206
   R11        2.05847  -0.00041   0.00000  -0.00073  -0.00073   2.05774
   R12        2.05984  -0.00045   0.00000  -0.00039  -0.00039   2.05944
   R13        2.05973   0.00092   0.00000   0.00253   0.00253   2.06226
   R14        3.08687   0.01602   0.00000   0.10281   0.10281   3.18968
    A1        2.08606  -0.00190   0.00000   0.00702   0.00688   2.09294
    A2        2.02185  -0.00851   0.00000  -0.02616  -0.02629   1.99557
    A3        1.46141   0.01938   0.00000   0.01496   0.01544   1.47685
    A4        1.96458   0.00571   0.00000   0.00158   0.00153   1.96610
    A5        2.02264  -0.01169   0.00000  -0.02886  -0.02905   1.99359
    A6        1.83628  -0.00162   0.00000   0.03776   0.03814   1.87443
    A7        2.09084   0.00260   0.00000   0.01306   0.01272   2.10356
    A8        2.08724  -0.00048   0.00000  -0.00533  -0.00566   2.08157
    A9        2.05825  -0.00133   0.00000   0.00600   0.00565   2.06391
   A10        1.89754   0.00048   0.00000   0.00453   0.00453   1.90208
   A11        1.93494  -0.00038   0.00000  -0.01069  -0.01072   1.92422
   A12        1.94921  -0.00092   0.00000  -0.00109  -0.00114   1.94807
   A13        1.88466   0.00010   0.00000   0.00425   0.00427   1.88893
   A14        1.89373   0.00067   0.00000   0.00995   0.00993   1.90365
   A15        1.90220   0.00011   0.00000  -0.00625  -0.00632   1.89588
   A16        1.93154  -0.00053   0.00000  -0.00224  -0.00227   1.92927
   A17        1.93507  -0.00118   0.00000  -0.00608  -0.00608   1.92899
   A18        1.90887   0.00247   0.00000   0.01317   0.01316   1.92204
   A19        1.89750   0.00035   0.00000  -0.00156  -0.00159   1.89591
   A20        1.89027  -0.00034   0.00000   0.00306   0.00302   1.89329
   A21        1.89976  -0.00078   0.00000  -0.00632  -0.00630   1.89347
   A22        1.98878   0.00921   0.00000   0.02995   0.02995   2.01874
   A23        1.79598  -0.01050   0.00000  -0.08174  -0.08174   1.71424
    D1       -2.82477   0.00277   0.00000   0.03698   0.03699  -2.78778
    D2        0.64745   0.00030   0.00000  -0.01105  -0.01110   0.63635
    D3       -0.38414  -0.00183   0.00000   0.01188   0.01203  -0.37211
    D4        3.08808  -0.00430   0.00000  -0.03615  -0.03605   3.05202
    D5        1.42913   0.00544   0.00000   0.06072   0.06064   1.48977
    D6       -1.38185   0.00298   0.00000   0.01269   0.01256  -1.36929
    D7        1.43498  -0.00860   0.00000  -0.01256  -0.01265   1.42233
    D8       -2.77900  -0.00841   0.00000  -0.01090  -0.01102  -2.79002
    D9       -0.65402  -0.00918   0.00000  -0.02718  -0.02727  -0.68129
   D10       -1.02692   0.00106   0.00000   0.02224   0.02233  -1.00459
   D11        1.04229   0.00125   0.00000   0.02391   0.02396   1.06625
   D12       -3.11592   0.00048   0.00000   0.00763   0.00772  -3.10820
   D13        3.14158   0.00770   0.00000  -0.00781  -0.00778   3.13380
   D14       -1.07240   0.00789   0.00000  -0.00615  -0.00615  -1.07855
   D15        1.05258   0.00712   0.00000  -0.02243  -0.02240   1.03019
   D16        0.79079   0.00891   0.00000   0.01750   0.01726   0.80804
   D17        2.89784   0.00821   0.00000   0.00999   0.00976   2.90761
   D18       -1.29031   0.00810   0.00000   0.00682   0.00656  -1.28375
   D19       -3.00400   0.00209   0.00000  -0.00272  -0.00270  -3.00670
   D20       -0.89694   0.00139   0.00000  -0.01023  -0.01020  -0.90714
   D21        1.19809   0.00128   0.00000  -0.01340  -0.01339   1.18469
   D22       -0.78601  -0.01014   0.00000  -0.01079  -0.01057  -0.79658
   D23        1.32105  -0.01084   0.00000  -0.01830  -0.01807   1.30298
   D24       -2.86711  -0.01095   0.00000  -0.02147  -0.02127  -2.88838
   D25        1.55042   0.01452   0.00000   0.25430   0.25394   1.80436
   D26       -0.54135   0.00880   0.00000   0.24338   0.24331  -0.29805
   D27       -2.72345   0.01051   0.00000   0.23115   0.23159  -2.49186
   D28        1.87944   0.00052   0.00000   0.01892   0.01892   1.89836
         Item               Value     Threshold  Converged?
 Maximum Force            0.074001     0.000450     NO 
 RMS     Force            0.013810     0.000300     NO 
 Maximum Displacement     0.491872     0.001800     NO 
 RMS     Displacement     0.115509     0.001200     NO 
 Predicted change in Energy=-1.769945D-02
 GradGradGradGradGradGradGradGradGradGradGradGradGradGradGradGradGradGrad

                          Input orientation:                          
 ---------------------------------------------------------------------
 Center     Atomic      Atomic             Coordinates (Angstroms)
 Number     Number       Type             X           Y           Z
 ---------------------------------------------------------------------
      1          6           0        0.526922   -0.004330    0.147588
      2          6           0        0.298928   -0.921677    1.234716
      3          1           0       -2.131971    0.439160   -1.346375
      4          1           0        0.716333   -1.916197    1.209204
      5          1           0       -0.492647   -0.717094    1.941400
      6          6           0        0.353689    1.484589    0.366470
      7          1           0        1.256812    1.882298    0.832223
      8          1           0        0.210321    1.991844   -0.587266
      9          1           0       -0.498403    1.698633    1.004676
     10          6           0        1.746111   -0.334483   -0.708662
     11          1           0        1.762385   -1.394418   -0.957659
     12          1           0        1.729833    0.240356   -1.634396
     13          1           0        2.662040   -0.092337   -0.167021
     14          8           0       -0.625696   -0.657716   -0.464081
     15          8           0       -2.072420    0.210027   -0.408946
 ---------------------------------------------------------------------
                    Distance matrix (angstroms):
                    1          2          3          4          5
     1  C    0.000000
     2  C    1.440608   0.000000
     3  H    3.081934   3.797785   0.000000
     4  H    2.195026   1.078865   4.493498   0.000000
     5  H    2.182960   1.080670   3.851463   1.853536   0.000000
     6  C    1.514860   2.558703   3.194568   3.522365   2.836212
     7  H    2.135610   2.990287   4.279344   3.855230   3.323811
     8  H    2.150572   3.437451   2.910911   4.330836   3.771825
     9  H    2.164711   2.748577   3.127659   3.818955   2.590989
    10  C    1.525971   2.493161   4.005586   2.690812   3.490166
    11  H    2.163396   2.678003   4.321934   2.462067   3.734767
    12  H    2.163870   3.410221   3.877629   3.709982   4.317690
    13  H    2.159966   2.870012   4.965471   3.001039   3.845493
    14  O    1.459308   1.952054   2.061660   2.486906   2.409890
    15  O    2.666881   3.099301   0.966861   3.862173   2.979826
                    6          7          8          9         10
     6  C    0.000000
     7  H    1.091205   0.000000
     8  H    1.089714   1.766945   0.000000
     9  H    1.085902   1.773204   1.767072   0.000000
    10  C    2.530567   2.743694   2.790195   3.479501   0.000000
    11  H    3.467913   3.767778   3.743376   4.304519   1.088910
    12  H    2.728617   3.000655   2.544230   3.749174   1.089811
    13  H    2.846013   2.621514   3.245203   3.816916   1.091300
    14  O    2.497695   3.417003   2.781055   2.779538   2.406193
    15  O    2.848119   3.926930   2.901306   2.586852   3.868785
                   11         12         13         14         15
    11  H    0.000000
    12  H    1.769609   0.000000
    13  H    1.769153   1.769995   0.000000
    14  O    2.547407   2.779332   3.349195   0.000000
    15  O    4.192977   3.994968   4.750269   1.687906   0.000000
 Stoichiometry    C4H9O2(2)
 Framework group  C1[X(C4H9O2)]
 Deg. of freedom    39
 Full point group                 C1      NOp   1
 Largest Abelian subgroup         C1      NOp   1
 Largest concise Abelian subgroup C1      NOp   1
                         Standard orientation:                         
 ---------------------------------------------------------------------
 Center     Atomic      Atomic             Coordinates (Angstroms)
 Number     Number       Type             X           Y           Z
 ---------------------------------------------------------------------
      1          6           0        0.509418    0.040836    0.127170
      2          6           0        0.463678   -1.016659    1.104393
      3          1           0       -2.280162    0.327372   -1.151287
      4          1           0        0.988933   -1.943468    0.933858
      5          1           0       -0.294954   -0.992665    1.873646
      6          6           0        0.183248    1.462413    0.536479
      7          1           0        1.065355    1.910492    0.996742
      8          1           0       -0.083020    2.055107   -0.338330
      9          1           0       -0.641202    1.496282    1.242394
     10          6           0        1.695740   -0.037747   -0.829413
     11          1           0        1.815364   -1.051997   -1.207186
     12          1           0        1.549669    0.633786   -1.675223
     13          1           0        2.613552    0.249770   -0.313764
     14          8           0       -0.600957   -0.672784   -0.495237
     15          8           0       -2.129798    0.000567   -0.253841
 ---------------------------------------------------------------------
 Rotational constants (GHZ):           4.7600419           2.7540866           2.5114674
 Standard basis: CC-pVTZ+d (5D, 7F)
 There are   345 symmetry adapted cartesian basis functions of A   symmetry.
 There are   306 symmetry adapted basis functions of A   symmetry.
   306 basis functions,   465 primitive gaussians,   345 cartesian basis functions
    25 alpha electrons       24 beta electrons
       nuclear repulsion energy       255.6643852030 Hartrees.
 NAtoms=   15 NActive=   15 NUniq=   15 SFac= 1.00D+00 NAtFMM=   60 NAOKFM=F Big=F
 Integral buffers will be    131072 words long.
 Raffenetti 2 integral format.
 Two-electron integral symmetry is turned on.
 One-electron integrals computed using PRISM.
 NBasis=   306 RedAO= T EigKep=  4.35D-04  NBF=   306
 NBsUse=   306 1.00D-06 EigRej= -1.00D+00 NBFU=   306
 Initial guess from the checkpoint file:  "QOOHtertb-OH-Elim-TS5-b3lyp-c.chk"
 B after Tr=     0.000000   -0.000000    0.000000
         Rot=    0.996711   -0.064559   -0.037063   -0.032015 Ang=  -9.30 deg.
 Initial guess <Sx>= 0.0000 <Sy>= 0.0000 <Sz>= 0.5000 <S**2>= 0.7736 S= 0.5117
 ExpMin= 1.03D-01 ExpMax= 1.53D+04 ExpMxC= 5.22D+02 IAcc=3 IRadAn=         5 AccDes= 0.00D+00
 Harris functional with IExCor=  402 and IRadAn=       5 diagonalized for initial guess.
 HarFok:  IExCor=  402 AccDes= 0.00D+00 IRadAn=         5 IDoV= 1 UseB2=F ITyADJ=14
 ICtDFT=  3500011 ScaDFX=  1.000000  1.000000  1.000000  1.000000
 FoFCou: FMM=F IPFlag=           0 FMFlag=      100000 FMFlg1=           0
         NFxFlg=           0 DoJE=T BraDBF=F KetDBF=T FulRan=T
         wScrn=  0.000000 ICntrl=       500 IOpCl=  0 I1Cent=   200000004 NGrid=           0
         NMat0=    1 NMatS0=      1 NMatT0=    0 NMatD0=    1 NMtDS0=    0 NMtDT0=    0
 Petite list used in FoFCou.
 Requested convergence on RMS density matrix=1.00D-08 within 128 cycles.
 Requested convergence on MAX density matrix=1.00D-06.
 Requested convergence on             energy=1.00D-06.
 No special actions if energy rises.
 Integral accuracy reduced to 1.0D-05 until final iterations.
 Initial convergence to 1.0D-05 achieved.  Increase integral accuracy.
 SCF Done:  E(UB3LYP) =  -308.217684722     A.U. after   19 cycles
            NFock= 19  Conv=0.61D-08     -V/T= 2.0061
 <Sx>= 0.0000 <Sy>= 0.0000 <Sz>= 0.5000 <S**2>= 0.7856 S= 0.5176
 <L.S>= 0.000000000000E+00
 Annihilation of the first spin contaminant:
 S**2 before annihilation     0.7856,   after     0.7502
 Calling FoFJK, ICntrl=      2127 FMM=F ISym2X=0 I1Cent= 0 IOpClX= 1 NMat=1 NMatS=1 NMatT=0.
 ***** Axes restored to original set *****
 -------------------------------------------------------------------
 Center     Atomic                   Forces (Hartrees/Bohr)
 Number     Number              X              Y              Z
 -------------------------------------------------------------------
      1        6           0.006785594    0.007716897   -0.008580893
      2        6           0.004517252   -0.009760780    0.014137622
      3        1           0.001749227   -0.001448469   -0.001189469
      4        1           0.001478551    0.000487927    0.000838959
      5        1           0.000997633    0.000151407    0.000029444
      6        6           0.000452837   -0.000397399    0.003520823
      7        1          -0.000097497    0.000032291    0.000105173
      8        1          -0.000282132   -0.000204783    0.000094083
      9        1          -0.000623923    0.000023260   -0.000404453
     10        6           0.000632917    0.002071047   -0.000787723
     11        1          -0.000021662    0.000072880   -0.000067158
     12        1          -0.000109488   -0.000162222   -0.000124025
     13        1          -0.000062656    0.000462013   -0.000180884
     14        8          -0.015698537   -0.003450795   -0.002101230
     15        8           0.000281884    0.004406726   -0.005290269
 -------------------------------------------------------------------
 Cartesian Forces:  Max     0.015698537 RMS     0.004307200

 GradGradGradGradGradGradGradGradGradGradGradGradGradGradGradGradGradGrad
 Berny optimization.
 FormGI is forming the generalized inverse of G from B-inverse, IUseBI=4.
 Internal  Forces:  Max     0.016025492 RMS     0.003721772
 Search for a saddle point.
 Step number   2 out of a maximum of   75
 All quantities printed in internal units (Hartrees-Bohrs-Radians)
 Swapping is turned off.
 Update second derivatives using D2CorX and points    1    2
 ITU=  0  0
     Eigenvalues ---   -0.88933   0.00174   0.00243   0.00290   0.00961
     Eigenvalues ---    0.01228   0.02042   0.02758   0.04278   0.04407
     Eigenvalues ---    0.04537   0.04656   0.07920   0.10412   0.10720
     Eigenvalues ---    0.11008   0.11769   0.12248   0.12530   0.12902
     Eigenvalues ---    0.14379   0.14520   0.15290   0.16834   0.20555
     Eigenvalues ---    0.23325   0.28831   0.29534   0.33272   0.33543
     Eigenvalues ---    0.33617   0.33781   0.34321   0.34666   0.35105
     Eigenvalues ---    0.36379   0.36652   0.50674   0.53602
 Eigenvectors required to have negative eigenvalues:
                          R14       A3        R4        R1        D15
   1                    0.70225  -0.31310  -0.26311  -0.17762  -0.15116
                          A6        D14       D22       D13       A1
   1                    0.15024  -0.14594   0.14561  -0.14491   0.13809
 RFO step:  Lambda0=2.446355035D-04 Lambda=-1.13660879D-02.
 Linear search not attempted -- option 19 set.
 Iteration  1 RMS(Cart)=  0.08531158 RMS(Int)=  0.04154192
 Iteration  2 RMS(Cart)=  0.07432304 RMS(Int)=  0.00547196
 Iteration  3 RMS(Cart)=  0.00643858 RMS(Int)=  0.00009807
 Iteration  4 RMS(Cart)=  0.00005764 RMS(Int)=  0.00009469
 Iteration  5 RMS(Cart)=  0.00000000 RMS(Int)=  0.00009469
 Variable       Old X    -DE/DX   Delta X   Delta X   Delta X     New X
                                 (Linear)    (Quad)   (Total)
    R1        2.72235   0.01603   0.00000   0.04236   0.04236   2.76472
    R2        2.86267   0.00000   0.00000  -0.00126  -0.00126   2.86141
    R3        2.88367   0.00047   0.00000  -0.00542  -0.00542   2.87825
    R4        2.75769   0.01461   0.00000   0.02948   0.02948   2.78717
    R5        2.03876   0.00010   0.00000   0.00094   0.00094   2.03970
    R6        2.04217  -0.00068   0.00000  -0.00117  -0.00117   2.04100
    R7        1.82710   0.00070   0.00000   0.00181   0.00181   1.82891
    R8        2.06208  -0.00002   0.00000   0.00002   0.00002   2.06210
    R9        2.05926  -0.00014   0.00000  -0.00241  -0.00241   2.05685
   R10        2.05206   0.00026   0.00000   0.00035   0.00035   2.05241
   R11        2.05774  -0.00006   0.00000   0.00018   0.00018   2.05792
   R12        2.05944   0.00002   0.00000   0.00096   0.00096   2.06040
   R13        2.06226  -0.00004   0.00000   0.00074   0.00074   2.06300
   R14        3.18968  -0.00043   0.00000  -0.00984  -0.00984   3.17984
    A1        2.09294  -0.00215   0.00000  -0.02073  -0.02075   2.07219
    A2        1.99557  -0.00222   0.00000   0.00194   0.00192   1.99749
    A3        1.47685   0.00685   0.00000  -0.00933  -0.00938   1.46747
    A4        1.96610   0.00274   0.00000   0.00418   0.00397   1.97007
    A5        1.99359  -0.00349   0.00000  -0.00081  -0.00116   1.99243
    A6        1.87443  -0.00136   0.00000   0.02863   0.02857   1.90299
    A7        2.10356   0.00010   0.00000   0.00756   0.00724   2.11081
    A8        2.08157   0.00025   0.00000  -0.00017  -0.00049   2.08108
    A9        2.06391   0.00001   0.00000   0.00407   0.00374   2.06765
   A10        1.90208   0.00029   0.00000  -0.00641  -0.00640   1.89568
   A11        1.92422  -0.00025   0.00000   0.00189   0.00189   1.92611
   A12        1.94807  -0.00014   0.00000   0.00513   0.00514   1.95321
   A13        1.88893   0.00014   0.00000   0.00671   0.00671   1.89564
   A14        1.90365   0.00014   0.00000   0.00331   0.00332   1.90697
   A15        1.89588  -0.00017   0.00000  -0.01046  -0.01046   1.88542
   A16        1.92927   0.00008   0.00000  -0.00040  -0.00040   1.92887
   A17        1.92899  -0.00006   0.00000  -0.00013  -0.00013   1.92886
   A18        1.92204  -0.00002   0.00000   0.00437   0.00437   1.92641
   A19        1.89591  -0.00010   0.00000  -0.00155  -0.00155   1.89436
   A20        1.89329   0.00016   0.00000   0.00092   0.00092   1.89421
   A21        1.89347  -0.00006   0.00000  -0.00333  -0.00333   1.89014
   A22        2.01874   0.00145   0.00000   0.02963   0.02963   2.04836
   A23        1.71424  -0.00440   0.00000  -0.03690  -0.03690   1.67734
    D1       -2.78778   0.00128   0.00000   0.02540   0.02542  -2.76235
    D2        0.63635  -0.00019   0.00000  -0.02160  -0.02162   0.61473
    D3       -0.37211   0.00018   0.00000   0.00787   0.00792  -0.36418
    D4        3.05202  -0.00129   0.00000  -0.03913  -0.03912   3.01290
    D5        1.48977   0.00164   0.00000   0.03524   0.03522   1.52499
    D6       -1.36929   0.00018   0.00000  -0.01176  -0.01183  -1.38112
    D7        1.42233  -0.00283   0.00000  -0.00431  -0.00430   1.41803
    D8       -2.79002  -0.00263   0.00000   0.00109   0.00111  -2.78892
    D9       -0.68129  -0.00311   0.00000  -0.00744  -0.00743  -0.68871
   D10       -1.00459   0.00010   0.00000   0.01358   0.01352  -0.99107
   D11        1.06625   0.00030   0.00000   0.01898   0.01892   1.08517
   D12       -3.10820  -0.00017   0.00000   0.01045   0.01039  -3.09781
   D13        3.13380   0.00248   0.00000  -0.02781  -0.02777   3.10604
   D14       -1.07855   0.00268   0.00000  -0.02241  -0.02236  -1.10091
   D15        1.03019   0.00221   0.00000  -0.03094  -0.03090   0.99929
   D16        0.80804   0.00311   0.00000   0.00673   0.00676   0.81480
   D17        2.90761   0.00299   0.00000   0.00444   0.00447   2.91208
   D18       -1.28375   0.00286   0.00000   0.00302   0.00305  -1.28069
   D19       -3.00670   0.00022   0.00000  -0.01992  -0.02003  -3.02673
   D20       -0.90714   0.00010   0.00000  -0.02221  -0.02232  -0.92946
   D21        1.18469  -0.00002   0.00000  -0.02363  -0.02374   1.16096
   D22       -0.79658  -0.00339   0.00000   0.00352   0.00360  -0.79299
   D23        1.30298  -0.00350   0.00000   0.00123   0.00131   1.30429
   D24       -2.88838  -0.00363   0.00000  -0.00019  -0.00011  -2.88848
   D25        1.80436   0.00866   0.00000   0.37526   0.37531   2.17967
   D26       -0.29805   0.00838   0.00000   0.40270   0.40273   0.10469
   D27       -2.49186   0.00834   0.00000   0.37551   0.37543  -2.11643
   D28        1.89836   0.00096   0.00000   0.08920   0.08920   1.98756
         Item               Value     Threshold  Converged?
 Maximum Force            0.016025     0.000450     NO 
 RMS     Force            0.003722     0.000300     NO 
 Maximum Displacement     0.565565     0.001800     NO 
 RMS     Displacement     0.155691     0.001200     NO 
 Predicted change in Energy=-8.214707D-03
 GradGradGradGradGradGradGradGradGradGradGradGradGradGradGradGradGradGrad

                          Input orientation:                          
 ---------------------------------------------------------------------
 Center     Atomic      Atomic             Coordinates (Angstroms)
 Number     Number       Type             X           Y           Z
 ---------------------------------------------------------------------
      1          6           0        0.508154    0.003273    0.185608
      2          6           0        0.344577   -0.928960    1.301235
      3          1           0       -2.008916    0.208598   -1.645658
      4          1           0        0.761155   -1.923789    1.258779
      5          1           0       -0.374825   -0.704663    2.074971
      6          6           0        0.368997    1.487513    0.451036
      7          1           0        1.310389    1.857971    0.860049
      8          1           0        0.159201    2.019725   -0.474939
      9          1           0       -0.434059    1.700597    1.150523
     10          6           0        1.667583   -0.325519   -0.745771
     11          1           0        1.662502   -1.383780   -1.002661
     12          1           0        1.595015    0.254918   -1.665892
     13          1           0        2.619320   -0.089561   -0.265864
     14          8           0       -0.717821   -0.635535   -0.328456
     15          8           0       -2.019034    0.367865   -0.691088
 ---------------------------------------------------------------------
                    Distance matrix (angstroms):
                    1          2          3          4          5
     1  C    0.000000
     2  C    1.463024   0.000000
     3  H    3.119509   3.939181   0.000000
     4  H    2.220197   1.079363   4.544901   0.000000
     5  H    2.202389   1.080053   4.165019   1.855502   0.000000
     6  C    1.514195   2.561791   3.418512   3.527494   2.827732
     7  H    2.130342   2.982351   4.474013   3.842180   3.298950
     8  H    2.150388   3.447303   3.058022   4.349647   3.769551
     9  H    2.167887   2.746553   3.539048   3.817909   2.577477
    10  C    1.523104   2.510921   3.822529   2.719246   3.503108
    11  H    2.160652   2.692903   4.053200   2.493621   3.752828
    12  H    2.161630   3.430598   3.604286   3.741094   4.335334
    13  H    2.160895   2.887014   4.838730   3.023525   3.850034
    14  O    1.474907   1.967404   2.028426   2.523149   2.428762
    15  O    2.699667   3.352277   0.967819   4.096719   3.391876
                    6          7          8          9         10
     6  C    0.000000
     7  H    1.091215   0.000000
     8  H    1.088437   1.770195   0.000000
     9  H    1.086086   1.775455   1.759524   0.000000
    10  C    2.530960   2.733839   2.801559   3.481088   0.000000
    11  H    3.468532   3.755346   3.757958   4.306408   1.089006
    12  H    2.739306   3.005191   2.567971   3.760229   1.090319
    13  H    2.839906   2.602665   3.247304   3.812340   1.091691
    14  O    2.509206   3.426916   2.800184   2.779462   2.441397
    15  O    2.874152   3.963774   2.742275   2.771254   3.751656
                   11         12         13         14         15
    11  H    0.000000
    12  H    1.769112   0.000000
    13  H    1.770133   1.768599   0.000000
    14  O    2.584640   2.816177   3.382088   0.000000
[...]
 ! D23   D(14,1,10,12)          69.6764         -DE/DX =    0.0                 !
 ! D24   D(14,1,10,13)        -170.409          -DE/DX =    0.0                 !
 ! D25   D(2,1,14,15)          177.7627         -DE/DX =    0.0                 !
 ! D26   D(6,1,14,15)           63.231          -DE/DX =    0.0                 !
 ! D27   D(10,1,14,15)         -67.0779         -DE/DX =    0.0                 !
 ! D28   D(1,14,15,3)         -128.0164         -DE/DX =    0.0                 !
 --------------------------------------------------------------------------------
 GradGradGradGradGradGradGradGradGradGradGradGradGradGradGradGradGradGrad


 ----------------------------------------------------------------------

 Electric dipole moment (input orientation):
 (Debye = 10**-18 statcoulomb cm , SI units = C m)
                  (au)            (Debye)         (10**-30 SI)
   Tot        0.966913D+00      0.245765D+01      0.819783D+01
   x          0.343353D+00      0.872716D+00      0.291107D+01
   y          0.176941D+00      0.449739D+00      0.150017D+01
   z          0.886409D+00      0.225303D+01      0.751529D+01

 Dipole polarizability, Alpha (input orientation).
 (esu units = cm**3 , SI units = C**2 m**2 J**-1)
 Alpha(0;0):
               (au)            (10**-24 esu)      (10**-40 SI)
   iso        0.658129D+02      0.975247D+01      0.108511D+02
   aniso      0.302014D+02      0.447538D+01      0.497954D+01
   xx         0.648370D+02      0.960785D+01      0.106902D+02
   yx        -0.574528D+01     -0.851363D+00     -0.947269D+00
   yy         0.580605D+02      0.860368D+01      0.957288D+01
   zx         0.118009D+02      0.174871D+01      0.194571D+01
   zy        -0.794687D+01     -0.117760D+01     -0.131026D+01
   zz         0.745413D+02      0.110459D+02      0.122902D+02

 ----------------------------------------------------------------------

 Dipole orientation:
     6          0.69617804         -0.10882678          0.64997067
     6         -0.20763777         -2.23645277          2.22687810
     1         -3.09447633          1.18587773         -3.54879029
     1          0.54294083         -4.11251603          1.95252106
     1         -1.78556529         -1.97591353          3.49210145
     6          0.12909645          2.51189354          1.68423843
     1          1.44269463          3.00087723          3.19559823
     1          0.30926869          3.89774126          0.17463352
     1         -1.79154367          2.59932107          2.42351525
     6          3.35699225         -0.36936825         -0.40096705
     1          3.66233126         -2.27252269         -1.12380529
     1          3.61734235          0.95973885         -1.95063964
     1          4.76233272          0.02865516          1.05410898
     8         -1.17418178         -1.00047596         -1.04582602
     8         -1.29023233          0.92740662         -3.67137205

 Electric dipole moment (dipole orientation):
 (Debye = 10**-18 statcoulomb cm , SI units = C m)
                  (au)            (Debye)         (10**-30 SI)
   Tot        0.966913D+00      0.245765D+01      0.819783D+01
   x          0.000000D+00      0.000000D+00      0.000000D+00
   y          0.000000D+00      0.000000D+00      0.000000D+00
   z          0.966913D+00      0.245765D+01      0.819783D+01

 Dipole polarizability, Alpha (dipole orientation).
 (esu units = cm**3 , SI units = C**2 m**2 J**-1)
 Alpha(0;0):
               (au)            (10**-24 esu)      (10**-40 SI)
   iso        0.658129D+02      0.975247D+01      0.108511D+02
   aniso      0.302014D+02      0.447538D+01      0.497954D+01
   xx         0.583958D+02      0.865336D+01      0.962816D+01
   yx        -0.357584D+01     -0.529885D+00     -0.589576D+00
   yy         0.620070D+02      0.918849D+01      0.102236D+02
   zx         0.535188D+01      0.793066D+00      0.882405D+00
   zy        -0.128407D+02     -0.190280D+01     -0.211715D+01
   zz         0.770360D+02      0.114156D+02      0.127015D+02

 ----------------------------------------------------------------------
 1\1\GINC-CNODE0654\Freq\UB3LYP\CC-pVTZ+d\C4H9O2(2)\CVANSTADEN\02-Apr-2
 022\0\\#N Geom=AllCheck Guess=TCheck SCRF=Check GenChk UB3LYP/CC-pVTZ+
 d Freq\\QOOHtertb-OH-Elim-TS5-b3lyp-c\\0,2\C,0.4682550126,-0.006130909
 4,0.1950312375\C,0.3559312283,-0.9434336015,1.3358896138\H,-2.21793293
 01,0.3284370625,-1.2549325309\H,0.7090925878,-1.9588924484,1.243423802
 6\H,-0.1910628918,-0.65714167,2.2209547351\C,0.3352448489,1.4667945116
 ,0.5495522151\H,1.2598705253,1.8438220797,0.9885485523\H,0.1157800517,
 2.0379228116,-0.3508434692\H,-0.4768999913,1.618297368,1.2606342678\C,
 1.5908561923,-0.2911005937,-0.7895670654\H,1.6401181777,-1.3560868831,
 -1.0133102234\H,1.4045171949,0.2452079812,-1.7189721088\H,2.5518914206
 ,0.0315375654,-0.3863061771\O,-0.7590474872,-0.6003889564,-0.189823736
 3\O,-1.3443771697,0.1498103726,-1.628408663\\Version=ES64L-G16RevB.01\
 State=2-A\HF=-308.2406905\S2=0.805084\S2-1=0.\S2A=0.750321\RMSD=3.005e
 -09\RMSF=1.144e-05\ZeroPoint=0.1218304\Thermal=0.1299062\Dipole=0.3433
 529,0.1769409,0.8864093\DipoleDeriv=0.5578826,0.0967652,-0.073083,0.20
 87176,0.4580927,0.1652568,-0.1910175,0.088798,0.1876367,-0.2363981,0.0
 339952,-0.3532817,-0.1018723,0.0420207,0.0362932,-0.2288035,0.1652755,
 -0.256471,0.2415266,0.0137669,0.1602715,0.0259061,0.2851887,-0.0051652
 ,0.0678567,0.0126942,0.1860744,0.1053527,0.0384199,0.0367595,0.0403134
 ,-0.0305692,0.0186849,0.0299024,-0.0160345,0.0559179,0.0690522,0.02294
 99,0.0831757,0.0443504,0.0442035,-0.0128587,0.0573846,0.0026894,0.0005
 442,0.0737334,0.048314,0.0354267,-0.0092693,-0.1276882,-0.0221446,0.04
 44873,-0.0132965,0.0667587,-0.081685,-0.0755359,-0.0677578,-0.0291466,
 0.0249566,-0.0137648,-0.0628365,-0.0444869,0.0446242,0.0688343,0.04212
 66,-0.0187187,-0.0146877,0.0159366,0.0095682,-0.013275,0.0880833,-0.03
 64388,-0.0566661,0.0443891,0.1088148,0.0042561,0.0304782,-0.0037218,0.
 0945532,-0.0394429,-0.0320216,0.0096441,0.0113473,0.0956438,0.0226523,
 0.0297766,-0.03279,0.1551952,-0.0004576,-0.0168514,0.0491115,-0.007736
 9,0.0139936,0.036056,-0.1287197,-0.0536379,0.0171229,-0.0213801,0.0425
 342,0.0425712,0.0315837,-0.050506,0.0124881,0.0256473,0.0705667,0.0338
 886,0.0562432,-0.0275133,-0.0942234,-0.0500624,-0.0263884,-0.059086,0.
 0489295,-0.0280768,-0.0829702,-0.0325174,0.0228012,-0.2934026,-0.30639
 9,0.4764185,-0.3069784,-0.2517141,-0.4095007,0.4938797,-0.4278656,0.56
 06928,-0.4553334,0.0560764,-0.4207685,0.1263003,-0.4665392,0.2812906,-
 0.4153678,0.1816979,-0.7982882\Polar=64.8369619,-5.7452815,58.0604942,
 11.8009035,-7.9468708,74.5413234\Quadrupole=1.5283143,-0.2556314,-1.27
 26829,-1.680494,-0.682826,-1.1281323\PG=C01 [X(C4H9O2)]\NImag=1\\0.422
 15614,0.01301659,0.54024973,-0.09710012,-0.03634625,0.46052035,-0.0261
 4736,0.01237064,0.03127382,0.19660940,-0.01030686,-0.14255965,0.076240
 84,-0.15332706,0.55700993,0.05821142,0.09744938,-0.15446352,-0.2192116
 9,-0.01085679,0.47032507,-0.00153263,-0.00000241,-0.00010010,-0.000291
 00,0.00030713,-0.00114388,0.42057807,-0.00102842,-0.00018781,0.0008758
 7,0.00085331,-0.00078034,0.00076807,-0.08751787,0.02313808,-0.00137624
 ,0.00302282,-0.00400952,-0.00250401,0.00017755,-0.00087808,-0.17285636
 ,0.02526425,0.10518819,0.00429595,-0.00599892,-0.00460926,-0.06142864,
 0.09629782,0.02539370,-0.00004095,0.00017303,-0.00003325,0.05602358,0.
 00538841,-0.01296652,-0.00704755,0.10233091,-0.31359830,-0.02101981,-0
 .00000990,0.00000638,-0.00010229,-0.10603567,0.32543129,-0.00681102,0.
 01811375,0.00261535,0.02204424,-0.02741032,-0.05229160,0.00002303,0.00
 006562,0.00000215,-0.02222733,0.02327788,0.04785165,-0.00451587,0.0056
 9850,0.00020647,-0.10722023,0.04902776,0.14100060,-0.00000631,-0.00005
 150,0.00025839,0.00056104,-0.00040873,0.00742843,0.10524358,-0.0104951
 3,0.00856639,0.01486039,0.05218291,-0.07647020,-0.06171788,0.00006674,
 0.00001315,0.00019997,0.01226399,-0.00159350,-0.02050673,-0.05341083,0
 .07025481,0.00905466,-0.00602895,-0.01177633,0.13188225,-0.06356035,-0
 .24309305,-0.00013567,0.00004096,-0.00004496,0.00111905,0.00231521,0.0
 0339575,-0.14360829,0.06470108,0.25379659,-0.07763626,0.02449228,0.007
 60535,-0.00019040,0.00555137,0.00196639,0.00017498,-0.00022402,-0.0001
 1547,0.00030365,0.00062151,-0.00040751,0.00026519,-0.00134879,0.000307
 61,0.57713293,0.01680570,-0.17366899,-0.02113405,0.00225797,-0.0255246
 2,0.00045872,0.00030931,0.00022302,0.00008007,-0.00108082,-0.00041926,
 0.00051418,0.00066071,0.00173850,-0.00118179,0.00965531,0.46899651,0.0
 1030630,-0.01908131,-0.08485463,-0.00470827,0.02774258,0.00472484,-0.0
 0010635,-0.00044708,0.00074625,0.00148773,0.00377303,-0.00312811,-0.00
 064901,0.00017188,0.00073126,-0.00334587,-0.02452035,0.56995484,0.0016
 5598,0.00133644,0.00211670,0.00041765,-0.00037922,0.00029191,0.0001352
 3,0.00018225,0.00015291,-0.00007014,-0.00008419,0.00006584,-0.00013788
 ,-0.00011866,-0.00007369,-0.23599816,-0.07514516,-0.08933396,0.2558230
 0,-0.02817136,-0.00611632,-0.01153783,0.00004160,0.00153917,0.00051012
 ,-0.00002408,-0.00024876,-0.00001916,-0.00004790,0.00001131,-0.0000666
 2,-0.00010605,-0.00023060,0.00016299,-0.07309109,-0.07737160,-0.036284
 56,0.08266413,0.08243041,-0.00567069,0.00038982,-0.00396338,0.00038554
 ,-0.00003410,0.00037502,0.00009198,0.00005447,-0.00003851,-0.00003444,
 -0.00008049,0.00007763,0.00008414,-0.00004425,0.00000136,-0.08814773,-
 0.03669344,-0.08889916,0.09851887,0.04068466,0.09230619,-0.00143539,0.
 00159929,-0.00281229,-0.00005443,-0.00000074,0.00032023,-0.00031706,-0
 .00038792,-0.00013662,0.00022467,-0.00012397,-0.00021432,0.00003445,0.
 00016598,-0.00024794,-0.05764416,0.02926877,-0.04344618,-0.00492106,0.
 01533292,-0.02251434,0.05823853,0.00607137,-0.01916775,0.02863108,0.00
 155891,-0.00562081,-0.00245405,-0.00002839,-0.00003512,-0.00030211,-0.
 00074289,-0.00111629,0.00102395,0.00005512,0.00014331,-0.00000979,0.02
 810992,-0.11737222,0.11359061,-0.00144921,0.00655419,-0.01057504,-0.03
 244405,0.12924438,0.00232856,-0.00388138,0.00690325,0.00003694,-0.0013
 8661,0.00019431,0.00012613,0.00028598,0.00005382,-0.00001413,-0.000244
 80,0.00049440,-0.00019113,-0.00023418,0.00014754,-0.04323345,0.1163457
 6,-0.23188195,-0.00158329,0.00537836,-0.00956255,0.04793962,-0.1260325
 5,0.25016424,-0.00476493,-0.00057544,0.00158984,-0.00014723,-0.0005315
 6,0.00002373,0.00000837,-0.00003261,-0.00003711,0.00011719,-0.00006076
 ,-0.00028780,0.00027138,0.00054324,-0.00043986,-0.19297866,0.02578440,
 0.12801902,-0.01881895,0.00382513,0.01785945,0.00574134,-0.00166002,-0
 .00469266,0.20738003,0.02659315,-0.00549553,-0.02201106,0.00086607,0.0
 0115410,-0.00135677,-0.00009714,0.00003229,-0.00011994,-0.00006355,0.0
 0026814,0.00019692,-0.00024498,-0.00030147,0.00071668,0.02235614,-0.05
 136692,-0.01978736,-0.00764071,0.00085522,0.00837504,-0.01368285,0.002
 20733,0.00988795,-0.02830201,0.05608493,0.00597444,-0.00027228,-0.0067
 6477,-0.00065745,0.00083287,0.00054241,-0.00020438,-0.00034883,-0.0003
 5299,-0.00001667,-0.00005053,0.00014890,-0.00017743,-0.00008169,0.0003
 7377,0.12765692,-0.02190832,-0.15909203,-0.01026477,0.00270130,0.00976
 119,0.02050782,-0.00415299,-0.01623816,-0.14173203,0.02427705,0.169859
 02,-0.12017732,0.01999910,0.04925407,0.00127780,-0.00324238,0.00128863
 ,0.00015193,-0.00035085,0.00040852,0.00036895,0.00035454,-0.00042091,0
 .00078527,0.00122746,-0.00198472,-0.00083431,0.00655639,0.00632111,-0.
 00050260,-0.00012265,-0.00019247,-0.00012120,-0.00075240,-0.00004651,0
 .00089507,-0.00080168,-0.00067893,0.51247785,0.02036579,-0.08803719,-0
 .01841889,-0.01125047,0.00324832,0.01348596,0.00016953,-0.00044453,0.0
 0034938,-0.00041991,0.00070640,0.00082624,-0.00115848,-0.00219121,0.00
 210265,0.02547900,-0.00867150,-0.02310443,0.00008399,0.00105169,0.0002
 2780,-0.00006639,0.00111788,-0.00012075,0.00123474,-0.00630776,-0.0019
 8631,0.01608698,0.58045192,0.05648057,-0.01396043,-0.12903020,0.022214
 96,-0.00339778,-0.02505277,-0.00002370,0.00007432,-0.00052239,-0.00098
 868,-0.00138471,0.00169553,0.00147432,0.00266602,-0.00172475,0.0078460
 2,-0.00507333,-0.00568166,0.00011509,0.00033894,-0.00000784,-0.0005035
 2,0.00100120,0.00058735,-0.00046019,-0.00059528,0.00060692,0.05115297,
 -0.01071935,0.52523142,-0.00244292,0.02570860,0.00515291,0.00043975,0.
 00054551,-0.00089882,-0.00001470,0.00003357,-0.00003647,0.00018796,-0.
 00040937,0.00012973,0.00011436,-0.00003442,-0.00005873,-0.00364888,-0.
 00025998,0.00304058,0.00027709,0.00005411,0.00018094,0.00002992,-0.000
 30806,-0.00003725,0.00004565,0.00147927,0.00062357,-0.04731297,0.00719
 479,0.00147029,0.04829703,-0.00085014,-0.00783700,-0.00083532,-0.00060
 820,0.00060264,0.00057801,-0.00003550,0.00000614,-0.00000962,0.0001821
 6,0.00055674,-0.00038938,-0.00008968,0.00024370,-0.00007757,0.00140560
 ,0.00131782,-0.00118425,-0.00012090,0.00017523,0.00015250,-0.00020240,
 0.00026563,0.00007389,0.00011621,-0.00036797,-0.00025183,0.01056990,-0
 .30100445,-0.05134088,-0.01112277,0.32637667,-0.00007972,-0.02309184,-
 0.00651609,-0.00039666,-0.00153931,0.00062261,0.00005335,-0.00010601,-
 0.00004583,0.00014941,0.00060534,-0.00046065,-0.00024544,0.00020998,0.
 00012921,0.00352799,0.00032568,-0.00251789,0.00000503,0.00041206,0.000
 09901,0.00014272,-0.00020703,0.00013415,0.00045760,-0.00145260,0.00000
 987,0.00269105,-0.04903503,-0.05726539,-0.00524289,0.05657722,0.060569
 05,0.00358854,-0.01350370,0.02244287,-0.00324572,0.00157807,0.00350793
 ,0.00039720,0.00002750,0.00011709,0.00000048,0.00000696,-0.00008050,-0
 .00047489,-0.00095241,0.00085451,0.00056719,-0.00090097,-0.00045795,-0
 .00000432,0.00007408,-0.00011047,0.00010925,0.00041870,0.00001568,-0.0
 0001732,-0.00015560,-0.00020085,-0.05448275,0.02470461,-0.04185495,-0.
 00093021,0.00011838,-0.00036621,0.05681657,-0.00205789,0.00256458,-0.0
 0598992,0.00066042,0.00010065,-0.00065996,0.00011660,0.00004575,-0.000
 25052,0.00015696,0.00029719,-0.00025786,-0.00015038,0.00041761,-0.0001
 9064,-0.00034360,0.00046691,-0.00045802,0.00001619,-0.00000660,-0.0000
 9754,0.00029640,0.00002799,-0.00017919,-0.00012610,0.00003431,0.000141
 42,0.02375147,-0.11339131,0.11213373,0.00576894,-0.01458982,0.02720902
 ,-0.02712361,0.11930537,-0.00351453,0.01175752,-0.02028921,0.00270035,
 -0.00204948,-0.00192498,-0.00026793,-0.00009903,0.00024612,-0.00017743
 ,-0.00003453,-0.00000920,0.00048957,0.00089506,-0.00040311,-0.00076016
 ,0.00080625,0.00055956,0.00006429,0.00000732,-0.00006858,0.00034951,-0
 .00077862,0.00019238,0.00007194,-0.00006861,0.00044933,-0.03912456,0.1
 1156437,-0.23874251,0.00142397,-0.00351012,0.00711848,0.04178057,-0.12
 271323,0.26056274,-0.01772942,-0.00814014,-0.01288683,0.00108232,-0.00
 011200,0.00001999,0.00008619,-0.00015355,0.00010983,-0.00019064,-0.000
 13227,0.00014948,-0.00006723,-0.00007912,0.00003141,0.00049761,-0.0004
 5478,-0.00068873,0.00043469,0.00071787,0.00052762,-0.00004396,-0.00002
 550,0.00002466,0.00041859,-0.00004522,0.00019457,-0.24718127,-0.066311
 76,-0.08433419,0.00255564,0.00028413,0.00111300,-0.00418469,-0.0010681
 9,-0.00163240,0.27006973,0.00450125,-0.00013001,0.00361552,-0.00013010
 ,0.00005343,0.00009270,0.00009019,0.00007313,-0.00005570,-0.00013580,-
 0.00007152,-0.00006053,-0.00002409,-0.00000797,-0.00002168,-0.00012879
 ,-0.00022526,-0.00001221,0.00046169,-0.00016510,-0.00036291,0.00015324
 ,-0.00000118,0.00001762,-0.00013647,0.00007901,0.00014105,-0.06781897,
 -0.07052858,-0.03035138,-0.02816684,-0.00728938,-0.01126132,0.01517525
 ,0.00507587,0.00486601,0.07493355,0.07177341,0.01713839,0.00731843,0.0
 0935506,-0.00083714,0.00018099,0.00111765,-0.00019733,-0.00000923,0.00
 013592,0.00001217,0.00014224,-0.00010851,-0.00000948,-0.00010614,0.000
 11904,-0.00064331,-0.00007310,0.00023369,0.00035538,-0.00036439,0.0000
 3621,-0.00006357,-0.00008054,-0.00003420,-0.00012700,0.00029952,0.0000
 7218,-0.08621443,-0.03039579,-0.08424134,-0.00469864,-0.00098068,-0.00
 320062,-0.02395599,-0.00983214,-0.00897109,0.09334803,0.03357656,0.088
 17789,-0.17778182,-0.09176370,0.01637906,0.02479420,0.01113111,0.01758
 221,-0.00243364,0.00895775,-0.01876396,-0.00007454,-0.00117077,0.00104
 941,0.00558273,-0.00038210,0.00375274,-0.01081557,-0.01260022,-0.00775
 879,0.00152020,-0.00189448,-0.00079554,0.00073459,0.00140466,0.0000650
 7,0.00201879,-0.00029664,-0.00057236,-0.04534261,-0.01658267,-0.013577
 08,0.00274363,0.00019763,-0.00161420,0.00249545,-0.00008076,-0.0010060
 1,-0.00658417,0.00107055,0.00629361,0.20280579,-0.03669104,-0.09309372
 ,-0.00150114,-0.03359765,0.00340258,-0.04387422,-0.00163787,-0.0018206
 3,0.00395288,0.00537106,0.00171727,0.00476508,-0.00032214,-0.00041752,
 0.00099383,-0.04108520,-0.01666841,-0.01989377,0.00079947,-0.00904898,
 -0.00106565,-0.00051471,0.00207193,0.00140021,-0.00035682,0.00321998,0
 .00064116,-0.00593008,0.00438498,0.00067148,-0.00055143,0.00138954,0.0
 0119400,0.00023732,-0.00045617,-0.00036768,0.00107521,0.00144058,0.000
 33920,0.13630405,0.10362464,-0.04871465,-0.04687791,-0.04278710,0.0690
 6628,-0.00115233,0.05615610,0.00496983,-0.00003292,-0.00006201,0.00000
 327,0.00016967,0.00055135,-0.00458576,-0.00071665,-0.00191264,-0.01371
 080,-0.00742925,-0.00070907,-0.00099897,-0.00336877,-0.00042059,0.0011
 1839,0.00087032,-0.00038381,0.00012069,0.00173015,0.00072870,0.0160237
 9,0.00539843,0.01183690,-0.00066838,0.00121267,0.00168788,-0.00030867,
 0.00147050,0.00059320,0.00296466,-0.00028085,-0.00259546,-0.06859093,0
 .08143948,-0.09991334,0.00246732,0.01576287,-0.01851250,-0.02589610,0.
 00346104,-0.02835233,-0.41689569,0.07951934,0.19481276,-0.00027856,-0.
 00026669,-0.00044077,-0.00043560,0.00037112,-0.00045333,0.00080485,-0.
 00085662,0.00132036,0.00018926,0.00074776,-0.00018286,-0.00057550,-0.0
 0020816,-0.00073825,-0.00016933,0.00003574,-0.00045247,-0.00000185,0.0
 0047026,0.00098807,-0.00034135,0.00015558,-0.00019503,-0.00063477,0.00
 018356,-0.00039719,0.00083661,0.00015534,-0.00040070,0.00033698,-0.023
 10018,0.04331127,0.44059374,-0.00314141,-0.00212020,0.00059831,0.02579
 074,-0.00255692,0.02859652,0.08829366,-0.02002075,-0.03218758,0.000080
 44,0.00077067,-0.00009218,0.00052476,-0.00016501,0.00003737,-0.0014496
 2,-0.00145398,-0.00050475,-0.00060613,0.00057074,-0.00093085,0.0006064
 2,0.00168072,-0.00131032,0.00027806,-0.00009566,0.00031794,0.00047317,
 -0.00038466,-0.00006255,0.00006810,0.00015450,0.00015985,0.00029541,0.
 00010766,-0.00027522,-0.00048821,-0.00007643,-0.00001492,-0.03429440,0
 .00025393,-0.03243255,-0.07643098,0.02333539,0.00377262,0.01148865,-0.
 01493928,-0.05128916,0.00621223,-0.05635402,0.16977138,-0.02638642,-0.
 10041816,-0.00006414,-0.00031864,-0.00083464,-0.00147539,-0.00029685,0
 .00026033,0.00145402,-0.00051702,-0.00018593,0.00056866,0.00144556,0.0
 0030400,-0.00043950,-0.00052445,-0.00077077,-0.00036562,-0.00009168,-0
 .00010435,0.00152237,-0.00017427,0.00231072,-0.00038081,-0.00001464,-0
 .00036379,-0.00138307,-0.00032565,0.00068686,0.00105889,0.00009712,-0.
 00009642,0.06755677,-0.02869486,0.07722989,-0.19030704,0.03810093,0.09
 327557\\-0.00002389,0.00000963,-0.00003726,-0.00002243,-0.00001353,-0.
 00000922,-0.00000363,0.00000500,-0.00001255,-0.00000294,-0.00000555,0.
 00000123,0.00001058,0.00000289,0.00000847,0.00000432,0.00000172,-0.000
 00985,-0.00000108,-0.00000085,0.00000540,0.00000190,-0.00000014,0.0000
 0335,-0.00000232,-0.00000302,0.00000223,0.00000396,0.00000521,0.000003
 84,-0.00000212,0.00000135,0.00000001,0.00000005,0.00000150,0.00000090,
 0.00000273,0.00000044,-0.00000007,0.00003759,-0.00000170,0.00002158,-0
 .00000271,-0.00000297,0.00002193\\\@


 ERWIN WITH HIS PSI CAN DO
 CALCULATIONS QUITE A FEW.
 BUT ONE THING HAS NOT BEEN SEEN
 JUST WHAT DOES PSI REALLY MEAN.
 -- WALTER HUCKEL, TRANS. BY FELIX BLOCH
 Job cpu time:       0 days  0 hours  0 minutes 35.0 seconds.
 Elapsed time:       0 days  0 hours  4 minutes 29.2 seconds.
 File lengths (MBytes):  RWF=    221 Int=      0 D2E=      0 Chk=     11 Scr=      1
 Normal termination of Gaussian 16 at Sat Apr  2 22:56:23 2022.
