 Entering Gaussian System, Link 0=g16
 Initial command:
 /apps/chpc/chem/gaussian16/B01/g16/l1.exe "/mnt/lustre/users/cvanstaden/4105906.sched01/Gau-115564.inp" -scrdir="/mnt/lustre/users/cvanstaden/4105906.sched01/"
 Entering Link 1 = /apps/chpc/chem/gaussian16/B01/g16/l1.exe PID=    115566.
  
 Copyright (c) 1988-2017, Gaussian, Inc.  All Rights Reserved.
  
 This is part of the Gaussian(R) 16 program.  It is based on
 the Gaussian(R) 09 system (copyright 2009, Gaussian, Inc.),
 the Gaussian(R) 03 system (copyright 2003, Gaussian, Inc.),
 the Gaussian(R) 98 system (copyright 1998, Gaussian, Inc.),
 the Gaussian(R) 94 system (copyright 1995, Gaussian, Inc.),
 the Gaussian 92(TM) system (copyright 1992, Gaussian, Inc.),
 the Gaussian 90(TM) system (copyright 1990, Gaussian, Inc.),
 the Gaussian 88(TM) system (copyright 1988, Gaussian, Inc.),
 the Gaussian 86(TM) system (copyright 1986, Carnegie Mellon
 University), and the Gaussian 82(TM) system (copyright 1983,
 Carnegie Mellon University). Gaussian is a federally registered
 trademark of Gaussian, Inc.
  
 This software contains proprietary and confidential information,
 including trade secrets, belonging to Gaussian, Inc.
  
 This software is provided under written license and may be
 used, copied, transmitted, or stored only in accord with that
 written license.
  
 The following legend is applicable only to US Government
 contracts under FAR:
  
                    RESTRICTED RIGHTS LEGEND
  
 Use, reproduction and disclosure by the US Government is
 subject to restrictions as set forth in subparagraphs (a)
 and (c) of the Commercial Computer Software - Restricted
 Rights clause in FAR 52.227-19.
  
 Gaussian, Inc.
 340 Quinnipiac St., Bldg. 40, Wallingford CT 06492
  
  
 ---------------------------------------------------------------
 Warning -- This program may not be used in any manner that
 competes with the business of Gaussian, Inc. or will provide
 assistance to any competitor of Gaussian, Inc.  The licensee
 of this program is prohibited from giving any competitor of
 Gaussian, Inc. access to this program.  By using this program,
 the user acknowledges that Gaussian, Inc. is engaged in the
 business of creating and licensing software in the field of
 computational chemistry and represents and warrants to the
 licensee that it is not a competitor of Gaussian, Inc. and that
 it will not use this program in any manner prohibited above.
 ---------------------------------------------------------------
  

 Cite this work as:
 Gaussian 16, Revision B.01,
 M. J. Frisch, G. W. Trucks, H. B. Schlegel, G. E. Scuseria, 
 M. A. Robb, J. R. Cheeseman, G. Scalmani, V. Barone, 
 G. A. Petersson, H. Nakatsuji, X. Li, M. Caricato, A. V. Marenich, 
 J. Bloino, B. G. Janesko, R. Gomperts, B. Mennucci, H. P. Hratchian, 
 J. V. Ortiz, A. F. Izmaylov, J. L. Sonnenberg, D. Williams-Young, 
 F. Ding, F. Lipparini, F. Egidi, J. Goings, B. Peng, A. Petrone, 
 T. Henderson, D. Ranasinghe, V. G. Zakrzewski, J. Gao, N. Rega, 
 G. Zheng, W. Liang, M. Hada, M. Ehara, K. Toyota, R. Fukuda, 
 J. Hasegawa, M. Ishida, T. Nakajima, Y. Honda, O. Kitao, H. Nakai, 
 T. Vreven, K. Throssell, J. A. Montgomery, Jr., J. E. Peralta, 
 F. Ogliaro, M. J. Bearpark, J. J. Heyd, E. N. Brothers, K. N. Kudin, 
 V. N. Staroverov, T. A. Keith, R. Kobayashi, J. Normand, 
 K. Raghavachari, A. P. Rendell, J. C. Burant, S. S. Iyengar, 
 J. Tomasi, M. Cossi, J. M. Millam, M. Klene, C. Adamo, R. Cammi, 
 J. W. Ochterski, R. L. Martin, K. Morokuma, O. Farkas, 
 J. B. Foresman, and D. J. Fox, Gaussian, Inc., Wallingford CT, 2016.
 
 ******************************************
 Gaussian 16:  ES64L-G16RevB.01 20-Dec-2017
                 2-Apr-2022 
 ******************************************
 %nprocshared=24
 Will use up to   24 processors via shared memory.
 %lindaworkers=cnode0690.cm.cluster,cnode0692.cm.cluster
 %mem=20GB
 %chk=QOOHtertb-OOH-Elim-TS4-b3lyp-c.chk
 SetLPE:    new flags="-opt 'Tsnet.Node.lindarsharg: ssh'  -nodelist 'cnode0690.cm.cluster cnode0692.cm.cluster' -env GAUSS_MDEF=2684354560 -env GAUSS_EXEDIR="/apps/chpc/chem/gaussian16/B01/g16/bsd:/apps/chpc/chem/gaussian16/B01/g16""
 Will use up to    2 processors via Linda.
 ---------------------------------------------------
 # opt=(calcfc,ts,noeigentest) freq ub3lyp cc-pvtz+d
 ---------------------------------------------------
 1/5=1,10=4,11=1,18=20,26=3,38=1/1,3;
 2/9=110,12=2,17=6,18=5,40=1/2;
 3/5=16,6=1,7=9,11=2,25=1,30=1,71=2,74=-5,116=2,140=1/1,2,3;
 4//1;
 5/5=2,38=5/2;
 8/6=4,10=90,11=11/1;
 11/6=1,8=1,9=11,15=111,16=1/1,2,10;
 10/6=1,13=1/2;
 6/7=2,8=2,9=2,10=2,28=1/1;
 7/10=1,18=20,25=1/1,2,3,16;
 1/5=1,10=4,11=1,18=20,26=3/3(2);
 2/9=110/2;
 99//99;
 2/9=110/2;
 3/5=16,6=1,7=9,11=2,25=1,30=1,71=1,74=-5,116=2/1,2,3;
 4/5=5,16=3,69=1/1;
 5/5=2,38=5/2;
 7//1,2,3,16;
 1/5=1,11=1,18=20,26=3/3(-5);
 2/9=110/2;
 6/7=2,8=2,9=2,10=2,19=2,28=1/1;
 99/9=1/99;
 ------------------------------
 QOOHtertb-OOH-Elim-TS4-b3lyp-c
 ------------------------------
 Symbolic Z-matrix:
 Charge =  0 Multiplicity = 2
 C                     0.68972   0.11488   0.16223 
 C                     0.64692  -0.16486   1.50819 
 H                    -2.20933   0.58807  -0.66199 
 H                     1.00546  -1.10989   1.89048 
 H                     0.14385   0.49475   2.20128 
 C                     0.39618   1.51078  -0.32005 
 H                     1.30281   2.11951  -0.27894 
 H                     0.05711   1.50469  -1.35695 
 H                    -0.35614   1.99646   0.30057 
 C                     1.54351  -0.72961  -0.74609 
 H                     1.63313  -1.74738  -0.37013 
 H                     1.12185  -0.767    -1.74994 
 H                     2.54705  -0.30262  -0.81839 
 O                    -0.97563  -0.78423  -0.35297 
 O                    -2.13734  -0.11124   0.00526 
 
 Add virtual bond connecting atoms O14        and C1         Dist= 3.71D+00.

 GradGradGradGradGradGradGradGradGradGradGradGradGradGradGradGradGradGrad
 Berny optimization.
 Initialization pass.
                           ----------------------------
                           !    Initial Parameters    !
                           ! (Angstroms and Degrees)  !
 --------------------------                            --------------------------
 ! Name  Definition              Value          Derivative Info.                !
 --------------------------------------------------------------------------------
 ! R1    R(1,2)                  1.3754         calculate D2E/DX2 analytically  !
 ! R2    R(1,6)                  1.5058         calculate D2E/DX2 analytically  !
 ! R3    R(1,10)                 1.5057         calculate D2E/DX2 analytically  !
 ! R4    R(1,14)                 1.9614         calculate D2E/DX2 analytically  !
 ! R5    R(2,4)                  1.0806         calculate D2E/DX2 analytically  !
 ! R6    R(2,5)                  1.081          calculate D2E/DX2 analytically  !
 ! R7    R(3,15)                 0.9692         calculate D2E/DX2 analytically  !
 ! R8    R(6,7)                  1.0928         calculate D2E/DX2 analytically  !
 ! R9    R(6,8)                  1.0909         calculate D2E/DX2 analytically  !
 ! R10   R(6,9)                  1.0895         calculate D2E/DX2 analytically  !
 ! R11   R(10,11)                1.0887         calculate D2E/DX2 analytically  !
 ! R12   R(10,12)                1.0895         calculate D2E/DX2 analytically  !
 ! R13   R(10,13)                1.093          calculate D2E/DX2 analytically  !
 ! R14   R(14,15)                1.3895         calculate D2E/DX2 analytically  !
 ! A1    A(2,1,6)              119.7306         calculate D2E/DX2 analytically  !
 ! A2    A(2,1,10)             119.5979         calculate D2E/DX2 analytically  !
 ! A3    A(2,1,14)              97.8968         calculate D2E/DX2 analytically  !
 ! A4    A(6,1,10)             115.9299         calculate D2E/DX2 analytically  !
 ! A5    A(6,1,14)             100.0962         calculate D2E/DX2 analytically  !
 ! A6    A(10,1,14)             93.7782         calculate D2E/DX2 analytically  !
 ! A7    A(1,2,4)              120.9129         calculate D2E/DX2 analytically  !
 ! A8    A(1,2,5)              121.1856         calculate D2E/DX2 analytically  !
 ! A9    A(4,2,5)              117.4654         calculate D2E/DX2 analytically  !
 ! A10   A(1,6,7)              110.0356         calculate D2E/DX2 analytically  !
 ! A11   A(1,6,8)              111.0901         calculate D2E/DX2 analytically  !
 ! A12   A(1,6,9)              111.4338         calculate D2E/DX2 analytically  !
 ! A13   A(7,6,8)              107.2608         calculate D2E/DX2 analytically  !
 ! A14   A(7,6,9)              107.6457         calculate D2E/DX2 analytically  !
 ! A15   A(8,6,9)              109.2254         calculate D2E/DX2 analytically  !
 ! A16   A(1,10,11)            111.2651         calculate D2E/DX2 analytically  !
 ! A17   A(1,10,12)            110.8318         calculate D2E/DX2 analytically  !
 ! A18   A(1,10,13)            109.9635         calculate D2E/DX2 analytically  !
 ! A19   A(11,10,12)           108.5409         calculate D2E/DX2 analytically  !
 ! A20   A(11,10,13)           108.2088         calculate D2E/DX2 analytically  !
 ! A21   A(12,10,13)           107.9276         calculate D2E/DX2 analytically  !
 ! A22   A(1,14,15)            114.8416         calculate D2E/DX2 analytically  !
 ! A23   A(3,15,14)            103.5358         calculate D2E/DX2 analytically  !
 ! D1    D(6,1,2,4)           -170.1022         calculate D2E/DX2 analytically  !
 ! D2    D(6,1,2,5)             17.6684         calculate D2E/DX2 analytically  !
 ! D3    D(10,1,2,4)           -15.4768         calculate D2E/DX2 analytically  !
 ! D4    D(10,1,2,5)           172.2939         calculate D2E/DX2 analytically  !
 ! D5    D(14,1,2,4)            83.4572         calculate D2E/DX2 analytically  !
 ! D6    D(14,1,2,5)           -88.7722         calculate D2E/DX2 analytically  !
 ! D7    D(2,1,6,7)             85.2463         calculate D2E/DX2 analytically  !
 ! D8    D(2,1,6,8)           -156.1234         calculate D2E/DX2 analytically  !
 ! D9    D(2,1,6,9)            -34.0807         calculate D2E/DX2 analytically  !
 ! D10   D(10,1,6,7)           -70.2768         calculate D2E/DX2 analytically  !
 ! D11   D(10,1,6,8)            48.3535         calculate D2E/DX2 analytically  !
 ! D12   D(10,1,6,9)           170.3962         calculate D2E/DX2 analytically  !
 ! D13   D(14,1,6,7)          -169.5416         calculate D2E/DX2 analytically  !
 ! D14   D(14,1,6,8)           -50.9113         calculate D2E/DX2 analytically  !
 ! D15   D(14,1,6,9)            71.1314         calculate D2E/DX2 analytically  !
 ! D16   D(2,1,10,11)           29.5856         calculate D2E/DX2 analytically  !
 ! D17   D(2,1,10,12)          150.4604         calculate D2E/DX2 analytically  !
 ! D18   D(2,1,10,13)          -90.2899         calculate D2E/DX2 analytically  !
 ! D19   D(6,1,10,11)         -174.8569         calculate D2E/DX2 analytically  !
 ! D20   D(6,1,10,12)          -53.9821         calculate D2E/DX2 analytically  !
 ! D21   D(6,1,10,13)           65.2676         calculate D2E/DX2 analytically  !
 ! D22   D(14,1,10,11)         -71.7095         calculate D2E/DX2 analytically  !
 ! D23   D(14,1,10,12)          49.1653         calculate D2E/DX2 analytically  !
 ! D24   D(14,1,10,13)         168.415          calculate D2E/DX2 analytically  !
 ! D25   D(2,1,14,15)           74.6781         calculate D2E/DX2 analytically  !
 ! D26   D(6,1,14,15)          -47.5467         calculate D2E/DX2 analytically  !
 ! D27   D(10,1,14,15)        -164.7324         calculate D2E/DX2 analytically  !
 ! D28   D(1,14,15,3)           77.8846         calculate D2E/DX2 analytically  !
 --------------------------------------------------------------------------------
 Trust Radius=3.00D-01 FncErr=1.00D-07 GrdErr=1.00D-06 EigMax=2.50D+02 EigMin=1.00D-04
 Number of steps in this run=     75 maximum allowed number of steps=    100.
 Search for a saddle point of order  1.
 GradGradGradGradGradGradGradGradGradGradGradGradGradGradGradGradGradGrad

                          Input orientation:                          
 ---------------------------------------------------------------------
 Center     Atomic      Atomic             Coordinates (Angstroms)
 Number     Number       Type             X           Y           Z
 ---------------------------------------------------------------------
      1          6           0        0.689723    0.114882    0.162227
      2          6           0        0.646923   -0.164862    1.508192
      3          1           0       -2.209334    0.588067   -0.661989
      4          1           0        1.005459   -1.109890    1.890476
      5          1           0        0.143848    0.494750    2.201276
      6          6           0        0.396178    1.510781   -0.320049
      7          1           0        1.302810    2.119505   -0.278937
      8          1           0        0.057107    1.504690   -1.356950
      9          1           0       -0.356138    1.996464    0.300568
     10          6           0        1.543513   -0.729612   -0.746089
     11          1           0        1.633134   -1.747375   -0.370130
     12          1           0        1.121848   -0.766997   -1.749939
     13          1           0        2.547048   -0.302616   -0.818393
     14          8           0       -0.975631   -0.784228   -0.352971
     15          8           0       -2.137344   -0.111239    0.005263
 ---------------------------------------------------------------------
                    Distance matrix (angstroms):
                    1          2          3          4          5
     1  C    0.000000
     2  C    1.375395   0.000000
     3  H    3.050863   3.665350   0.000000
     4  H    2.141635   1.080633   4.442187   0.000000
     5  H    2.144761   1.080989   3.707352   1.847658   0.000000
     6  C    1.505753   2.492613   2.785142   3.482178   2.730031
     7  H    2.142199   2.973609   3.850609   3.901764   3.183470
     8  H    2.153989   3.368134   2.541638   4.275649   3.699794
     9  H    2.157154   2.671295   2.518816   3.745823   2.473423
    10  C    1.505711   2.490903   3.978343   2.717644   3.484980
    11  H    2.154398   2.646706   4.505999   2.431194   3.722530
    12  H    2.149610   3.347169   3.757207   3.658380   4.261524
    13  H    2.141396   3.007067   4.841585   3.219652   3.940757
    14  O    1.961436   2.545628   1.871018   3.010619   3.068093
    15  O    2.840436   3.164461   0.969245   3.798492   3.223900
                    6          7          8          9         10
     6  C    0.000000
     7  H    1.092802   0.000000
     8  H    1.090949   1.758376   0.000000
     9  H    1.089510   1.761554   1.777633   0.000000
    10  C    2.552890   2.897177   2.752210   3.483627   0.000000
    11  H    3.485419   3.882034   3.746145   4.292245   1.088677
    12  H    2.785580   3.244763   2.539424   3.745095   1.089456
    13  H    2.857096   2.775934   3.123492   3.868634   1.092994
    14  O    2.673950   3.691672   2.704379   2.922864   2.550218
    15  O    3.025807   4.109945   3.046714   2.775304   3.807312
                   11         12         13         14         15
    11  H    0.000000
    12  H    1.768171   0.000000
    13  H    1.767345   1.764829   0.000000
    14  O    2.780935   2.520166   3.585782   0.000000
    15  O    4.127271   3.759400   4.760101   1.389541   0.000000
 Stoichiometry    C4H9O2(2)
 Framework group  C1[X(C4H9O2)]
 Deg. of freedom    39
 Full point group                 C1      NOp   1
 Largest Abelian subgroup         C1      NOp   1
 Largest concise Abelian subgroup C1      NOp   1
                         Standard orientation:                         
 ---------------------------------------------------------------------
 Center     Atomic      Atomic             Coordinates (Angstroms)
 Number     Number       Type             X           Y           Z
 ---------------------------------------------------------------------
      1          6           0        0.689723    0.114882    0.162227
      2          6           0        0.646923   -0.164862    1.508192
      3          1           0       -2.209334    0.588067   -0.661989
      4          1           0        1.005459   -1.109890    1.890476
      5          1           0        0.143848    0.494750    2.201276
      6          6           0        0.396178    1.510781   -0.320049
      7          1           0        1.302810    2.119505   -0.278937
      8          1           0        0.057107    1.504690   -1.356950
      9          1           0       -0.356138    1.996464    0.300568
     10          6           0        1.543513   -0.729612   -0.746089
     11          1           0        1.633134   -1.747375   -0.370130
     12          1           0        1.121848   -0.766997   -1.749939
     13          1           0        2.547048   -0.302616   -0.818393
     14          8           0       -0.975631   -0.784228   -0.352971
     15          8           0       -2.137344   -0.111239    0.005263
 ---------------------------------------------------------------------
 Rotational constants (GHZ):           4.4828542           2.5278524           2.4260976
 Standard basis: CC-pVTZ+d (5D, 7F)
 There are   345 symmetry adapted cartesian basis functions of A   symmetry.
 There are   306 symmetry adapted basis functions of A   symmetry.
   306 basis functions,   465 primitive gaussians,   345 cartesian basis functions
    25 alpha electrons       24 beta electrons
       nuclear repulsion energy       250.4985550688 Hartrees.
 NAtoms=   15 NActive=   15 NUniq=   15 SFac= 1.00D+00 NAtFMM=   60 NAOKFM=F Big=F
 Integral buffers will be    131072 words long.
 Raffenetti 2 integral format.
 Two-electron integral symmetry is turned on.
 One-electron integrals computed using PRISM.
 NBasis=   306 RedAO= T EigKep=  4.22D-04  NBF=   306
 NBsUse=   306 1.00D-06 EigRej= -1.00D+00 NBFU=   306
 ExpMin= 1.03D-01 ExpMax= 1.53D+04 ExpMxC= 5.22D+02 IAcc=3 IRadAn=         5 AccDes= 0.00D+00
 Harris functional with IExCor=  402 and IRadAn=       5 diagonalized for initial guess.
 HarFok:  IExCor=  402 AccDes= 0.00D+00 IRadAn=         5 IDoV= 1 UseB2=F ITyADJ=14
 ICtDFT=  3500011 ScaDFX=  1.000000  1.000000  1.000000  1.000000
 FoFCou: FMM=F IPFlag=           0 FMFlag=      100000 FMFlg1=           0
         NFxFlg=           0 DoJE=T BraDBF=F KetDBF=T FulRan=T
         wScrn=  0.000000 ICntrl=       500 IOpCl=  0 I1Cent=   200000004 NGrid=           0
         NMat0=    1 NMatS0=      1 NMatT0=    0 NMatD0=    1 NMtDS0=    0 NMtDT0=    0
 Petite list used in FoFCou.
 Initial guess <Sx>= 0.0000 <Sy>= 0.0000 <Sz>= 0.5000 <S**2>= 0.7500 S= 0.5000
 Requested convergence on RMS density matrix=1.00D-08 within 128 cycles.
 Requested convergence on MAX density matrix=1.00D-06.
 Requested convergence on             energy=1.00D-06.
 No special actions if energy rises.
 Integral accuracy reduced to 1.0D-05 until final iterations.
 Initial convergence to 1.0D-05 achieved.  Increase integral accuracy.
 SCF Done:  E(UB3LYP) =  -308.238925797     A.U. after   19 cycles
            NFock= 19  Conv=0.34D-08     -V/T= 2.0063
 <Sx>= 0.0000 <Sy>= 0.0000 <Sz>= 0.5000 <S**2>= 0.7800 S= 0.5149
 <L.S>= 0.000000000000E+00
 Annihilation of the first spin contaminant:
 S**2 before annihilation     0.7800,   after     0.7502
 DoSCS=F DFT=T ScalE2(SS,OS)=  1.000000  1.000000
 Range of M.O.s used for correlation:     1   306
 NBasis=   306 NAE=    25 NBE=    24 NFC=     0 NFV=     0
 NROrb=    306 NOA=    25 NOB=    24 NVA=   281 NVB=   282

 **** Warning!!: The largest alpha MO coefficient is  0.10975608D+02


 **** Warning!!: The largest beta MO coefficient is  0.11046956D+02

 Symmetrizing basis deriv contribution to polar:
 IMax=3 JMax=2 DiffMx= 0.00D+00
 G2DrvN: will do    16 centers at a time, making    1 passes.
 Calling FoFCou, ICntrl=  3107 FMM=F I1Cent=   0 AccDes= 0.00D+00.
 End of G2Drv F.D. properties file   721 does not exist.
 End of G2Drv F.D. properties file   722 does not exist.
 End of G2Drv F.D. properties file   788 does not exist.
          IDoAtm=111111111111111
          Differentiating once with respect to nuclear coordinates.
 Keep R1 and R2 ints in memory in canonical form, NReq=2234005247.
          There are    48 degrees of freedom in the 1st order CPHF.  IDoFFX=6 NUNeed=     0.
     42 vectors produced by pass  0 Test12= 2.87D-14 2.08D-09 XBig12= 3.43D-01 2.83D-01.
 AX will form    42 AO Fock derivatives at one time.
     42 vectors produced by pass  1 Test12= 2.87D-14 2.08D-09 XBig12= 6.12D-02 7.24D-02.
     42 vectors produced by pass  2 Test12= 2.87D-14 2.08D-09 XBig12= 1.77D-03 6.82D-03.
     42 vectors produced by pass  3 Test12= 2.87D-14 2.08D-09 XBig12= 1.81D-05 6.20D-04.
     42 vectors produced by pass  4 Test12= 2.87D-14 2.08D-09 XBig12= 2.22D-07 5.97D-05.
     42 vectors produced by pass  5 Test12= 2.87D-14 2.08D-09 XBig12= 1.05D-09 3.90D-06.
     29 vectors produced by pass  6 Test12= 2.87D-14 2.08D-09 XBig12= 4.57D-12 2.30D-07.
      6 vectors produced by pass  7 Test12= 2.87D-14 2.08D-09 XBig12= 1.77D-14 1.09D-08.
 InvSVY:  IOpt=1 It=  1 EMax= 2.33D-15
 Solved reduced A of dimension   287 with    42 vectors.
 End of Minotr F.D. properties file   721 does not exist.
 End of Minotr F.D. properties file   722 does not exist.
 End of Minotr F.D. properties file   788 does not exist.

 **********************************************************************

            Population analysis using the SCF Density.

 **********************************************************************

 Orbital symmetries:
 Alpha Orbitals:
       Occupied  (A) (A) (A) (A) (A) (A) (A) (A) (A) (A) (A) (A)
                 (A) (A) (A) (A) (A) (A) (A) (A) (A) (A) (A) (A)
                 (A)
       Virtual   (A) (A) (A) (A) (A) (A) (A) (A) (A) (A) (A) (A)
                 (A) (A) (A) (A) (A) (A) (A) (A) (A) (A) (A) (A)
                 (A) (A) (A) (A) (A) (A) (A) (A) (A) (A) (A) (A)
                 (A) (A) (A) (A) (A) (A) (A) (A) (A) (A) (A) (A)
                 (A) (A) (A) (A) (A) (A) (A) (A) (A) (A) (A) (A)
                 (A) (A) (A) (A) (A) (A) (A) (A) (A) (A) (A) (A)
                 (A) (A) (A) (A) (A) (A) (A) (A) (A) (A) (A) (A)
                 (A) (A) (A) (A) (A) (A) (A) (A) (A) (A) (A) (A)
                 (A) (A) (A) (A) (A) (A) (A) (A) (A) (A) (A) (A)
                 (A) (A) (A) (A) (A) (A) (A) (A) (A) (A) (A) (A)
                 (A) (A) (A) (A) (A) (A) (A) (A) (A) (A) (A) (A)
                 (A) (A) (A) (A) (A) (A) (A) (A) (A) (A) (A) (A)
                 (A) (A) (A) (A) (A) (A) (A) (A) (A) (A) (A) (A)
                 (A) (A) (A) (A) (A) (A) (A) (A) (A) (A) (A) (A)
                 (A) (A) (A) (A) (A) (A) (A) (A) (A) (A) (A) (A)
                 (A) (A) (A) (A) (A) (A) (A) (A) (A) (A) (A) (A)
                 (A) (A) (A) (A) (A) (A) (A) (A) (A) (A) (A) (A)
                 (A) (A) (A) (A) (A) (A) (A) (A) (A) (A) (A) (A)
                 (A) (A) (A) (A) (A) (A) (A) (A) (A) (A) (A) (A)
                 (A) (A) (A) (A) (A) (A) (A) (A) (A) (A) (A) (A)
                 (A) (A) (A) (A) (A) (A) (A) (A) (A) (A) (A) (A)
                 (A) (A) (A) (A) (A) (A) (A) (A) (A) (A) (A) (A)
                 (A) (A) (A) (A) (A) (A) (A) (A) (A) (A) (A) (A)
                 (A) (A) (A) (A) (A)
 Beta  Orbitals:
       Occupied  (A) (A) (A) (A) (A) (A) (A) (A) (A) (A) (A) (A)
                 (A) (A) (A) (A) (A) (A) (A) (A) (A) (A) (A) (A)
       Virtual   (A) (A) (A) (A) (A) (A) (A) (A) (A) (A) (A) (A)
                 (A) (A) (A) (A) (A) (A) (A) (A) (A) (A) (A) (A)
                 (A) (A) (A) (A) (A) (A) (A) (A) (A) (A) (A) (A)
                 (A) (A) (A) (A) (A) (A) (A) (A) (A) (A) (A) (A)
                 (A) (A) (A) (A) (A) (A) (A) (A) (A) (A) (A) (A)
                 (A) (A) (A) (A) (A) (A) (A) (A) (A) (A) (A) (A)
                 (A) (A) (A) (A) (A) (A) (A) (A) (A) (A) (A) (A)
                 (A) (A) (A) (A) (A) (A) (A) (A) (A) (A) (A) (A)
                 (A) (A) (A) (A) (A) (A) (A) (A) (A) (A) (A) (A)
                 (A) (A) (A) (A) (A) (A) (A) (A) (A) (A) (A) (A)
                 (A) (A) (A) (A) (A) (A) (A) (A) (A) (A) (A) (A)
                 (A) (A) (A) (A) (A) (A) (A) (A) (A) (A) (A) (A)
                 (A) (A) (A) (A) (A) (A) (A) (A) (A) (A) (A) (A)
                 (A) (A) (A) (A) (A) (A) (A) (A) (A) (A) (A) (A)
                 (A) (A) (A) (A) (A) (A) (A) (A) (A) (A) (A) (A)
                 (A) (A) (A) (A) (A) (A) (A) (A) (A) (A) (A) (A)
                 (A) (A) (A) (A) (A) (A) (A) (A) (A) (A) (A) (A)
                 (A) (A) (A) (A) (A) (A) (A) (A) (A) (A) (A) (A)
                 (A) (A) (A) (A) (A) (A) (A) (A) (A) (A) (A) (A)
                 (A) (A) (A) (A) (A) (A) (A) (A) (A) (A) (A) (A)
                 (A) (A) (A) (A) (A) (A) (A) (A) (A) (A) (A) (A)
                 (A) (A) (A) (A) (A) (A) (A) (A) (A) (A) (A) (A)
                 (A) (A) (A) (A) (A) (A) (A) (A) (A) (A) (A) (A)
                 (A) (A) (A) (A) (A) (A)
 The electronic state is 2-A.
 Alpha  occ. eigenvalues --  -19.19052 -19.17636 -10.21933 -10.17841 -10.17818
 Alpha  occ. eigenvalues --  -10.17105  -1.12353  -0.86085  -0.81034  -0.70654
 Alpha  occ. eigenvalues --   -0.69689  -0.54812  -0.52117  -0.46855  -0.46269
 Alpha  occ. eigenvalues --   -0.45686  -0.43479  -0.41004  -0.39430  -0.38523
 Alpha  occ. eigenvalues --   -0.37635  -0.35587  -0.29194  -0.27551  -0.22419
 Alpha virt. eigenvalues --    0.00364   0.02469   0.04719   0.07719   0.08752
 Alpha virt. eigenvalues --    0.09266   0.09555   0.10688   0.11411   0.13802
 Alpha virt. eigenvalues --    0.14536   0.15314   0.20977   0.21311   0.26264
 Alpha virt. eigenvalues --    0.27558   0.28465   0.30814   0.32202   0.34413
 Alpha virt. eigenvalues --    0.34813   0.36740   0.38492   0.39585   0.43493
 Alpha virt. eigenvalues --    0.44560   0.45549   0.46116   0.46237   0.46537
 Alpha virt. eigenvalues --    0.46932   0.48695   0.49335   0.50020   0.53162
 Alpha virt. eigenvalues --    0.53638   0.54697   0.59214   0.60312   0.61935
 Alpha virt. eigenvalues --    0.63677   0.66245   0.71148   0.72116   0.74128
 Alpha virt. eigenvalues --    0.75568   0.76671   0.78294   0.78724   0.83494
 Alpha virt. eigenvalues --    0.85708   0.87537   0.89015   0.91576   0.92330
 Alpha virt. eigenvalues --    0.93513   0.95984   0.96308   0.97258   0.99559
 Alpha virt. eigenvalues --    1.03460   1.05102   1.06097   1.09485   1.12007
 Alpha virt. eigenvalues --    1.13750   1.15246   1.16425   1.18068   1.18968
 Alpha virt. eigenvalues --    1.20814   1.23838   1.24205   1.25450   1.26809
 Alpha virt. eigenvalues --    1.28498   1.30022   1.30875   1.32457   1.34195
 Alpha virt. eigenvalues --    1.35585   1.39619   1.40981   1.43248   1.45983
 Alpha virt. eigenvalues --    1.47194   1.48990   1.49918   1.50705   1.51668
 Alpha virt. eigenvalues --    1.53824   1.58115   1.61558   1.64599   1.71091
 Alpha virt. eigenvalues --    1.72308   1.76181   1.82430   1.86259   1.89556
 Alpha virt. eigenvalues --    1.95798   2.06015   2.11861   2.16457   2.17358
 Alpha virt. eigenvalues --    2.18369   2.23305   2.28009   2.32877   2.33992
 Alpha virt. eigenvalues --    2.38959   2.42320   2.44780   2.48757   2.50489
 Alpha virt. eigenvalues --    2.52621   2.56891   2.57824   2.59539   2.62472
 Alpha virt. eigenvalues --    2.63770   2.67583   2.70556   2.75972   2.77447
 Alpha virt. eigenvalues --    2.78980   2.79925   2.82089   2.83232   2.84469
 Alpha virt. eigenvalues --    2.88429   2.89113   2.90769   2.91562   2.92773
 Alpha virt. eigenvalues --    2.93872   2.98258   3.00034   3.02329   3.02501
 Alpha virt. eigenvalues --    3.03661   3.06847   3.07051   3.09107   3.11357
 Alpha virt. eigenvalues --    3.12251   3.13389   3.17652   3.20253   3.20401
 Alpha virt. eigenvalues --    3.22322   3.25536   3.27546   3.29535   3.32256
 Alpha virt. eigenvalues --    3.32716   3.35238   3.38414   3.39466   3.41205
 Alpha virt. eigenvalues --    3.42323   3.43244   3.44695   3.46370   3.48857
 Alpha virt. eigenvalues --    3.49548   3.51385   3.55184   3.57387   3.57996
 Alpha virt. eigenvalues --    3.61941   3.63912   3.65391   3.66754   3.69507
 Alpha virt. eigenvalues --    3.70209   3.70789   3.73026   3.76648   3.77753
 Alpha virt. eigenvalues --    3.81490   3.81870   3.83958   3.84526   3.88047
 Alpha virt. eigenvalues --    3.90352   3.92780   3.94612   3.95854   3.99217
 Alpha virt. eigenvalues --    3.99759   4.00346   4.01213   4.03686   4.06340
 Alpha virt. eigenvalues --    4.06515   4.08923   4.11195   4.12769   4.13817
 Alpha virt. eigenvalues --    4.16377   4.18535   4.19924   4.21708   4.24400
 Alpha virt. eigenvalues --    4.27373   4.29865   4.35740   4.37756   4.38974
 Alpha virt. eigenvalues --    4.40625   4.42826   4.44595   4.46882   4.47256
 Alpha virt. eigenvalues --    4.52776   4.59257   4.71138   4.73082   4.77754
 Alpha virt. eigenvalues --    4.80061   4.83253   4.84785   4.85273   4.86920
 Alpha virt. eigenvalues --    4.88300   4.89440   4.94938   4.98115   4.99428
 Alpha virt. eigenvalues --    5.04126   5.08061   5.08710   5.09510   5.12321
 Alpha virt. eigenvalues --    5.14390   5.16698   5.17760   5.20510   5.22938
 Alpha virt. eigenvalues --    5.24252   5.24947   5.26787   5.31552   5.32587
 Alpha virt. eigenvalues --    5.37357   5.38883   5.40963   5.42060   5.44262
 Alpha virt. eigenvalues --    5.53628   5.60208   5.70843   5.77632   5.85999
 Alpha virt. eigenvalues --    5.88150   5.91274   5.91834   5.97152   6.04628
 Alpha virt. eigenvalues --    6.11091   6.32583   6.33922   6.36747   6.40271
 Alpha virt. eigenvalues --    6.49052   6.54686   6.61800   6.66211   6.71565
 Alpha virt. eigenvalues --    6.84381   7.07528   7.15975   7.34618   7.63319
 Alpha virt. eigenvalues --    9.62341   9.95211  11.13204  13.37857  13.84861
 Alpha virt. eigenvalues --   13.87292
  Beta  occ. eigenvalues --  -19.18759 -19.16071 -10.22138 -10.17823 -10.17089
  Beta  occ. eigenvalues --  -10.17028  -1.10732  -0.84415  -0.79686  -0.70614
  Beta  occ. eigenvalues --   -0.68436  -0.54382  -0.51570  -0.46500  -0.45717
  Beta  occ. eigenvalues --   -0.44744  -0.42644  -0.39514  -0.38394  -0.37785
  Beta  occ. eigenvalues --   -0.37412  -0.35528  -0.26321  -0.25158
  Beta virt. eigenvalues --   -0.09993   0.01643   0.02746   0.05136   0.07968
  Beta virt. eigenvalues --    0.08913   0.09540   0.09699   0.11062   0.11645
  Beta virt. eigenvalues --    0.13869   0.14512   0.15369   0.21073   0.21317
  Beta virt. eigenvalues --    0.26367   0.27747   0.29455   0.30925   0.33024
  Beta virt. eigenvalues --    0.34549   0.35143   0.37656   0.38815   0.40073
  Beta virt. eigenvalues --    0.43651   0.44667   0.45646   0.46339   0.46448
  Beta virt. eigenvalues --    0.46592   0.47102   0.48720   0.49741   0.50480
  Beta virt. eigenvalues --    0.53443   0.53913   0.54928   0.59573   0.60566
  Beta virt. eigenvalues --    0.62373   0.64293   0.66622   0.71751   0.72430
  Beta virt. eigenvalues --    0.74440   0.76173   0.77537   0.78523   0.78884
  Beta virt. eigenvalues --    0.83945   0.86077   0.87779   0.89308   0.91692
  Beta virt. eigenvalues --    0.92459   0.93567   0.96276   0.96494   0.97472
  Beta virt. eigenvalues --    0.99996   1.03674   1.05294   1.06236   1.09708
  Beta virt. eigenvalues --    1.12334   1.13958   1.15520   1.16798   1.18409
  Beta virt. eigenvalues --    1.19236   1.21185   1.24152   1.24539   1.25749
  Beta virt. eigenvalues --    1.27008   1.28841   1.30319   1.31248   1.32647
  Beta virt. eigenvalues --    1.34374   1.35751   1.40010   1.41247   1.43524
  Beta virt. eigenvalues --    1.46222   1.47578   1.49242   1.50186   1.51014
  Beta virt. eigenvalues --    1.51933   1.54006   1.58209   1.61848   1.65649
  Beta virt. eigenvalues --    1.71735   1.72928   1.76351   1.83266   1.87255
  Beta virt. eigenvalues --    1.90141   1.96344   2.07275   2.13931   2.17064
  Beta virt. eigenvalues --    2.17575   2.19089   2.23935   2.28322   2.33414
  Beta virt. eigenvalues --    2.34538   2.39076   2.42888   2.44794   2.49561
  Beta virt. eigenvalues --    2.50710   2.53257   2.56943   2.57871   2.60148
  Beta virt. eigenvalues --    2.62837   2.64367   2.67845   2.70813   2.76156
  Beta virt. eigenvalues --    2.77613   2.79115   2.79998   2.82886   2.83691
  Beta virt. eigenvalues --    2.85446   2.88798   2.89848   2.90992   2.92003
  Beta virt. eigenvalues --    2.93154   2.94312   2.98498   3.00268   3.02609
  Beta virt. eigenvalues --    3.03405   3.03909   3.07182   3.07738   3.09302
  Beta virt. eigenvalues --    3.11518   3.12474   3.14158   3.18866   3.20599
  Beta virt. eigenvalues --    3.20928   3.22968   3.25817   3.27706   3.29677
  Beta virt. eigenvalues --    3.32483   3.32579   3.35312   3.38603   3.39750
  Beta virt. eigenvalues --    3.41322   3.42570   3.43508   3.44974   3.46856
  Beta virt. eigenvalues --    3.49022   3.49619   3.51475   3.55288   3.57754
  Beta virt. eigenvalues --    3.58261   3.62144   3.64134   3.65536   3.66890
  Beta virt. eigenvalues --    3.69728   3.70407   3.71092   3.73282   3.77610
  Beta virt. eigenvalues --    3.77996   3.81618   3.82056   3.84512   3.84698
  Beta virt. eigenvalues --    3.88294   3.90655   3.92912   3.94758   3.95968
  Beta virt. eigenvalues --    3.99281   3.99856   4.00554   4.01403   4.03752
  Beta virt. eigenvalues --    4.06466   4.06908   4.09176   4.11393   4.13012
  Beta virt. eigenvalues --    4.14049   4.16373   4.18677   4.20076   4.21730
  Beta virt. eigenvalues --    4.24589   4.28008   4.29935   4.35759   4.38017
  Beta virt. eigenvalues --    4.39378   4.40655   4.42862   4.44712   4.47146
  Beta virt. eigenvalues --    4.47983   4.52844   4.59811   4.71514   4.73094
  Beta virt. eigenvalues --    4.78426   4.80772   4.83447   4.85306   4.85701
  Beta virt. eigenvalues --    4.87479   4.89035   4.89603   4.95899   4.98978
  Beta virt. eigenvalues --    5.00120   5.05007   5.08525   5.09102   5.09813
  Beta virt. eigenvalues --    5.12759   5.14659   5.16873   5.18072   5.21643
  Beta virt. eigenvalues --    5.23265   5.24855   5.26147   5.28711   5.31801
  Beta virt. eigenvalues --    5.33032   5.37457   5.39055   5.41574   5.42189
  Beta virt. eigenvalues --    5.46444   5.53796   5.61424   5.71106   5.77775
  Beta virt. eigenvalues --    5.86116   5.88228   5.91452   5.92327   5.97568
  Beta virt. eigenvalues --    6.06555   6.11265   6.33790   6.35268   6.37374
  Beta virt. eigenvalues --    6.43920   6.52230   6.56956   6.63684   6.68072
  Beta virt. eigenvalues --    6.73006   6.85164   7.10560   7.16409   7.35466
  Beta virt. eigenvalues --    7.64164   9.63396   9.95953  11.13810  13.38523
  Beta virt. eigenvalues --   13.85144  13.87309
          Condensed to atoms (all electrons):
               1          2          3          4          5          6
     1  C    4.924935   0.487352  -0.007349  -0.040322  -0.042013   0.326080
     2  C    0.487352   5.080692   0.000004   0.406379   0.404446  -0.063691
     3  H   -0.007349   0.000004   0.487307   0.000014  -0.000253   0.006183
     4  H   -0.040322   0.406379   0.000014   0.558056  -0.036572   0.006967
     5  H   -0.042013   0.404446  -0.000253  -0.036572   0.558250  -0.007034
     6  C    0.326080  -0.063691   0.006183   0.006967  -0.007034   4.935712
     7  H   -0.029180  -0.002659  -0.000440  -0.000236   0.000329   0.386035
     8  H   -0.045725   0.007177   0.001983  -0.000464   0.000054   0.402677
     9  H   -0.037237  -0.006917   0.000259  -0.000119   0.003992   0.399388
    10  C    0.336904  -0.048559  -0.000113  -0.007614   0.007184  -0.050584
    11  H   -0.028437  -0.007615   0.000093   0.004230  -0.000046   0.006931
    12  H   -0.042497   0.007771  -0.000456  -0.000007  -0.000407  -0.006247
    13  H   -0.037523  -0.001167   0.000043   0.000101  -0.000264  -0.000727
    14  O    0.065237  -0.015020  -0.035089   0.001025  -0.000422  -0.025739
    15  O   -0.023492  -0.004109   0.325479  -0.000137   0.002130   0.004799
               7          8          9         10         11         12
     1  C   -0.029180  -0.045725  -0.037237   0.336904  -0.028437  -0.042497
     2  C   -0.002659   0.007177  -0.006917  -0.048559  -0.007615   0.007771
     3  H   -0.000440   0.001983   0.000259  -0.000113   0.000093  -0.000456
     4  H   -0.000236  -0.000464  -0.000119  -0.007614   0.004230  -0.000007
     5  H    0.000329   0.000054   0.003992   0.007184  -0.000046  -0.000407
     6  C    0.386035   0.402677   0.399388  -0.050584   0.006931  -0.006247
     7  H    0.582683  -0.027420  -0.024033   0.000135  -0.000298  -0.000059
     8  H   -0.027420   0.596652  -0.033649  -0.006854  -0.000143   0.004796
     9  H   -0.024033  -0.033649   0.584745   0.007263  -0.000432   0.000206
    10  C    0.000135  -0.006854   0.007263   4.866708   0.401874   0.395617
    11  H   -0.000298  -0.000143  -0.000432   0.401874   0.577185  -0.026790
    12  H   -0.000059   0.004796   0.000206   0.395617  -0.026790   0.589625
    13  H    0.001072  -0.000465  -0.000226   0.394939  -0.027860  -0.030772
    14  O    0.002695   0.003664  -0.005691  -0.018309  -0.000015   0.010481
    15  O    0.000320  -0.001118   0.010601   0.000975   0.000033  -0.000583
              13         14         15
     1  C   -0.037523   0.065237  -0.023492
     2  C   -0.001167  -0.015020  -0.004109
     3  H    0.000043  -0.035089   0.325479
     4  H    0.000101   0.001025  -0.000137
     5  H   -0.000264  -0.000422   0.002130
     6  C   -0.000727  -0.025739   0.004799
     7  H    0.001072   0.002695   0.000320
     8  H   -0.000465   0.003664  -0.001118
     9  H   -0.000226  -0.005691   0.010601
    10  C    0.394939  -0.018309   0.000975
    11  H   -0.027860  -0.000015   0.000033
    12  H   -0.030772   0.010481  -0.000583
    13  H    0.602541   0.002427  -0.000168
    14  O    0.002427   8.158646   0.073914
    15  O   -0.000168   0.073914   7.794492
          Atomic-Atomic Spin Densities.
               1          2          3          4          5          6
     1  C   -0.138318   0.019605   0.000541  -0.000330   0.001070   0.006667
     2  C    0.019605   0.577782  -0.000307   0.005762   0.005303  -0.002480
     3  H    0.000541  -0.000307  -0.003575   0.000000  -0.000008  -0.000159
     4  H   -0.000330   0.005762   0.000000  -0.025272   0.003687  -0.000150
     5  H    0.001070   0.005303  -0.000008   0.003687  -0.025905  -0.000049
     6  C    0.006667  -0.002480  -0.000159  -0.000150  -0.000049   0.008266
     7  H    0.002744  -0.000436   0.000064  -0.000011   0.000080  -0.001063
     8  H    0.000699   0.000058   0.000059   0.000019  -0.000100  -0.000151
     9  H    0.003966  -0.001089  -0.000280   0.000015   0.000080  -0.001080
    10  C    0.011018  -0.005304  -0.000074   0.000346  -0.000119   0.000378
    11  H    0.000158   0.000100  -0.000007   0.000017   0.000009  -0.000101
    12  H    0.004414  -0.000499  -0.000021  -0.000007  -0.000010  -0.000305
    13  H    0.001442  -0.000996  -0.000001  -0.000019   0.000031   0.000630
    14  O   -0.044141  -0.043859  -0.000677  -0.000228  -0.000852  -0.001536
    15  O    0.008519   0.008325   0.001546  -0.000009   0.000233  -0.001649
               7          8          9         10         11         12
     1  C    0.002744   0.000699   0.003966   0.011018   0.000158   0.004414
     2  C   -0.000436   0.000058  -0.001089  -0.005304   0.000100  -0.000499
     3  H    0.000064   0.000059  -0.000280  -0.000074  -0.000007  -0.000021
     4  H   -0.000011   0.000019   0.000015   0.000346   0.000017  -0.000007
     5  H    0.000080  -0.000100   0.000080  -0.000119   0.000009  -0.000010
     6  C   -0.001063  -0.000151  -0.001080   0.000378  -0.000101  -0.000305
     7  H   -0.009888   0.001082   0.002265   0.000005   0.000031   0.000482
     8  H    0.001082   0.000226  -0.002295  -0.000491   0.000004  -0.000949
     9  H    0.002265  -0.002295  -0.001358   0.000173  -0.000001  -0.000168
    10  C    0.000005  -0.000491   0.000173   0.003311  -0.000003   0.001214
    11  H    0.000031   0.000004  -0.000001  -0.000003  -0.000699   0.000116
    12  H    0.000482  -0.000949  -0.000168   0.001214   0.000116  -0.007117
    13  H   -0.000587   0.000128   0.000138  -0.001056   0.000335   0.001859
    14  O   -0.000435   0.001256  -0.002466  -0.004437  -0.000076  -0.001873
    15  O    0.000062  -0.000688   0.001165   0.000330  -0.000003   0.000114
              13         14         15
     1  C    0.001442  -0.044141   0.008519
     2  C   -0.000996  -0.043859   0.008325
     3  H   -0.000001  -0.000677   0.001546
     4  H   -0.000019  -0.000228  -0.000009
     5  H    0.000031  -0.000852   0.000233
     6  C    0.000630  -0.001536  -0.001649
     7  H   -0.000587  -0.000435   0.000062
     8  H    0.000128   0.001256  -0.000688
     9  H    0.000138  -0.002466   0.001165
    10  C   -0.001056  -0.004437   0.000330
    11  H    0.000335  -0.000076  -0.000003
    12  H    0.001859  -0.001873   0.000114
    13  H   -0.006127  -0.000348   0.000021
    14  O   -0.000348   0.667415  -0.061163
    15  O    0.000021  -0.061163   0.134818
 Mulliken charges and spin densities:
               1          2
     1  C    0.193269  -0.121945
     2  C   -0.244082   0.561964
     3  H    0.222336  -0.002899
     4  H    0.108699  -0.016178
     5  H    0.110624  -0.016551
     6  C   -0.320750   0.007219
     7  H    0.111058  -0.005606
     8  H    0.098835  -0.001141
     9  H    0.101850  -0.000935
    10  C   -0.279565   0.005290
    11  H    0.101289  -0.000120
    12  H    0.099322  -0.002751
    13  H    0.098051  -0.004551
    14  O   -0.217802   0.506581
    15  O   -0.183134   0.091621
 Sum of Mulliken charges =  -0.00000   1.00000
 Mulliken charges and spin densities with hydrogens summed into heavy atoms:
               1          2
     1  C    0.193269  -0.121945
     2  C   -0.024758   0.529235
     6  C   -0.009007  -0.000463
    10  C    0.019096  -0.002131
    14  O   -0.217802   0.506581
    15  O    0.039202   0.088722
 APT charges:
               1
     1  C    0.109512
     2  C   -0.714127
     3  H    0.396295
     4  H    0.416872
     5  H    0.361862
     6  C   -1.014229
     7  H    0.426954
     8  H    0.281141
     9  H    0.286324
    10  C   -1.033960
    11  H    0.345247
    12  H    0.278915
    13  H    0.422201
    14  O   -0.175312
    15  O   -0.387694
 Sum of APT charges =  -0.00000
 APT charges with hydrogens summed into heavy atoms:
               1
     1  C    0.109512
     2  C    0.064607
     6  C   -0.019811
    10  C    0.012403
    14  O   -0.175312
    15  O    0.008601
 Electronic spatial extent (au):  <R**2>=            636.3525
 Charge=             -0.0000 electrons
 Dipole moment (field-independent basis, Debye):
    X=              1.2304    Y=              1.9462    Z=             -0.6936  Tot=              2.4047
 Quadrupole moment (field-independent basis, Debye-Ang):
   XX=            -38.3702   YY=            -37.2706   ZZ=            -36.4641
   XY=             -4.1001   XZ=              1.6037   YZ=             -1.2872
 Traceless Quadrupole moment (field-independent basis, Debye-Ang):
   XX=             -1.0019   YY=              0.0977   ZZ=              0.9042
   XY=             -4.1001   XZ=              1.6037   YZ=             -1.2872
 Octapole moment (field-independent basis, Debye-Ang**2):
  XXX=            -13.3321  YYY=             -2.6226  ZZZ=             -1.3739  XYY=             -3.4522
  XXY=              5.8646  XXZ=             -8.0008  XZZ=             -7.0541  YZZ=             -0.7816
  YYZ=              0.3146  XYZ=              0.6029
 Hexadecapole moment (field-independent basis, Debye-Ang**3):
 XXXX=           -399.3550 YYYY=           -222.0344 ZZZZ=           -195.2410 XXXY=            -10.5699
 XXXZ=             11.3687 YYYX=             -0.9311 YYYZ=             -0.2839 ZZZX=              2.6228
 ZZZY=             -0.2658 XXYY=            -98.7986 XXZZ=           -101.2772 YYZZ=            -69.3264
 XXYZ=             -5.5244 YYXZ=              2.3227 ZZXY=             -3.4930
 N-N= 2.504985550688D+02 E-N=-1.221856922445D+03  KE= 3.062975195573D+02
  Exact polarizability:   0.000   0.000   0.000   0.000   0.000   0.000
 Approx polarizability: 119.582   3.246  81.156  18.590   2.901 101.403
                          Isotropic Fermi Contact Couplings
        Atom                 a.u.       MegaHertz       Gauss      10(-4) cm-1
     1  C(13)             -0.00437      -4.91295      -1.75306      -1.63878
     2  C(13)              0.01801      20.25120       7.22613       6.75507
     3  H(1)              -0.00168      -7.49312      -2.67373      -2.49944
     4  H(1)              -0.00702     -31.37865     -11.19668     -10.46679
     5  H(1)              -0.00726     -32.45204     -11.57969     -10.82483
     6  C(13)              0.00383       4.30594       1.53647       1.43631
     7  H(1)              -0.00254     -11.37571      -4.05914      -3.79453
     8  H(1)              -0.00052      -2.33339      -0.83261      -0.77834
     9  H(1)              -0.00042      -1.88451      -0.67244      -0.62861
    10  C(13)              0.00372       4.18075       1.49180       1.39455
    11  H(1)              -0.00042      -1.88299      -0.67190      -0.62810
    12  H(1)              -0.00026      -1.14073      -0.40704      -0.38051
    13  H(1)              -0.00244     -10.88767      -3.88499      -3.63174
    14  O(17)              0.04670     -28.30813     -10.10104      -9.44258
    15  O(17)              0.01482      -8.98391      -3.20568      -2.99671
 --------------------------------------------------------
       Center         ----  Spin Dipole Couplings  ----
                      3XX-RR        3YY-RR        3ZZ-RR
 --------------------------------------------------------
     1   Atom       -0.087898      0.023591      0.064307
     2   Atom        0.423163     -0.140218     -0.282945
     3   Atom       -0.007246      0.011481     -0.004234
     4   Atom        0.002639      0.025491     -0.028130
     5   Atom        0.008336     -0.003889     -0.004448
     6   Atom        0.000439      0.002990     -0.003429
     7   Atom       -0.001737      0.002099     -0.000362
     8   Atom       -0.002912      0.002546      0.000366
     9   Atom       -0.003720      0.006977     -0.003257
    10   Atom        0.001908     -0.005454      0.003546
    11   Atom        0.003457     -0.002836     -0.000621
    12   Atom        0.003831     -0.005794      0.001964
    13   Atom        0.002825     -0.004036      0.001211
    14   Atom       -0.177599     -0.289833      0.467432
    15   Atom        0.053876     -0.039227     -0.014648
 --------------------------------------------------------
                        XY            XZ            YZ
 --------------------------------------------------------
     1   Atom       -0.061470     -0.054622     -0.030917
     2   Atom        0.374350      0.192326      0.096734
     3   Atom       -0.009030      0.010088     -0.017613
     4   Atom       -0.010063      0.021121     -0.021463
     5   Atom       -0.005757     -0.013439      0.037894
     6   Atom        0.000287      0.002837     -0.006258
     7   Atom        0.003562     -0.000633     -0.003311
     8   Atom        0.003832     -0.001639     -0.004154
     9   Atom        0.000969      0.001900     -0.002201
    10   Atom        0.000942     -0.003613      0.006601
    11   Atom       -0.004234     -0.002462      0.003737
    12   Atom       -0.000023     -0.005382     -0.000365
    13   Atom        0.000699     -0.003570      0.000002
    14   Atom        0.964911      1.301969      1.246714
    15   Atom        0.311532      0.349597      0.225820
 --------------------------------------------------------


 ---------------------------------------------------------------------------------
              Anisotropic Spin Dipole Couplings in Principal Axis System
 ---------------------------------------------------------------------------------

       Atom             a.u.   MegaHertz   Gauss  10(-4) cm-1        Axes

              Baa    -0.1348   -18.083    -6.452    -6.032  0.8682  0.3955  0.2997
     1 C(13)  Bbb     0.0498     6.688     2.386     2.231 -0.4542  0.8767  0.1587
              Bcc     0.0849    11.395     4.066     3.801 -0.1999 -0.2739  0.9408
 
              Baa    -0.3322   -44.581   -15.908   -14.871 -0.1411 -0.2120  0.9670
     2 C(13)  Bbb    -0.3269   -43.872   -15.655   -14.634 -0.4683  0.8749  0.1235
              Bcc     0.6592    88.453    31.562    29.505  0.8722  0.4354  0.2228
 
              Baa    -0.0177    -9.435    -3.367    -3.147 -0.4886  0.3352  0.8055
     3 H(1)   Bbb    -0.0101    -5.408    -1.930    -1.804  0.7985  0.5438  0.2581
              Bcc     0.0278    14.843     5.296     4.951 -0.3516  0.7693 -0.5334
 
              Baa    -0.0423   -22.582    -8.058    -7.533 -0.3712  0.2297  0.8997
     4 H(1)   Bbb     0.0014     0.773     0.276     0.258  0.8240  0.5281  0.2052
              Bcc     0.0409    21.809     7.782     7.275 -0.4280  0.8175 -0.3853
 
              Baa    -0.0427   -22.773    -8.126    -7.596  0.1120 -0.6858  0.7191
     5 H(1)   Bbb     0.0030     1.612     0.575     0.538  0.9092  0.3627  0.2043
              Bcc     0.0397    21.161     7.551     7.059 -0.4009  0.6310  0.6642
 
              Baa    -0.0080    -1.079    -0.385    -0.360 -0.2933  0.4775  0.8283
     6 C(13)  Bbb     0.0010     0.132     0.047     0.044  0.9356  0.3213  0.1461
              Bcc     0.0071     0.948     0.338     0.316 -0.1964  0.8178 -0.5410
 
              Baa    -0.0043    -2.316    -0.826    -0.772  0.7148 -0.5892 -0.3766
     7 H(1)   Bbb    -0.0015    -0.818    -0.292    -0.273  0.5683  0.1756  0.8039
              Bcc     0.0059     3.133     1.118     1.045  0.4075  0.7887 -0.4603
 
              Baa    -0.0049    -2.641    -0.942    -0.881  0.8493 -0.5099 -0.1367
     8 H(1)   Bbb    -0.0024    -1.283    -0.458    -0.428  0.3777  0.4060  0.8322
              Bcc     0.0074     3.924     1.400     1.309  0.3689  0.7584 -0.5374
 
              Baa    -0.0058    -3.086    -1.101    -1.029  0.7096 -0.1717 -0.6833
     9 H(1)   Bbb    -0.0017    -0.895    -0.319    -0.298  0.7026  0.1005  0.7044
              Bcc     0.0075     3.981     1.420     1.328  0.0523  0.9800 -0.1920
 
              Baa    -0.0095    -1.278    -0.456    -0.426 -0.2238  0.8437 -0.4880
    10 C(13)  Bbb     0.0012     0.165     0.059     0.055  0.8817  0.3886  0.2675
              Bcc     0.0083     1.113     0.397     0.371 -0.4153  0.3705  0.8308
 
              Baa    -0.0061    -3.277    -1.169    -1.093  0.2565  0.8496 -0.4608
    11 H(1)   Bbb    -0.0014    -0.739    -0.264    -0.247  0.5964  0.2360  0.7672
              Bcc     0.0075     4.016     1.433     1.340  0.7606 -0.4716 -0.4462
 
              Baa    -0.0058    -3.108    -1.109    -1.037  0.0462  0.9958  0.0786
    12 H(1)   Bbb    -0.0025    -1.354    -0.483    -0.452  0.6426 -0.0899  0.7609
              Bcc     0.0084     4.462     1.592     1.488  0.7648  0.0154 -0.6441
 
              Baa    -0.0041    -2.211    -0.789    -0.737 -0.1501  0.9835 -0.1005
    13 H(1)   Bbb    -0.0016    -0.835    -0.298    -0.279  0.6049  0.1718  0.7776
              Bcc     0.0057     3.046     1.087     1.016  0.7821  0.0560 -0.6207
 
              Baa    -1.2141    87.855    31.349    29.305  0.0102  0.7995 -0.6006
    14 O(17)  Bbb    -1.1934    86.357    30.814    28.806  0.8472 -0.3259 -0.4195
              Bcc     2.4076  -174.212   -62.163   -58.111  0.5311  0.5046  0.6807
 
              Baa    -0.3483    25.205     8.994     8.408  0.7553 -0.3622 -0.5462
    15 O(17)  Bbb    -0.2520    18.232     6.506     6.082 -0.0785  0.7774 -0.6241
              Bcc     0.6003   -43.437   -15.500   -14.489  0.6507  0.5142  0.5587
 

 ---------------------------------------------------------------------------------

 Calling FoFJK, ICntrl=    100147 FMM=F ISym2X=0 I1Cent= 0 IOpClX= 1 NMat=1 NMatS=1 NMatT=0.
 ***** Axes restored to original set *****
 -------------------------------------------------------------------
 Center     Atomic                   Forces (Hartrees/Bohr)
 Number     Number              X              Y              Z
 -------------------------------------------------------------------
      1        6           0.006074569    0.003274220    0.001889403
      2        6          -0.000004327   -0.000000957   -0.000008111
      3        1          -0.000000978   -0.000000638    0.000001298
      4        1           0.000000427   -0.000000186   -0.000000462
      5        1           0.000002407    0.000001286    0.000000101
      6        6           0.000008058    0.000008690    0.000002515
      7        1          -0.000000696   -0.000001941    0.000001130
      8        1          -0.000002701   -0.000002098   -0.000001870
      9        1          -0.000001193   -0.000001412   -0.000004087
     10        6           0.000000979   -0.000003073    0.000000426
     11        1          -0.000000394    0.000002319   -0.000004072
     12        1          -0.000000345    0.000000434   -0.000001882
     13        1          -0.000000158    0.000003617   -0.000001241
     14        8          -0.006067137   -0.003281375   -0.001872363
     15        8          -0.000008511    0.000001114   -0.000000783
 -------------------------------------------------------------------
 Cartesian Forces:  Max     0.006074569 RMS     0.001507570
 FormGI is forming the generalized inverse of G from B-inverse, IUseBI=4.

 GradGradGradGradGradGradGradGradGradGradGradGradGradGradGradGradGradGrad
 Berny optimization.
 Internal  Forces:  Max     0.007154952 RMS     0.000887469
 Search for a saddle point.
 Step number   1 out of a maximum of   75
 All quantities printed in internal units (Hartrees-Bohrs-Radians)
 Swapping is turned off.
 Second derivative matrix not updated -- analytic derivatives used.
 ITU=  0
     Eigenvalues ---   -0.03598   0.00099   0.00193   0.00418   0.01131
     Eigenvalues ---    0.01912   0.01964   0.03106   0.04333   0.04421
     Eigenvalues ---    0.04452   0.04608   0.04731   0.06062   0.10393
     Eigenvalues ---    0.11434   0.11923   0.12014   0.12385   0.12993
     Eigenvalues ---    0.13443   0.14279   0.14750   0.15894   0.17173
     Eigenvalues ---    0.18590   0.30042   0.30832   0.32838   0.33002
     Eigenvalues ---    0.33423   0.33744   0.34247   0.34498   0.35420
     Eigenvalues ---    0.35937   0.36122   0.46429   0.48884
 Eigenvectors required to have negative eigenvalues:
                          R4        R1        D28       D2        R14
   1                    0.87537  -0.15424  -0.12864  -0.12735  -0.11760
                          D7        D9        D8        D18       D16
   1                    0.11615   0.11485   0.11164  -0.11036  -0.11013
 RFO step:  Lambda0=1.059602445D-03 Lambda=-3.47338539D-04.
 Linear search not attempted -- option 19 set.
 Iteration  1 RMS(Cart)=  0.02696821 RMS(Int)=  0.00067863
 Iteration  2 RMS(Cart)=  0.00072881 RMS(Int)=  0.00014812
 Iteration  3 RMS(Cart)=  0.00000066 RMS(Int)=  0.00014811
 Variable       Old X    -DE/DX   Delta X   Delta X   Delta X     New X
                                 (Linear)    (Quad)   (Total)
    R1        2.59912  -0.00001   0.00000   0.02352   0.02352   2.62264
    R2        2.84546   0.00000   0.00000   0.00038   0.00038   2.84584
    R3        2.84538   0.00000   0.00000   0.00160   0.00160   2.84698
    R4        3.70658   0.00715   0.00000  -0.09953  -0.09953   3.60705
    R5        2.04210  -0.00000   0.00000  -0.00027  -0.00027   2.04183
    R6        2.04277   0.00000   0.00000  -0.00046  -0.00046   2.04231
    R7        1.83161  -0.00000   0.00000  -0.00155  -0.00155   1.83006
    R8        2.06510  -0.00000   0.00000  -0.00040  -0.00040   2.06470
    R9        2.06160   0.00000   0.00000  -0.00066  -0.00066   2.06094
   R10        2.05888  -0.00000   0.00000  -0.00021  -0.00021   2.05866
   R11        2.05730  -0.00000   0.00000   0.00010   0.00010   2.05740
   R12        2.05877   0.00000   0.00000  -0.00049  -0.00049   2.05828
   R13        2.06546   0.00000   0.00000  -0.00047  -0.00047   2.06499
   R14        2.62585   0.00001   0.00000   0.01743   0.01743   2.64329
    A1        2.08969   0.00000   0.00000  -0.01146  -0.01209   2.07761
    A2        2.08738   0.00001   0.00000  -0.01205  -0.01262   2.07476
    A3        1.70862  -0.00000   0.00000   0.02255   0.02280   1.73142
    A4        2.02336  -0.00001   0.00000  -0.00076  -0.00143   2.02193
    A5        1.74701   0.00000   0.00000   0.02014   0.02019   1.76720
    A6        1.63674   0.00000   0.00000   0.01370   0.01378   1.65052
    A7        2.11033   0.00000   0.00000  -0.00249  -0.00255   2.10778
    A8        2.11509  -0.00000   0.00000  -0.00222  -0.00227   2.11281
    A9        2.05016   0.00000   0.00000   0.00250   0.00245   2.05261
   A10        1.92048  -0.00000   0.00000  -0.00063  -0.00063   1.91986
   A11        1.93889  -0.00000   0.00000  -0.00112  -0.00113   1.93776
   A12        1.94489   0.00000   0.00000  -0.00239  -0.00240   1.94249
   A13        1.87205   0.00000   0.00000   0.00378   0.00378   1.87583
   A14        1.87877   0.00000   0.00000   0.00052   0.00052   1.87929
   A15        1.90634  -0.00000   0.00000   0.00013   0.00013   1.90647
   A16        1.94194   0.00000   0.00000  -0.00209  -0.00209   1.93985
   A17        1.93438  -0.00000   0.00000  -0.00113  -0.00113   1.93325
   A18        1.91922  -0.00000   0.00000   0.00018   0.00018   1.91940
   A19        1.89440  -0.00000   0.00000   0.00024   0.00024   1.89464
   A20        1.88860   0.00000   0.00000   0.00025   0.00025   1.88885
   A21        1.88369   0.00000   0.00000   0.00273   0.00273   1.88642
   A22        2.00436   0.00001   0.00000  -0.02138  -0.02138   1.98298
   A23        1.80704   0.00000   0.00000  -0.00567  -0.00567   1.80137
    D1       -2.96884   0.00000   0.00000   0.02407   0.02388  -2.94496
    D2        0.30837   0.00000   0.00000   0.04346   0.04328   0.35165
    D3       -0.27012  -0.00000   0.00000  -0.03750  -0.03730  -0.30742
    D4        3.00710  -0.00000   0.00000  -0.01810  -0.01791   2.98918
    D5        1.45660  -0.00000   0.00000  -0.01073  -0.01074   1.44586
    D6       -1.54937  -0.00000   0.00000   0.00866   0.00865  -1.54072
    D7        1.48783   0.00000   0.00000  -0.07133  -0.07131   1.41652
    D8       -2.72487   0.00000   0.00000  -0.06774  -0.06772  -2.79259
    D9       -0.59482  -0.00000   0.00000  -0.07004  -0.07002  -0.66484
   D10       -1.22656   0.00000   0.00000  -0.00929  -0.00927  -1.23583
   D11        0.84393   0.00000   0.00000  -0.00571  -0.00569   0.83824
   D12        2.97398  -0.00000   0.00000  -0.00800  -0.00798   2.96599
   D13       -2.95906  -0.00000   0.00000  -0.03525  -0.03529  -2.99435
   D14       -0.88857  -0.00000   0.00000  -0.03166  -0.03170  -0.92028
   D15        1.24148  -0.00000   0.00000  -0.03396  -0.03400   1.20748
   D16        0.51637  -0.00000   0.00000   0.07627   0.07625   0.59262
   D17        2.62603  -0.00000   0.00000   0.07440   0.07438   2.70041
   D18       -1.57586  -0.00000   0.00000   0.07719   0.07717  -1.49869
   D19       -3.05183  -0.00000   0.00000   0.01447   0.01446  -3.03737
   D20       -0.94217  -0.00000   0.00000   0.01260   0.01258  -0.92958
   D21        1.13913  -0.00000   0.00000   0.01539   0.01537   1.15450
   D22       -1.25157   0.00000   0.00000   0.04408   0.04411  -1.20746
   D23        0.85810   0.00000   0.00000   0.04220   0.04224   0.90033
   D24        2.93940   0.00000   0.00000   0.04499   0.04502   2.98442
   D25        1.30338  -0.00000   0.00000  -0.01350  -0.01343   1.28995
   D26       -0.82985  -0.00000   0.00000  -0.01373  -0.01384  -0.84369
   D27       -2.87512   0.00001   0.00000  -0.01949  -0.01944  -2.89457
   D28        1.35934   0.00000   0.00000   0.06454   0.06454   1.42388
         Item               Value     Threshold  Converged?
 Maximum Force            0.007155     0.000450     NO 
 RMS     Force            0.000887     0.000300     NO 
 Maximum Displacement     0.072487     0.001800     NO 
 RMS     Displacement     0.027118     0.001200     NO 
 Predicted change in Energy= 3.651725D-04
 GradGradGradGradGradGradGradGradGradGradGradGradGradGradGradGradGradGrad

                          Input orientation:                          
 ---------------------------------------------------------------------
 Center     Atomic      Atomic             Coordinates (Angstroms)
 Number     Number       Type             X           Y           Z
 ---------------------------------------------------------------------
      1          6           0        0.662386    0.104935    0.145794
      2          6           0        0.651446   -0.159838    1.508101
      3          1           0       -2.217274    0.572872   -0.654508
      4          1           0        1.018094   -1.101273    1.891153
      5          1           0        0.150479    0.501591    2.200599
      6          6           0        0.387931    1.507667   -0.328457
      7          1           0        1.293678    2.113358   -0.247723
      8          1           0        0.081909    1.513975   -1.375225
      9          1           0       -0.384029    1.985085    0.273986
     10          6           0        1.536533   -0.732437   -0.751087
     11          1           0        1.599411   -1.758244   -0.391780
     12          1           0        1.146878   -0.744705   -1.768127
     13          1           0        2.547204   -0.317946   -0.780035
     14          8           0       -0.955075   -0.779042   -0.349995
     15          8           0       -2.110427   -0.093679    0.039858
 ---------------------------------------------------------------------
                    Distance matrix (angstroms):
                    1          2          3          4          5
     1  C    0.000000
     2  C    1.387842   0.000000
     3  H    3.025209   3.666510   0.000000
     4  H    2.151219   1.080491   4.444183   0.000000
     5  H    2.154439   1.080745   3.709848   1.848699   0.000000
     6  C    1.505954   2.494586   2.786977   3.482865   2.732159
     7  H    2.141763   2.943264   3.855561   3.870994   3.146263
     8  H    2.153101   3.382246   2.586764   4.287796   3.717006
     9  H    2.155548   2.682526   2.493438   3.755901   2.489637
    10  C    1.506559   2.493027   3.975452   2.717766   3.486606
    11  H    2.153702   2.657646   4.479978   2.445674   3.731847
    12  H    2.149352   3.364698   3.780698   3.678866   4.277482
    13  H    2.142084   2.975645   4.848666   3.176007   3.911535
    14  O    1.908769   2.533148   1.874445   3.003327   3.060686
    15  O    2.781936   3.128587   0.968427   3.772292   3.183527
                    6          7          8          9         10
     6  C    0.000000
     7  H    1.092592   0.000000
     8  H    1.090602   1.760371   0.000000
     9  H    1.089398   1.761628   1.777340   0.000000
    10  C    2.552640   2.900157   2.748062   3.481991   0.000000
    11  H    3.483944   3.886326   3.738635   4.288332   1.088731
    12  H    2.778819   3.240634   2.527878   3.737066   1.089197
    13  H    2.863433   2.786741   3.128557   3.873892   1.092748
    14  O    2.652012   3.665150   2.717417   2.890648   2.524115
    15  O    2.990277   4.067143   3.064857   2.712292   3.786017
                   11         12         13         14         15
    11  H    0.000000
    12  H    1.768157   0.000000
    13  H    1.767346   1.766171   0.000000
    14  O    2.736051   2.535840   3.558581   0.000000
    15  O    4.089008   3.781889   4.734559   1.398766   0.000000
 Stoichiometry    C4H9O2(2)
 Framework group  C1[X(C4H9O2)]
 Deg. of freedom    39
 Full point group                 C1      NOp   1
 Largest Abelian subgroup         C1      NOp   1
 Largest concise Abelian subgroup C1      NOp   1
                         Standard orientation:                         
 ---------------------------------------------------------------------
 Center     Atomic      Atomic             Coordinates (Angstroms)
 Number     Number       Type             X           Y           Z
 ---------------------------------------------------------------------
      1          6           0        0.655833    0.110668    0.153981
      2          6           0        0.629130   -0.167465    1.513406
      3          1           0       -2.218420    0.545776   -0.683421
      4          1           0        1.003597   -1.107325    1.892745
      5          1           0        0.108934    0.480081    2.204846
      6          6           0        0.368289    1.513943   -0.310817
      7          1           0        1.264083    2.131512   -0.211221
      8          1           0        0.077246    1.526119   -1.361796
      9          1           0       -0.418938    1.974565    0.284908
     10          6           0        1.554564   -0.705554   -0.738085
     11          1           0        1.626863   -1.733818   -0.387686
     12          1           0        1.179744   -0.713417   -1.760728
     13          1           0        2.559552   -0.276612   -0.748456
     14          8           0       -0.941622   -0.791130   -0.373555
     15          8           0       -2.112073   -0.125924    0.006043
 ---------------------------------------------------------------------
 Rotational constants (GHZ):           4.4871443           2.5680056           2.4675165
 Standard basis: CC-pVTZ+d (5D, 7F)
 There are   345 symmetry adapted cartesian basis functions of A   symmetry.
 There are   306 symmetry adapted basis functions of A   symmetry.
   306 basis functions,   465 primitive gaussians,   345 cartesian basis functions
    25 alpha electrons       24 beta electrons
       nuclear repulsion energy       251.3184980292 Hartrees.
 NAtoms=   15 NActive=   15 NUniq=   15 SFac= 1.00D+00 NAtFMM=   60 NAOKFM=F Big=F
 Integral buffers will be    131072 words long.
 Raffenetti 2 integral format.
 Two-electron integral symmetry is turned on.
 One-electron integrals computed using PRISM.
 NBasis=   306 RedAO= T EigKep=  4.45D-04  NBF=   306
 NBsUse=   306 1.00D-06 EigRej= -1.00D+00 NBFU=   306
 Initial guess from the checkpoint file:  "QOOHtertb-OOH-Elim-TS4-b3lyp-c.chk"
 B after Tr=    -0.000000   -0.000000    0.000000
         Rot=    0.999962   -0.003874    0.004386   -0.006444 Ang=  -1.00 deg.
 Initial guess <Sx>= 0.0000 <Sy>= 0.0000 <Sz>= 0.5000 <S**2>= 0.7798 S= 0.5148
 ExpMin= 1.03D-01 ExpMax= 1.53D+04 ExpMxC= 5.22D+02 IAcc=3 IRadAn=         5 AccDes= 0.00D+00
 Harris functional with IExCor=  402 and IRadAn=       5 diagonalized for initial guess.
 HarFok:  IExCor=  402 AccDes= 0.00D+00 IRadAn=         5 IDoV= 1 UseB2=F ITyADJ=14
 ICtDFT=  3500011 ScaDFX=  1.000000  1.000000  1.000000  1.000000
 FoFCou: FMM=F IPFlag=           0 FMFlag=      100000 FMFlg1=           0
         NFxFlg=           0 DoJE=T BraDBF=F KetDBF=T FulRan=T
         wScrn=  0.000000 ICntrl=       500 IOpCl=  0 I1Cent=   200000004 NGrid=           0
         NMat0=    1 NMatS0=      1 NMatT0=    0 NMatD0=    1 NMtDS0=    0 NMtDT0=    0
 Petite list used in FoFCou.
 Requested convergence on RMS density matrix=1.00D-08 within 128 cycles.
 Requested convergence on MAX density matrix=1.00D-06.
 Requested convergence on             energy=1.00D-06.
 No special actions if energy rises.
 Integral accuracy reduced to 1.0D-05 until final iterations.
 Initial convergence to 1.0D-05 achieved.  Increase integral accuracy.
 SCF Done:  E(UB3LYP) =  -308.238599381     A.U. after   16 cycles
            NFock= 16  Conv=0.86D-08     -V/T= 2.0064
 <Sx>= 0.0000 <Sy>= 0.0000 <Sz>= 0.5000 <S**2>= 0.7803 S= 0.5150
 <L.S>= 0.000000000000E+00
 Annihilation of the first spin contaminant:
 S**2 before annihilation     0.7803,   after     0.7502
 Calling FoFJK, ICntrl=      2127 FMM=F ISym2X=0 I1Cent= 0 IOpClX= 1 NMat=1 NMatS=1 NMatT=0.
 ***** Axes restored to original set *****
 -------------------------------------------------------------------
 Center     Atomic                   Forces (Hartrees/Bohr)
 Number     Number              X              Y              Z
 -------------------------------------------------------------------
      1        6          -0.000566048   -0.000202443   -0.001043565
      2        6           0.000002383   -0.000141889    0.000853678
      3        1          -0.000005615   -0.000020724   -0.000060626
      4        1           0.000014207   -0.000005484    0.000020025
      5        1           0.000003155    0.000002448    0.000020890
      6        6           0.000028267    0.000052597   -0.000003654
      7        1          -0.000003005    0.000011759    0.000004443
      8        1           0.000012231    0.000002301   -0.000016519
      9        1          -0.000006523   -0.000015408    0.000002168
     10        6           0.000098843    0.000020342   -0.000010079
     11        1          -0.000020292   -0.000011331    0.000007154
     12        1           0.000011916    0.000019871   -0.000010796
     13        1           0.000014333   -0.000025369   -0.000001243
     14        8           0.000521503    0.000316433    0.000110489
     15        8          -0.000105355   -0.000003103    0.000127635
 -------------------------------------------------------------------
 Cartesian Forces:  Max     0.001043565 RMS     0.000241895

 GradGradGradGradGradGradGradGradGradGradGradGradGradGradGradGradGradGrad
 Berny optimization.
 FormGI is forming the generalized inverse of G from B-inverse, IUseBI=4.
 Internal  Forces:  Max     0.000905935 RMS     0.000134096
 Search for a saddle point.
 Step number   2 out of a maximum of   75
 All quantities printed in internal units (Hartrees-Bohrs-Radians)
 Swapping is turned off.
 Update second derivatives using D2CorX and points    1    2
 ITU=  0  0
     Eigenvalues ---   -0.03993   0.00111   0.00251   0.00428   0.01131
     Eigenvalues ---    0.01911   0.01967   0.03171   0.04333   0.04422
     Eigenvalues ---    0.04453   0.04608   0.04735   0.06063   0.10393
     Eigenvalues ---    0.11424   0.11917   0.12014   0.12384   0.12989
     Eigenvalues ---    0.13442   0.14279   0.14749   0.15886   0.17166
     Eigenvalues ---    0.18589   0.30040   0.30830   0.32838   0.33001
     Eigenvalues ---    0.33423   0.33744   0.34247   0.34498   0.35419
     Eigenvalues ---    0.35937   0.36122   0.46347   0.48883
 Eigenvectors required to have negative eigenvalues:
                          R4        R1        D28       D2        D7
   1                    0.87386  -0.15959  -0.13346  -0.12419   0.11942
                          R14       D9        D18       D16       D8
   1                   -0.11807   0.11805  -0.11523  -0.11495   0.11452
 RFO step:  Lambda0=1.053956778D-05 Lambda=-3.39188996D-06.
 Linear search not attempted -- option 19 set.
 Iteration  1 RMS(Cart)=  0.00241460 RMS(Int)=  0.00000314
 Iteration  2 RMS(Cart)=  0.00000333 RMS(Int)=  0.00000142
 Iteration  3 RMS(Cart)=  0.00000000 RMS(Int)=  0.00000142
 Variable       Old X    -DE/DX   Delta X   Delta X   Delta X     New X
                                 (Linear)    (Quad)   (Total)
    R1        2.62264   0.00091   0.00000  -0.00056  -0.00056   2.62208
    R2        2.84584   0.00005   0.00000  -0.00003  -0.00003   2.84581
    R3        2.84698   0.00007   0.00000  -0.00016  -0.00016   2.84683
    R4        3.60705  -0.00053   0.00000   0.01206   0.01206   3.61912
    R5        2.04183   0.00002   0.00000   0.00006   0.00006   2.04189
    R6        2.04231   0.00001   0.00000   0.00005   0.00005   2.04236
    R7        1.83006   0.00003   0.00000   0.00018   0.00018   1.83025
    R8        2.06470   0.00000   0.00000   0.00007   0.00007   2.06477
    R9        2.06094   0.00001   0.00000   0.00004   0.00004   2.06098
   R10        2.05866  -0.00000   0.00000   0.00004   0.00004   2.05870
   R11        2.05740   0.00001   0.00000   0.00003   0.00003   2.05743
   R12        2.05828   0.00001   0.00000   0.00007   0.00007   2.05835
   R13        2.06499   0.00000   0.00000   0.00005   0.00005   2.06504
   R14        2.64329   0.00010   0.00000  -0.00137  -0.00137   2.64192
    A1        2.07761  -0.00000   0.00000   0.00100   0.00100   2.07860
    A2        2.07476  -0.00001   0.00000   0.00104   0.00103   2.07579
    A3        1.73142  -0.00002   0.00000  -0.00244  -0.00244   1.72898
    A4        2.02193  -0.00000   0.00000   0.00072   0.00072   2.02265
    A5        1.76720   0.00001   0.00000  -0.00194  -0.00193   1.76526
    A6        1.65052   0.00004   0.00000  -0.00124  -0.00124   1.64928
    A7        2.10778   0.00001   0.00000   0.00020   0.00020   2.10797
    A8        2.11281   0.00001   0.00000   0.00018   0.00018   2.11299
    A9        2.05261  -0.00002   0.00000  -0.00009  -0.00009   2.05252
   A10        1.91986   0.00001   0.00000   0.00026   0.00026   1.92012
   A11        1.93776   0.00000   0.00000   0.00007   0.00007   1.93783
   A12        1.94249  -0.00002   0.00000  -0.00007  -0.00007   1.94242
   A13        1.87583  -0.00001   0.00000  -0.00019  -0.00019   1.87564
   A14        1.87929   0.00000   0.00000  -0.00003  -0.00003   1.87926
   A15        1.90647   0.00001   0.00000  -0.00004  -0.00004   1.90643
   A16        1.93985  -0.00003   0.00000  -0.00009  -0.00009   1.93976
   A17        1.93325  -0.00000   0.00000   0.00017   0.00017   1.93341
   A18        1.91940   0.00004   0.00000   0.00021   0.00021   1.91961
   A19        1.89464   0.00001   0.00000   0.00001   0.00001   1.89465
   A20        1.88885  -0.00001   0.00000  -0.00001  -0.00001   1.88884
   A21        1.88642  -0.00001   0.00000  -0.00031  -0.00031   1.88611
   A22        1.98298   0.00015   0.00000   0.00256   0.00256   1.98554
   A23        1.80137  -0.00006   0.00000   0.00011   0.00011   1.80147
    D1       -2.94496   0.00002   0.00000  -0.00222  -0.00222  -2.94718
    D2        0.35165   0.00000   0.00000  -0.00446  -0.00446   0.34719
    D3       -0.30742  -0.00001   0.00000   0.00392   0.00392  -0.30350
    D4        2.98918  -0.00002   0.00000   0.00168   0.00168   2.99087
    D5        1.44586   0.00002   0.00000   0.00130   0.00130   1.44716
    D6       -1.54072   0.00001   0.00000  -0.00094  -0.00094  -1.54165
    D7        1.41652  -0.00001   0.00000   0.00459   0.00459   1.42111
    D8       -2.79259  -0.00001   0.00000   0.00457   0.00457  -2.78803
    D9       -0.66484  -0.00001   0.00000   0.00451   0.00451  -0.66033
   D10       -1.23583   0.00002   0.00000  -0.00146  -0.00146  -1.23729
   D11        0.83824   0.00002   0.00000  -0.00149  -0.00149   0.83675
   D12        2.96599   0.00002   0.00000  -0.00154  -0.00154   2.96445
   D13       -2.99435  -0.00003   0.00000   0.00078   0.00078  -2.99357
   D14       -0.92028  -0.00003   0.00000   0.00076   0.00076  -0.91952
   D15        1.20748  -0.00003   0.00000   0.00070   0.00070   1.20818
   D16        0.59262   0.00002   0.00000  -0.00238  -0.00238   0.59024
   D17        2.70041   0.00002   0.00000  -0.00231  -0.00231   2.69810
   D18       -1.49869   0.00002   0.00000  -0.00245  -0.00245  -1.50114
   D19       -3.03737  -0.00000   0.00000   0.00365   0.00365  -3.03372
   D20       -0.92958  -0.00001   0.00000   0.00372   0.00372  -0.92586
   D21        1.15450  -0.00000   0.00000   0.00358   0.00358   1.15808
   D22       -1.20746   0.00003   0.00000   0.00096   0.00096  -1.20649
   D23        0.90033   0.00002   0.00000   0.00103   0.00103   0.90137
   D24        2.98442   0.00003   0.00000   0.00089   0.00089   2.98531
   D25        1.28995  -0.00003   0.00000  -0.00241  -0.00241   1.28754
   D26       -0.84369  -0.00002   0.00000  -0.00205  -0.00205  -0.84574
   D27       -2.89457  -0.00003   0.00000  -0.00209  -0.00209  -2.89665
   D28        1.42388   0.00009   0.00000  -0.00112  -0.00112   1.42276
         Item               Value     Threshold  Converged?
 Maximum Force            0.000906     0.000450     NO 
 RMS     Force            0.000134     0.000300     YES
 Maximum Displacement     0.008133     0.001800     NO 
 RMS     Displacement     0.002415     0.001200     NO 
 Predicted change in Energy= 3.575221D-06
 GradGradGradGradGradGradGradGradGradGradGradGradGradGradGradGradGradGrad

                          Input orientation:                          
 ---------------------------------------------------------------------
 Center     Atomic      Atomic             Coordinates (Angstroms)
 Number     Number       Type             X           Y           Z
 ---------------------------------------------------------------------
      1          6           0        0.665678    0.106535    0.146521
      2          6           0        0.651351   -0.159663    1.508219
      3          1           0       -2.221578    0.571230   -0.653126
      4          1           0        1.017062   -1.101457    1.891368
      5          1           0        0.150407    0.501970    2.200577
      6          6           0        0.389639    1.508697   -0.328453
      7          1           0        1.294915    2.115366   -0.249306
      8          1           0        0.082428    1.514078   -1.374901
      9          1           0       -0.382065    1.985904    0.274520
     10          6           0        1.537684   -0.732275   -0.750959
     11          1           0        1.598295   -1.758399   -0.392126
     12          1           0        1.147923   -0.743189   -1.768012
     13          1           0        2.549341   -0.320148   -0.780136
     14          8           0       -0.957834   -0.779126   -0.351100
     15          8           0       -2.114102   -0.097202    0.039469
 ---------------------------------------------------------------------
                    Distance matrix (angstroms):
                    1          2          3          4          5
     1  C    0.000000
     2  C    1.387547   0.000000
     3  H    3.031769   3.668697   0.000000
     4  H    2.151094   1.080520   4.445348   0.000000
     5  H    2.154302   1.080770   3.711432   1.848697   0.000000
     6  C    1.505940   2.495052   2.793333   3.483414   2.732531
     7  H    2.141967   2.945985   3.861754   3.873970   3.148790
     8  H    2.153157   3.381932   2.591981   4.287550   3.716589
     9  H    2.155499   2.682056   2.499127   3.755470   2.489033
    10  C    1.506476   2.493463   3.980043   2.718315   3.487043
    11  H    2.153577   2.657813   4.481821   2.446171   3.731991
    12  H    2.149425   3.364635   3.784733   3.679204   4.277284
    13  H    2.142181   2.977363   4.855137   3.177303   3.913492
    14  O    1.915154   2.535799   1.873961   3.005458   3.062754
    15  O    2.789291   3.131910   0.968524   3.773891   3.187067
                    6          7          8          9         10
     6  C    0.000000
     7  H    1.092629   0.000000
     8  H    1.090624   1.760294   0.000000
     9  H    1.089417   1.761651   1.777347   0.000000
    10  C    2.553130   2.901664   2.748304   3.482174   0.000000
    11  H    3.484080   3.888251   3.738022   4.287895   1.088745
    12  H    2.778185   3.240280   2.526870   3.736408   1.089233
    13  H    2.865834   2.790537   3.131101   3.875993   1.092772
    14  O    2.655245   3.669240   2.718289   2.892802   2.527784
    15  O    2.997165   4.074340   3.069431   2.719289   3.789939
                   11         12         13         14         15
    11  H    0.000000
    12  H    1.768205   0.000000
    13  H    1.767372   1.766022   0.000000
    14  O    2.737600   2.538334   3.563005   0.000000
    15  O    4.089957   3.784851   4.740165   1.398042   0.000000
 Stoichiometry    C4H9O2(2)
 Framework group  C1[X(C4H9O2)]
[...]
 ! D23   D(14,1,10,12)          51.7868         -DE/DX =    0.0                 !
 ! D24   D(14,1,10,13)         171.1953         -DE/DX =    0.0                 !
 ! D25   D(2,1,14,15)           73.8514         -DE/DX =    0.0                 !
 ! D26   D(6,1,14,15)          -48.3732         -DE/DX =    0.0                 !
 ! D27   D(10,1,14,15)        -165.8903         -DE/DX =    0.0                 !
 ! D28   D(1,14,15,3)           81.5359         -DE/DX =    0.0                 !
 --------------------------------------------------------------------------------
 GradGradGradGradGradGradGradGradGradGradGradGradGradGradGradGradGradGrad


 ----------------------------------------------------------------------

 Electric dipole moment (input orientation):
 (Debye = 10**-18 statcoulomb cm , SI units = C m)
                  (au)            (Debye)         (10**-30 SI)
   Tot        0.967085D+00      0.245808D+01      0.819929D+01
   x          0.535513D+00      0.136114D+01      0.454027D+01
   y          0.760858D+00      0.193391D+01      0.645082D+01
   z         -0.263770D+00     -0.670436D+00     -0.223633D+01

 Dipole polarizability, Alpha (input orientation).
 (esu units = cm**3 , SI units = C**2 m**2 J**-1)
 Alpha(0;0):
               (au)            (10**-24 esu)      (10**-40 SI)
   iso        0.670136D+02      0.993039D+01      0.110490D+02
   aniso      0.221710D+02      0.328541D+01      0.365551D+01
   xx         0.782974D+02      0.116025D+02      0.129095D+02
   yx        -0.889229D+00     -0.131770D+00     -0.146614D+00
   yy         0.574321D+02      0.851056D+01      0.946927D+01
   zx         0.720568D+01      0.106777D+01      0.118806D+01
   zy        -0.352814D+00     -0.522816D-01     -0.581712D-01
   zz         0.653112D+02      0.967813D+01      0.107684D+02

 ----------------------------------------------------------------------

 Dipole orientation:
     6          1.03902577          0.10936319          0.77917214
     6          2.61659442         -1.66602841         -0.33226772
     1         -4.23939708         -1.01836116         -1.13780537
     1          4.15174205         -1.08485786         -1.54670133
     1          2.19478485         -3.66170264         -0.22949290
     6         -0.76142169         -0.72420292          2.81926290
     1          0.22743860         -0.84675474          4.62768422
     1         -2.29989580          0.62833908          3.04585822
     1         -1.54705989         -2.58242148          2.40933400
     6          1.89312873          2.82202276          0.90710318
     1          3.01611639          3.32474845         -0.74190179
     1          0.27692093          4.09237004          1.01095389
     1          3.05046565          3.11890054          2.59138849
     8         -1.23575898          0.65768669         -1.98051415
     8         -2.92798152         -1.33257728         -2.37521277

 Electric dipole moment (dipole orientation):
 (Debye = 10**-18 statcoulomb cm , SI units = C m)
                  (au)            (Debye)         (10**-30 SI)
   Tot        0.967085D+00      0.245808D+01      0.819929D+01
   x          0.000000D+00      0.000000D+00      0.000000D+00
   y          0.000000D+00      0.000000D+00      0.000000D+00
   z          0.967085D+00      0.245808D+01      0.819929D+01

 Dipole polarizability, Alpha (dipole orientation).
 (esu units = cm**3 , SI units = C**2 m**2 J**-1)
 Alpha(0;0):
               (au)            (10**-24 esu)      (10**-40 SI)
   iso        0.670136D+02      0.993039D+01      0.110490D+02
   aniso      0.221710D+02      0.328541D+01      0.365551D+01
   xx         0.785242D+02      0.116361D+02      0.129469D+02
   yx        -0.492410D+00     -0.729677D-01     -0.811875D-01
   yy         0.609004D+02      0.902450D+01      0.100411D+02
   zx         0.774888D+01      0.114827D+01      0.127762D+01
   zy         0.201612D+01      0.298757D+00      0.332412D+00
   zz         0.616162D+02      0.913058D+01      0.101591D+02

 ----------------------------------------------------------------------
 1\1\GINC-CNODE0690\Freq\UB3LYP\CC-pVTZ+d\C4H9O2(2)\CVANSTADEN\02-Apr-2
 022\0\\#N Geom=AllCheck Guess=TCheck SCRF=Check GenChk UB3LYP/CC-pVTZ+
 d Freq\\QOOHtertb-OOH-Elim-TS4-b3lyp-c\\0,2\C,0.6654927132,0.106462848
 4,0.1464714932\C,0.6519168163,-0.1594319233,1.5083092483\H,-2.22078703
 75,0.5710111108,-0.6540579574\H,1.0179779013,-1.1010829737,1.891469402
 6\H,0.1511090112,0.5022252746,2.2007373725\C,0.3890852733,1.5085227872
 ,-0.3285166047\H,1.2940163164,2.1156209372,-0.2487444685\H,0.082489075
 ,1.5138859653,-1.3751417351\H,-0.38320612,1.9852640594,0.2740722519\C,
 1.5374223482,-0.732338691,-0.7510853449\H,1.5963732965,-1.7589360666,-
 0.3933174796\H,1.1487455909,-0.7416555324,-1.768552278\H,2.5496270047,
 -0.3214487634,-0.7786503315\O,-0.9576033646,-0.7794841454,-0.350075362
 5\O,-2.113514825,-0.096294887,0.0396367937\\Version=ES64L-G16RevB.01\S
 tate=2-A\HF=-308.2385962\S2=0.780619\S2-1=0.\S2A=0.750167\RMSD=5.004e-
 09\RMSF=3.068e-06\ZeroPoint=0.122756\Thermal=0.1308726\Dipole=0.535513
 5,0.7608576,-0.2637697\DipoleDeriv=-0.2176001,-0.1588295,-0.2307674,-0
 .1088986,0.2915212,-0.0693113,-0.8958712,-0.2587967,0.0815215,-0.23318
 64,-0.1211837,-0.0486107,-0.2505173,-0.0298085,-0.0041407,0.5067109,0.
 1709848,0.0262671,0.2605588,0.0276801,0.0248593,-0.0273152,0.1844422,0
 .0393898,0.0874747,0.097342,0.1721952,0.1034947,0.066001,0.0076219,0.0
 730163,-0.0424367,0.0705793,0.0026424,0.0181594,0.0379843,0.082206,0.0
 685515,0.0858095,0.07465,0.0071741,-0.0485086,0.0295204,-0.0281763,0.0
 032269,0.0530659,0.0201171,0.0620002,0.0351532,-0.0741225,0.0317309,0.
 0582288,0.0189707,0.0970818,-0.0426073,-0.092086,-0.0032032,-0.0703779
 ,-0.0065463,0.0390085,-0.0073433,0.013257,0.0640958,0.0644775,0.036632
 ,-0.0670752,-0.0316776,0.0359478,-0.0347587,-0.0265102,0.0385652,-0.10
 57861,-0.0208471,0.103496,0.0510128,0.0316015,0.0138742,-0.0221109,0.0
 668566,-0.0378918,-0.0061106,0.0253338,0.0638947,0.0907092,0.0374869,0
 .013935,0.000828,0.0850647,-0.0163546,0.047334,0.0652508,-0.0013388,0.
 0049168,0.0444185,-0.0985786,0.027557,0.004102,0.0710598,0.0279057,0.0
 392914,-0.0032835,-0.0952635,0.0511434,0.0616196,0.005577,0.0072654,0.
 0013948,-0.0795853,-0.0954478,-0.0480286,0.0474074,-0.0649073,0.033335
 9,-0.0179782,0.0217749,-0.0124166,0.0492824,0.9225304,0.1262259,0.2674
 331,-0.3674204,-0.2463478,-0.1131964,-0.1282403,-0.0040407,-0.3996631,
 -1.0065206,-0.0878484,-0.1968503,0.5736447,-0.1440094,0.0953341,0.1883
 241,-0.0720568,-0.0157498\Polar=78.2974359,-0.8892294,57.4320831,7.205
 6815,-0.352814,65.3112348\Quadrupole=-0.7228077,0.0177925,0.7050152,-3
 .0292136,1.2870277,-0.9536943\PG=C01 [X(C4H9O2)]\NImag=1\\0.17129087,-
 0.15094819,0.46595199,-0.17430400,-0.09282789,0.54984362,-0.04931564,0
 .02723666,0.02561412,0.22141855,0.01415723,-0.10607762,0.04981650,-0.2
 1689478,0.54129324,0.09031218,0.08507439,-0.29413573,-0.08146206,-0.03
 846764,0.62056757,-0.00305789,0.00212787,-0.00563759,-0.00005038,-0.00
 022831,0.00219299,0.05327102,-0.00397072,0.00083908,-0.00583758,-0.000
 31411,-0.00036859,0.00316500,-0.04996503,0.23915632,-0.00050607,0.0007
 7505,-0.00102950,0.00021162,0.00043126,0.00004902,0.01377385,-0.231149
 00,0.27079483,0.00342836,0.00101833,-0.00095419,-0.06414218,0.09529123
 ,-0.02676372,-0.00001161,-0.00005536,-0.00002803,0.05784830,0.00261748
 ,-0.00309907,-0.00057534,0.09901785,-0.26947930,0.09014897,-0.00014313
 ,-0.00009027,-0.00007794,-0.10585595,0.27932851,-0.00934696,0.02865435
 ,-0.00766710,-0.02849594,0.08349730,-0.08842553,0.00014299,0.00004213,
 0.00000202,0.03120416,-0.09695811,0.09029158,0.00294036,0.00121998,-0.
 00363415,-0.09480433,0.09635709,0.09276173,0.00003654,0.00017404,0.000
 05151,-0.00016781,0.00446936,0.00661720,0.08873509,-0.00281766,0.00571
 599,0.00316653,0.09415532,-0.15972398,-0.10773728,0.00002253,0.0001677
 0,0.00012735,0.01083126,-0.00978294,-0.01582831,-0.10288448,0.16034587
 ,0.01666686,-0.01995251,-0.01629021,0.08522578,-0.10650369,-0.16774528
 ,-0.00009085,-0.00001233,-0.00000712,-0.00489170,0.00755717,0.00901079
 ,-0.09656775,0.11717605,0.17727951,-0.07215801,0.03331678,0.00375956,0
 .00290632,0.00334787,-0.00607147,0.00025416,0.00027689,0.00001566,0.00
 418864,0.00206731,0.00048144,-0.00210738,-0.00209075,0.00032491,0.5515
 3643,0.03119941,-0.18039691,0.03747952,0.00180738,-0.00885696,0.008982
 80,0.00063960,0.00125795,0.00038107,0.00093095,0.00209644,-0.00101063,
 -0.00074753,0.00045753,-0.00155767,-0.00116350,0.48110498,0.00026226,0
 .03708785,-0.09347022,-0.00661275,0.03556983,-0.01423620,-0.00045863,0
 .00027623,0.00163841,0.00155442,0.00159929,-0.00457715,-0.00153106,-0.
 00004672,0.00117740,-0.01223861,0.02833351,0.56790740,0.00562884,0.002
 81579,0.00200006,0.00074394,0.00059386,-0.00089395,0.00069619,0.000476
 96,0.00020768,-0.00006844,-0.00012847,0.00008167,-0.00014833,-0.000147
 67,-0.00005871,-0.22363388,-0.11631205,-0.01717385,0.24314321,-0.02431
 544,-0.01747512,0.00041748,0.00084863,-0.00002382,-0.00145067,-0.00008
 029,0.00005366,-0.00013554,0.00074720,0.00031345,0.00022309,-0.0005448
 8,-0.00027553,0.00001182,-0.11847558,-0.12257118,-0.01149948,0.1294938
 2,0.13440803,0.01006148,0.00656663,0.00008591,-0.00045402,0.00102988,-
 0.00119486,0.00037537,0.00013582,-0.00053907,-0.00047777,-0.00027455,-
 0.00011603,0.00038971,0.00018814,-0.00007073,-0.01669829,-0.01090172,-
 0.04539521,0.01913541,0.01073208,0.04698573,-0.00140023,-0.00131411,-0
 .00339563,0.00020537,0.00137397,-0.00087369,-0.00046046,0.00000339,0.0
 0004527,0.00051176,-0.00000953,-0.00020370,0.00001098,-0.00005254,-0.0
 0023351,-0.06811848,0.00258050,-0.06880739,-0.00763970,0.00009684,-0.0
 2663953,0.06960453,0.00658780,-0.00113905,0.03000050,0.00206748,-0.005
 74251,0.00214403,-0.00039269,-0.00000839,0.00026841,-0.00048751,-0.000
 45624,0.00150498,0.00001312,0.00006125,0.00002131,0.00115848,-0.046114
 71,-0.00530064,-0.00403307,-0.00029948,-0.01725763,-0.00064238,0.05104
 990,-0.00126926,0.00091512,-0.00993353,-0.00148884,0.00255788,-0.00084
 855,0.00112990,0.00072927,-0.00050401,0.00039772,0.00043743,-0.0003443
 8,-0.00029503,-0.00020084,0.00030085,-0.06911294,-0.00227141,-0.286194
 41,-0.00081904,-0.00061932,-0.00180935,0.07759640,0.00097023,0.3119760
 1,-0.00482291,0.00164493,0.00275917,0.00050150,-0.00041249,0.00079533,
 -0.00035881,-0.00043589,-0.00020596,0.00013782,-0.00015925,-0.00017497
 ,0.00020620,0.00008699,-0.00059302,-0.17890700,0.08242062,0.10343185,-
 0.01896936,0.01194686,0.01538978,0.00841284,-0.00548459,-0.00550990,0.
 19342506,0.02202668,-0.01554466,-0.02091461,-0.00053594,0.00097351,-0.
 00045746,-0.00094917,-0.00067056,-0.00068608,-0.00038447,0.00017031,-0
 .00004353,-0.00005513,0.00038232,0.00089137,0.08007785,-0.09307283,-0.
 06089843,-0.01221611,0.00827494,0.01086309,-0.00086926,-0.00073761,0.0
 0005880,-0.08985378,0.10348121,-0.00835768,0.00320737,0.00611601,-0.00
 094427,0.00065645,0.00047519,-0.00071767,-0.00069716,-0.00061543,-0.00
 004461,-0.00023334,0.00010050,0.00021831,0.00013190,-0.00003837,0.1044
 6209,-0.06312709,-0.13199841,-0.00254043,0.00203553,0.00135872,0.02244
 555,-0.01234017,-0.01507520,-0.11498784,0.06756972,0.13896820,-0.10059
 951,0.04413287,0.04739060,0.00192899,0.00071047,0.00077023,0.00016896,
 -0.00013951,0.00030411,-0.00210822,-0.00111873,-0.00094095,0.00433973,
 0.00174273,-0.00157767,-0.00127924,0.00635922,0.00191120,-0.00007907,-
 0.00024275,0.00012938,-0.00014366,-0.00038977,0.00055718,0.00053395,-0
 .00034662,-0.00001529,0.51540222,0.04729378,-0.12197788,-0.03574085,-0
 .00112024,0.00540075,-0.00383973,-0.00006548,-0.00049841,0.00005884,-0
 .00203586,-0.00003816,0.00130374,0.00189221,0.00126481,0.00254152,0.02
 263907,-0.02009949,-0.01788244,-0.00033196,0.00116662,-0.00032789,-0.0
 0048133,0.00155812,-0.00087823,0.00081069,-0.00517125,0.00170398,0.020
 83037,0.55009373,0.04509801,-0.03564685,-0.12161942,0.02312353,-0.0192
 6467,-0.02802071,-0.00012045,0.00024172,0.00018464,-0.00089186,-0.0016
 5710,0.00139680,0.00137323,0.00195207,-0.00371277,-0.00608390,0.002815
 43,0.00712686,0.00007802,-0.00016245,-0.00003522,-0.00055806,0.0008905
 0,0.00037855,-0.00115610,0.00349970,-0.00022081,0.03316470,-0.03656471
 ,0.54158871,-0.00348649,0.02008061,-0.00802733,0.00030206,-0.00046016,
 -0.00054777,0.00012251,0.00000915,-0.00005807,0.00044052,-0.00020931,0
 .00024378,-0.00012490,-0.00017277,-0.00014926,-0.00201078,0.00135035,0
 .00268822,0.00016711,0.00030796,0.00008227,0.00006294,-0.00033634,0.00
 021419,0.00002890,0.00124806,-0.00004595,-0.04582508,0.00999123,-0.004
 06539,0.04744288,0.00102091,-0.01830931,0.00733341,-0.00050510,0.00099
 524,0.00113630,-0.00024988,-0.00004784,-0.00005089,-0.00022780,0.00051
 377,-0.00089355,0.00003349,0.00047219,-0.00004583,0.00252763,-0.000213
 73,-0.00313375,-0.00018851,0.00030285,-0.00003177,-0.00010619,0.000220
 14,0.00002713,0.00014968,-0.00101924,0.00034898,0.01263998,-0.28141946
 ,0.08293222,-0.01495739,0.30670706,0.00032729,-0.01961568,0.00738907,0
 .00002852,-0.00106902,0.00049712,0.00000225,-0.00004498,-0.00006647,0.
 00010585,0.00023614,-0.00031298,-0.00014388,0.00017643,0.00020346,0.00
 255819,-0.00136523,-0.00226555,-0.00005963,0.00023951,-0.00012919,0.00
 022748,-0.00011400,0.00024939,0.00039918,-0.00101614,0.00067517,-0.004
 69447,0.08602352,-0.07950007,0.00215681,-0.09116585,0.08295171,0.00516
 651,-0.00087109,0.01905625,-0.00187925,0.00239775,0.00257593,0.0000634
 9,0.00009619,0.00011299,-0.00004020,0.00000124,-0.00004284,-0.00010485
 ,-0.00012317,0.00108664,0.00034630,-0.00077829,0.00016611,-0.00002261,
 -0.00004246,-0.00013516,0.00017843,0.00013145,-0.00017887,-0.00000082,
 -0.00019818,0.00001937,-0.07923812,0.00073464,-0.09258632,-0.00100842,
 -0.00004439,0.00000998,0.08649175,-0.00643988,0.00028387,-0.01547046,0
 .00205909,-0.00179892,-0.00230387,0.00014437,0.00014033,-0.00007258,-0
 .00004578,0.00017864,-0.00025870,0.00030472,0.00070500,-0.00069434,-0.
 00088094,0.00079583,-0.00074956,0.00004959,-0.00004921,-0.00009679,0.0
 0041030,-0.00033120,0.00024602,0.00002311,0.00022194,0.00030723,0.0014
 9063,-0.04929723,0.00056545,0.01173405,0.00184484,0.02830058,-0.002490
 83,0.04872274,-0.00428835,0.00099814,-0.01836622,0.00201871,-0.0033437
 1,-0.00296403,0.00027497,0.00011445,-0.00006620,-0.00032351,-0.0002397
 4,0.00024027,0.00065379,0.00041777,-0.00078676,-0.00048758,0.00110284,
 0.00033263,-0.00002977,0.00004279,0.00004209,0.00017607,-0.00055592,0.
 00065582,0.00017535,0.00016993,0.00033177,-0.08934485,-0.00029608,-0.2
 7434778,-0.00334896,-0.00017453,-0.00876031,0.09760487,0.00223808,0.30
 076480,-0.01681314,-0.00692057,0.00289364,0.00042882,0.00106942,-0.001
 57911,0.00016211,-0.00005182,0.00008946,-0.00045908,-0.00019643,-0.000
 02389,0.00041063,0.00027731,0.00027616,0.00061792,-0.00056823,-0.00042
 928,0.00009711,0.00069248,0.00004288,-0.00015398,0.00000681,-0.0000082
 0,0.00029008,0.00011354,0.00011732,-0.26435609,-0.09094560,0.00399482,
 0.00265791,0.00045881,-0.00003124,-0.01044905,-0.00437576,0.00003363,0
 .28994950,0.01601074,0.00692870,-0.00007876,0.00036044,-0.00004783,0.0
 0030628,-0.00013672,0.00008069,-0.00010021,-0.00002501,0.00008108,-0.0
 0005238,-0.00035546,-0.00013189,-0.00004607,-0.00063294,0.00050609,0.0
 0040122,0.00007154,-0.00032830,-0.00013026,0.00010822,-0.00004250,-0.0
 0000873,-0.00025388,0.00028354,-0.00001658,-0.08941258,-0.08379526,0.0
 0116904,-0.02849831,-0.01053532,-0.00047402,0.00068877,-0.00067980,-0.
 00017259,0.09917815,0.08812567,0.01950455,0.00804577,-0.00236534,0.000
 45307,-0.00084606,-0.00067571,0.00016426,0.00004948,-0.00007801,0.0005
 3015,0.00032297,-0.00006372,-0.00076191,-0.00038976,-0.00023426,-0.000
 44095,0.00059464,0.00040669,-0.00006997,-0.00024119,0.00019963,-0.0001
 5416,-0.00009555,-0.00001094,-0.00014541,0.00016506,-0.00018108,0.0050
 5939,0.00203295,-0.04385808,0.01069041,0.00372568,-0.00086469,-0.02798
 604,-0.01214103,0.00200536,-0.00651689,-0.00012080,0.04632030,0.086585
 23,0.02191344,0.10542371,-0.01356451,0.00754935,-0.08136143,-0.0204276
 8,0.02002437,0.00718768,0.00040465,-0.00041024,0.00056751,0.00046718,0
 .00094730,0.00118792,-0.01217118,-0.00991758,-0.00272652,-0.00095621,-
 0.00088025,-0.00140482,-0.00148593,0.00273134,-0.00270484,-0.00030578,
 0.00294047,0.00043732,-0.02325190,-0.00522876,-0.00134842,0.00085880,-
 0.00068153,-0.00076121,0.00040532,-0.00252751,-0.00329349,-0.00159994,
 0.00132655,-0.00116827,0.14894580,0.02575735,-0.02477728,0.00902751,-0
 .01092853,-0.00086370,-0.01991005,0.03569001,-0.02055894,-0.02009995,0
 .00055435,0.00020666,-0.00016132,0.00029211,0.00025152,0.00009690,-0.0
 2064689,-0.01170504,-0.00243668,0.00142491,-0.00432286,-0.00005649,-0.
 00035311,0.00128280,-0.00045024,0.00044909,0.00035518,-0.00081550,0.00
 719555,0.00289369,-0.00084212,0.00015767,0.00021765,-0.00006037,0.0008
 1270,0.00006362,0.00077652,0.00211968,-0.00088606,-0.00086421,-0.12839
 025,0.15788117,0.00321424,-0.00971536,-0.01426248,-0.01587208,-0.00565
 567,-0.01441925,-0.01838703,0.00481959,0.01655133,0.00077987,-0.000330
 16,0.00035041,0.00080636,0.00052703,0.00056250,-0.00002576,0.00176499,
 0.00034787,0.00070497,0.00052385,0.00072104,0.00069138,-0.00057069,0.0
 0149503,0.00003063,-0.00007059,-0.00026399,0.00841980,0.00133665,0.001
 40168,0.00005531,0.00020801,-0.00001171,0.00021512,0.00042434,0.000728
 98,0.00109351,-0.00054204,-0.00115797,-0.05046405,0.04678552,0.0642092
 8,-0.02338636,0.00454671,-0.01294422,-0.00467928,-0.00485250,0.0101447
 8,-0.03040816,0.03387143,-0.02120170,0.00003748,0.00005781,-0.00010950
 ,0.00031089,0.00022561,-0.00060580,0.00053618,0.00219915,-0.00003597,0
 .00104119,0.00044787,0.00020332,0.00041559,-0.00093013,0.00149154,-0.0
 0017167,-0.00099792,-0.00004621,-0.00549295,-0.00398277,-0.00002180,0.
 00037205,0.00013029,-0.00012510,0.00009152,0.00054483,0.00017911,-0.00
 078279,0.00157050,0.00084177,-0.16390385,0.08586536,0.06873771,0.22602
 016,0.02182053,0.00907726,0.03420403,0.00274585,0.00432048,-0.01679107
 ,0.01358632,-0.21945274,0.25033019,-0.00025557,0.00005712,-0.00001906,
 -0.00016864,0.00009015,0.00051631,-0.00152129,-0.00318798,-0.00132024,
 -0.00156862,0.00082596,-0.00043852,-0.00074478,0.00069946,-0.00151312,
 -0.00093210,0.00207318,0.00126867,-0.00345186,-0.00008058,0.00007177,-
 0.00024479,0.00027115,-0.00005088,-0.00031433,-0.00080045,-0.00107796,
 -0.00085779,0.00044118,-0.00023794,0.09060332,-0.10003840,-0.03950548,
 -0.11869624,0.30570422,0.01262544,0.00643363,0.01570515,-0.00134540,0.
 00159136,-0.00892305,0.00735563,0.22816737,-0.28631443,-0.00019680,0.0
 0004430,0.00011453,0.00006196,0.00033964,0.00035099,-0.00044236,-0.001
 22106,-0.00080011,-0.00056245,-0.00011749,-0.00010345,-0.00031647,0.00
 043464,-0.00033528,-0.00020810,0.00086916,0.00036774,-0.00113336,0.000
 52873,-0.00076238,0.00011176,-0.00021557,-0.00005495,0.00008198,-0.000
 29437,0.00018958,0.00004718,-0.00013411,0.00055783,0.03042891,-0.01098
 952,-0.05625270,-0.04650793,-0.22543672,0.33626053\\0.00000821,0.00000
 604,-0.00000526,-0.00001127,-0.00000634,0.00000734,0.00000117,0.000001
 70,-0.00000050,-0.00000046,-0.00000031,0.00000035,0.00000056,0.0000002
 4,0.00000039,-0.00000322,-0.00000053,-0.00000033,0.00000107,0.00000004
 ,-0.00000142,-0.00000079,0.00000007,0.00000043,0.00000154,0.00000114,0
 .00000123,-0.00000189,-0.00000318,-0.00000067,0.00000098,0.00000022,0.
 00000010,-0.00000044,-0.00000060,0.00000084,0.00000011,0.00000051,-0.0
 0000033,0.00000360,-0.00000179,-0.00000205,0.00000082,0.00000276,-0.00
 000012\\\@


 IN SO FAR AS QUANTUM MECHANICS IS CORRECT, CHEMICAL 
 QUESTIONS ARE PROBLEMS IN APPLIED MATHEMATICS.

                    -- EYRING, WALTER, & KIMBALL, 1944
 Job cpu time:       0 days  0 hours  0 minutes 42.4 seconds.
 Elapsed time:       0 days  0 hours  4 minutes 20.9 seconds.
 File lengths (MBytes):  RWF=    221 Int=      0 D2E=      0 Chk=     11 Scr=      1
 Normal termination of Gaussian 16 at Sat Apr  2 22:32:19 2022.
