
 Primary working directories    : /home/saurabh/molpro_temp2
 Secondary working directories  : /home/saurabh/molpro_temp2
 Wavefunction directory         : /home/saurabh/molpro_wfn2/
 Main file repository           : /home/saurabh/molpro_temp2/

 SHA1      : f6387f0c468d0184d0b38d85973bdb066f718752
 NAME      : 2015.1.44
 ARCHNAME  : linux/x86_64
 FC        : /opt/may/bin/gfortran
 BLASLIB   : -Wl,-_start-group /opt/intel/mkl/lib/intel64/libmkl_gf_ilp64.a /opt/intel/mkl/lib/intel64/libmkl_gnu_thread.a /opt/intel/mkl/lib/intel64/libmkl_core.a -Wl,-_end-group
 id        : ramakrishnan

 Nodes                 nprocs
 mediawiki.tifrh.res.in    8

 Using customized tuning parameters: mindgm=1; mindgv=20; mindgc=4; mindgr=1; noblas=0; minvec=7
 default implementation of scratch files=sf  

 ***,OH
 memory,1,g
 geometry={
 O  0.000000  0.000000  0.108291
 H -0.000000 -0.000000 -0.866332
  }
 basis,O=AVDZ,C=AVDZ,H=VDZ
 {rhf
 wf,9,2,1
 }
 uccsd(t);
 

 Variables initialized (889), CPU time= 0.01 sec
 Commands  initialized (702), CPU time= 0.02 sec, 572 directives.
 Default parameters read. Elapsed time= 0.05 sec

 Checking input...
 Passed
1


                                         ***  PROGRAM SYSTEM MOLPRO  ***
                                       Copyright, TTI GmbH Stuttgart, 2015
                                    Version 2015.1 linked Jun  9 2019 06:55:40


 **********************************************************************************************************************************
 LABEL *   OH                                                                            
  64 bit mpp version                                                                     DATE: 29-Jun-22          TIME: 11:58:05  
 **********************************************************************************************************************************

 SHA1:             f6387f0c468d0184d0b38d85973bdb066f718752
 **********************************************************************************************************************************

Geometry recognized as XYZ


 Variable memory set to 1000000000 words,  buffer space   230000 words

 SETTING BASIS          =    O=AVDZ,C=AVDZ,H=VDZ


 Recomputing integrals since basis changed


 Using spherical harmonics

 Library entry O      S aug-cc-pVDZ          selected for orbital group  1
 Library entry O      P aug-cc-pVDZ          selected for orbital group  1
 Library entry O      D aug-cc-pVDZ          selected for orbital group  1
 Library entry H      S cc-pVDZ              selected for orbital group  2
 Library entry H      P cc-pVDZ              selected for orbital group  2


 PROGRAM * SEWARD (Integral evaluation for generally contracted gaussian basis sets)     Author: Roland Lindh, 1990

 Geometry written to block  1 of record 700


 Point group  C2v 



 ATOMIC COORDINATES

 NR  ATOM    CHARGE       X              Y              Z

   1  O       8.00    0.000000000    0.000000000    0.204640332
   2  H       1.00    0.000000000    0.000000000   -1.637130213

 Bond lengths in Bohr (Angstrom)

 1-2  1.841770545
     ( 0.974623000)

 NUCLEAR CHARGE:                    9
 NUMBER OF PRIMITIVE AOS:          44
 NUMBER OF SYMMETRY AOS:           42
 NUMBER OF CONTRACTIONS:           28   (  14A1  +   6B1  +   6B2  +   2A2  )
 NUMBER OF CORE ORBITALS:           1   (   1A1  +   0B1  +   0B2  +   0A2  )
 NUMBER OF VALENCE ORBITALS:        5   (   3A1  +   1B1  +   1B2  +   0A2  )


 NUCLEAR REPULSION ENERGY    4.34364640

 EXTRA SYMMETRY OF AOS IN SYMMETRY 1:   1 1 1 1 1 1 1 1 2 1   2 1 1 1

 Eigenvalues of metric

         1 0.152E-01 0.181E-01 0.422E-01 0.143E+00 0.258E+00 0.486E+00 0.492E+00 0.614E+00
         2 0.147E+00 0.335E+00 0.612E+00 0.693E+00 0.178E+01 0.244E+01
         3 0.147E+00 0.335E+00 0.612E+00 0.693E+00 0.178E+01 0.244E+01
         4 0.486E+00 0.151E+01


 Contracted 2-electron integrals neglected if value below      1.0D-11
 AO integral compression algorithm  1   Integral accuracy      1.0D-11

     2.097 MB (compressed) written to integral file (100.0%)

     Node minimum: 0.262 MB, node maximum: 0.262 MB


 NUMBER OF SORTED TWO-ELECTRON INTEGRALS:       2666.     BUFFER LENGTH:  32768
 NUMBER OF SEGMENTS:   1  SEGMENT LENGTH:       2666      RECORD LENGTH: 524288

 Memory used in sort:       0.56 MW

 SORT1 READ       31101. AND WROTE        1902. INTEGRALS IN      1 RECORDS. CPU TIME:     0.01 SEC, REAL TIME:     0.03 SEC
 SORT2 READ       17645. AND WROTE       24933. INTEGRALS IN      8 RECORDS. CPU TIME:     0.00 SEC, REAL TIME:     0.00 SEC

 Node minimum:        2380.  Node maximum:        3821. integrals

 OPERATOR DM      FOR CENTER  0  COORDINATES:    0.000000    0.000000    0.000000


 **********************************************************************************************************************************
 DATASETS  * FILE   NREC   LENGTH (MB)   RECORD NAMES
              1      18       19.89       500      610      700      900      950      970     1000      129      960     1100   
                                          VAR    BASINP    GEOM    SYMINP    ZMAT    AOBASIS   BASIS     P2S    ABASIS      S 
                                         1400     1410     1200     1210     1080     1600     1650     1700   
                                           T        V       H0       H01     AOSYM     SMH    MOLCAS    OPER   

 PROGRAMS   *        TOTAL       INT
 CPU TIMES  *         0.34      0.21
 REAL TIME  *         0.89 SEC
 DISK USED  *        33.78 MB      
 GA USED    *         0.00 MB       (max)       0.00 MB       (current)
 **********************************************************************************************************************************


 PROGRAM * RHF-SCF (OPEN SHELL)       Authors: W. Meyer, H.-J. Werner


 NUMBER OF ELECTRONS:       5+    4-    SPACE SYMMETRY=2    SPIN SYMMETRY: Doublet 
 CONVERGENCE THRESHOLDS:    1.00E-05 (Density)    1.00E-07 (Energy)
 MAX. NUMBER OF ITERATIONS:       60
 INTERPOLATION TYPE:            DIIS
 INTERPOLATION STEPS:              2 (START)      1 (STEP)
 LEVEL SHIFTS:                 -0.60 (CLOSED) -0.30 (OPEN) 



 Orbital guess generated from atomic densities. Full valence occupancy:    4   1   1   0

 Molecular orbital dump at record        2100.2

 Initial alpha occupancy:   3   1   1   0
 Initial beta  occupancy:   3   0   1   0
 Wave function symmetry:    2

 ITERATION    DDIFF          GRAD             ENERGY        2-EL.EN.            DIPOLE MOMENTS         DIIS   ORB.
    1      0.000D+00      0.000D+00       -75.38782635     65.565653    0.00000    0.00000   -0.92490    0    start
    2      0.000D+00      0.147D-01       -75.39745996     65.611267    0.00000    0.00000   -0.77527    1    diag,B
    3      0.236D-01      0.409D-02       -75.39869763     65.641531    0.00000    0.00000   -0.72798    2    diag,B
    4      0.877D-02      0.138D-02       -75.39891490     65.639623    0.00000    0.00000   -0.71357    3    diag,B
    5      0.310D-02      0.414D-03       -75.39894057     65.636564    0.00000    0.00000   -0.71090    4    diag,B
    6      0.144D-02      0.986D-04       -75.39894189     65.634374    0.00000    0.00000   -0.71016    5    diag,B
    7      0.456D-03      0.238D-04       -75.39894195     65.634271    0.00000    0.00000   -0.70996    6    fixocc
    8      0.637D-04      0.922D-05       -75.39894196     65.634088    0.00000    0.00000   -0.70980    7    diag,B
    9      0.184D-04      0.314D-05       -75.39894197     65.634097    0.00000    0.00000   -0.70975    8    diag,B
   10      0.120D-04      0.755D-06       -75.39894197     65.634109    0.00000    0.00000   -0.70975    9    orth
   11      0.269D-05      0.171D-06       -75.39894197     65.634111    0.00000    0.00000   -0.70975    0    orth

 Final alpha occupancy:   3   1   1   0
 Final beta  occupancy:   3   0   1   0

 !RHF STATE 1.2 Energy                -75.398941965691
 Nuclear energy                         4.34364640
 One-electron energy                 -112.55964402
 Two-electron energy                   32.81705565
 Virial quotient                       -1.00127051
 !RHF STATE 1.2 Dipole moment           0.00000000     0.00000000    -0.70974744
 Dipole moment /Debye                   0.00000000     0.00000000    -1.80387990

 Orbital energies:

         1.1          2.1          3.1          4.1          5.1
    -20.631671    -1.310320    -0.660839     0.143675     0.205705

         1.2          2.2          3.2
     -0.646443     0.188827     0.896112

         1.3          2.3          3.3
     -0.536716     0.202542     0.923499

         1.4          2.4
      0.955835     3.488476

 HOMO      1.3    -0.536716 =     -14.6048eV
 LUMO      4.1     0.143675 =       3.9096eV
 LUMO-HOMO         0.680390 =      18.5144eV


 **********************************************************************************************************************************
 DATASETS  * FILE   NREC   LENGTH (MB)   RECORD NAMES
              1      18       19.89       500      610      700      900      950      970     1000      129      960     1100   
                                          VAR    BASINP    GEOM    SYMINP    ZMAT    AOBASIS   BASIS     P2S    ABASIS      S 
                                         1400     1410     1200     1210     1080     1600     1650     1700   
                                           T        V       H0       H01     AOSYM     SMH    MOLCAS    OPER   

              2       4        2.77       700     1000      520     2100   
                                         GEOM     BASIS   MCVARS     RHF  

 PROGRAMS   *        TOTAL       RHF       INT
 CPU TIMES  *         0.36      0.02      0.21
 REAL TIME  *         0.94 SEC
 DISK USED  *       215.72 MB      
 SF USED    *         0.00 MB      
 GA USED    *         0.00 MB       (max)       0.00 MB       (current)
 **********************************************************************************************************************************


 PROGRAM * CCSD (Unrestricted open-shell coupled cluster)     Authors: C. Hampel, H.-J. Werner, 1991, M. Deegan, P.J. Knowles, 1992


 Convergence thresholds:  THRVAR = 1.00D-08  THRDEN = 1.00D-06

 CCSD(T)     terms to be evaluated (factor= 1.000)


 Number of core orbitals:           1 (   1   0   0   0 )
 Number of closed-shell orbitals:   3 (   2   0   1   0 )
 Number of active  orbitals:        1 (   0   1   0   0 )
 Number of external orbitals:      23 (  11   5   5   2 )

 Memory could be reduced to 0.33 Mwords without degradation in triples

 Number of N-1 electron functions:               7
 Number of N-2 electron functions:              21
 Number of singly external CSFs:                60
 Number of doubly external CSFs:              2508
 Total number of CSFs:                        2568

 Molecular orbitals read from record     2100.2  Type=RHF/CANONICAL (state 1.2)

 Integral transformation finished. Total CPU:   0.00 sec, npass=  1  Memory used:   0.07 MW

 Starting RMP2 calculation

 ITER.      SQ.NORM     CORR.ENERGY   TOTAL ENERGY   ENERGY CHANGE        DEN1      VAR(S)    VAR(P)  DIIS     TIME
   1      1.04298106    -0.16554819   -75.56449015    -0.16554819    -0.00041544  0.41D-05  0.13D-03  1  1     0.01
   2      1.04329128    -0.16599024   -75.56493220    -0.00044205    -0.00000042  0.24D-07  0.15D-06  2  2     0.01
   3      1.04329774    -0.16599486   -75.56493683    -0.00000463    -0.00000000  0.14D-09  0.28D-09  3  3     0.01
   4      1.04329779    -0.16599485   -75.56493682     0.00000001    -0.00000000  0.66D-12  0.20D-11  4  4     0.01

 Norm of t1 vector:      0.03328070      S-energy:    -0.00292827      T1 diagnostic:  0.00013131
 Norm of t2 vector:      0.20540249      P-energy:    -0.16306659
                                         Alpha-Beta:  -0.12328414
                                         Alpha-Alpha: -0.02700566
                                         Beta-Beta:   -0.01277678

 Spin contamination <S**2-Sz**2-Sz>     0.00411783
  Reference energy                    -75.398941965691
  RHF-RMP2 correlation energy          -0.165994852302
 !RHF-RMP2 energy                     -75.564936817993

 Starting UCCSD calculation

 ITER.      SQ.NORM     CORR.ENERGY   TOTAL ENERGY   ENERGY CHANGE        DEN1      VAR(S)    VAR(P)  DIIS     TIME
   1      1.04873550    -0.17517731   -75.57411927    -0.17517731    -0.00412251  0.65D-03  0.86D-03  1  1     0.01
   2      1.05341304    -0.17983017   -75.57877213    -0.00465286    -0.00025631  0.29D-04  0.78D-04  2  2     0.01
   3      1.05509680    -0.18063570   -75.57957767    -0.00080554    -0.00002884  0.91D-05  0.87D-05  3  3     0.01
   4      1.05569653    -0.18084103   -75.57978299    -0.00020532    -0.00000458  0.28D-06  0.20D-05  4  4     0.01
   5      1.05587911    -0.18087371   -75.57981568    -0.00003268    -0.00000066  0.32D-07  0.29D-06  5  5     0.02
   6      1.05591392    -0.18087954   -75.57982150    -0.00000583    -0.00000006  0.21D-07  0.18D-07  6  6     0.02
   7      1.05591259    -0.18087972   -75.57982169    -0.00000018    -0.00000001  0.41D-08  0.20D-08  6  1     0.02

 Norm of t1 vector:      0.06026415      S-energy:    -0.00332568      T1 diagnostic:  0.01115769
                                                                       D1 diagnostic:  0.02230247
 Norm of t2 vector:      0.22864999      P-energy:    -0.17755404
                                         Alpha-Beta:  -0.14002099
                                         Alpha-Alpha: -0.02576035
                                         Beta-Beta:   -0.01177270

 Spin contamination <S**2-Sz**2-Sz>     0.00157660

 Memory could be reduced to 0.34 Mwords without degradation in triples


 RESULTS
 =======

  Reference energy                    -75.398941965691
  UCCSD singles energy                 -0.003325675846
  UCCSD pair energy                    -0.177554044943
  UCCSD correlation energy             -0.180879720789
  Triples (T) contribution             -0.003282804627
  Total correlation energy             -0.184162525417

  RHF-UCCSD energy                    -75.579821686480
  RHF-UCCSD[T] energy                 -75.583348435587
  RHF-UCCSD-T energy                  -75.582994572222
 !RHF-UCCSD(T) energy                 -75.583104491107

 Program statistics:

 Available memory in ccsd:               999999732
 Min. memory needed in ccsd:                 14338
 Max. memory used in ccsd:                   16554
 Max. memory used in cckext:                 49484 ( 7 integral passes)
 Max. memory used in cckint:                 74363 ( 1 integral passes)



 **********************************************************************************************************************************
 DATASETS  * FILE   NREC   LENGTH (MB)   RECORD NAMES
              1      18       19.89       500      610      700      900      950      970     1000      129      960     1100   
                                          VAR    BASINP    GEOM    SYMINP    ZMAT    AOBASIS   BASIS     P2S    ABASIS      S 
                                         1400     1410     1200     1210     1080     1600     1650     1700   
                                           T        V       H0       H01     AOSYM     SMH    MOLCAS    OPER   

              2       4        2.77       700     1000      520     2100   
                                         GEOM     BASIS   MCVARS     RHF  

 PROGRAMS   *        TOTAL  UCCSD(T)       RHF       INT
 CPU TIMES  *         0.42      0.05      0.02      0.21
 REAL TIME  *         1.02 SEC
 DISK USED  *       217.88 MB      
 SF USED    *         0.76 MB      
 GA USED    *         0.00 MB       (max)       0.00 MB       (current)
 **********************************************************************************************************************************

 UCCSD(T)/O=AVDZ,C=AVDZ,H=VDZ energy=    -75.583104491107

        UCCSD(T)        RHF-SCF 
    -75.58310449    -75.39894197
 **********************************************************************************************************************************
 Molpro calculation terminated
 Variable memory released
