
 Primary working directories    : /home/saurabh/molpro_temp2
 Secondary working directories  : /home/saurabh/molpro_temp2
 Wavefunction directory         : /home/saurabh/molpro_wfn2/
 Main file repository           : /home/saurabh/molpro_temp2/

 SHA1      : f6387f0c468d0184d0b38d85973bdb066f718752
 NAME      : 2015.1.44
 ARCHNAME  : linux/x86_64
 FC        : /opt/may/bin/gfortran
 BLASLIB   : -Wl,-_start-group /opt/intel/mkl/lib/intel64/libmkl_gf_ilp64.a /opt/intel/mkl/lib/intel64/libmkl_gnu_thread.a /opt/intel/mkl/lib/intel64/libmkl_core.a -Wl,-_end-group
 id        : ramakrishnan

 Nodes                 nprocs
 mediawiki.tifrh.res.in    8

 Using customized tuning parameters: mindgm=1; mindgv=20; mindgc=4; mindgr=1; noblas=0; minvec=7
 default implementation of scratch files=sf  

 ***,OOH
 memory,25,g
 geometry={
 O  0.055362   0.718634  0.000000
 O  0.055362  -0.610419  0.000000
 H -0.885791  -0.865721  0.000000
  }
 basis,O=AVDZ,C=AVDZ,H=VDZ
 {rhf
 wf,17,2,1
 }
 uccsd(t);
 

 Variables initialized (889), CPU time= 0.02 sec
 Commands  initialized (702), CPU time= 0.01 sec, 572 directives.
 Default parameters read. Elapsed time= 0.07 sec

 Checking input...
 Passed
1


                                         ***  PROGRAM SYSTEM MOLPRO  ***
                                       Copyright, TTI GmbH Stuttgart, 2015
                                    Version 2015.1 linked Jun  9 2019 06:55:40


 **********************************************************************************************************************************
 LABEL *   OOH                                                                           
  64 bit mpp version                                                                     DATE: 28-Jun-22          TIME: 19:03:37  
 **********************************************************************************************************************************

 SHA1:             f6387f0c468d0184d0b38d85973bdb066f718752
 **********************************************************************************************************************************

Geometry recognized as XYZ


 Variable memory set to ********** words,  buffer space   230000 words

 SETTING BASIS          =    O=AVDZ,C=AVDZ,H=VDZ


 Recomputing integrals since basis changed


 Using spherical harmonics

 Library entry O      S aug-cc-pVDZ          selected for orbital group  1
 Library entry O      P aug-cc-pVDZ          selected for orbital group  1
 Library entry O      D aug-cc-pVDZ          selected for orbital group  1
 Library entry H      S cc-pVDZ              selected for orbital group  2
 Library entry H      P cc-pVDZ              selected for orbital group  2


 PROGRAM * SEWARD (Integral evaluation for generally contracted gaussian basis sets)     Author: Roland Lindh, 1990

 Geometry written to block  1 of record 700


 Point group  Cs  



 ATOMIC COORDINATES

 NR  ATOM    CHARGE       X              Y              Z

   1  O       8.00    0.104619018    1.358021444    0.000000000
   2  O       8.00    0.104619018   -1.153524731    0.000000000
   3  H       1.00   -1.673902394   -1.635975590    0.000000000

 Bond lengths in Bohr (Angstrom)

 1-2  2.511546175  2-3  1.842796039
     ( 1.329053000)     ( 0.975165668)

 Bond angles

  1-2-3  105.17711549

 NUCLEAR CHARGE:                   17
 NUMBER OF PRIMITIVE AOS:          81
 NUMBER OF SYMMETRY AOS:           77
 NUMBER OF CONTRACTIONS:           51   (  36A'  +  15A"  )
 NUMBER OF CORE ORBITALS:           2   (   2A'  +   0A"  )
 NUMBER OF VALENCE ORBITALS:        9   (   7A'  +   2A"  )


 NUCLEAR REPULSION ENERGY   32.12080174

 Eigenvalues of metric

         1 0.970E-03 0.298E-02 0.141E-01 0.170E-01 0.328E-01 0.493E-01 0.811E-01 0.996E-01
         2 0.575E-01 0.121E+00 0.161E+00 0.269E+00 0.314E+00 0.455E+00 0.503E+00 0.623E+00


 Contracted 2-electron integrals neglected if value below      1.0D-11
 AO integral compression algorithm  1   Integral accuracy      1.0D-11

     3.670 MB (compressed) written to integral file ( 52.4%)

     Node minimum: 0.262 MB, node maximum: 0.524 MB


 NUMBER OF SORTED TWO-ELECTRON INTEGRALS:      58818.     BUFFER LENGTH:  32768
 NUMBER OF SEGMENTS:   1  SEGMENT LENGTH:      58818      RECORD LENGTH: 524288

 Memory used in sort:       0.62 MW

 SORT1 READ      643585. AND WROTE       37479. INTEGRALS IN      1 RECORDS. CPU TIME:     0.03 SEC, REAL TIME:     0.05 SEC
 SORT2 READ      307055. AND WROTE      469131. INTEGRALS IN     16 RECORDS. CPU TIME:     0.00 SEC, REAL TIME:     0.00 SEC

 Node minimum:       58328.  Node maximum:       58896. integrals

 OPERATOR DM      FOR CENTER  0  COORDINATES:    0.000000    0.000000    0.000000


 **********************************************************************************************************************************
 DATASETS  * FILE   NREC   LENGTH (MB)   RECORD NAMES
              1      18       19.96       500      610      700      900      950      970     1000      129      960     1100   
                                          VAR    BASINP    GEOM    SYMINP    ZMAT    AOBASIS   BASIS     P2S    ABASIS      S 
                                         1400     1410     1200     1210     1080     1600     1650     1700   
                                           T        V       H0       H01     AOSYM     SMH    MOLCAS    OPER   

 PROGRAMS   *        TOTAL       INT
 CPU TIMES  *        13.09     12.95
 REAL TIME  *        24.25 SEC
 DISK USED  *        35.41 MB      
 GA USED    *         0.00 MB       (max)       0.00 MB       (current)
 **********************************************************************************************************************************


 PROGRAM * RHF-SCF (OPEN SHELL)       Authors: W. Meyer, H.-J. Werner


 NUMBER OF ELECTRONS:       9+    8-    SPACE SYMMETRY=2    SPIN SYMMETRY: Doublet 
 CONVERGENCE THRESHOLDS:    1.00E-05 (Density)    1.00E-07 (Energy)
 MAX. NUMBER OF ITERATIONS:       60
 INTERPOLATION TYPE:            DIIS
 INTERPOLATION STEPS:              2 (START)      1 (STEP)
 LEVEL SHIFTS:                 -0.60 (CLOSED) -0.30 (OPEN) 



 Orbital guess generated from atomic densities. Full valence occupancy:    9   2

 Molecular orbital dump at record        2100.2

 Initial alpha occupancy:   7   2
 Initial beta  occupancy:   7   1
 Wave function symmetry:    2

 ITERATION    DDIFF          GRAD             ENERGY        2-EL.EN.            DIPOLE MOMENTS         DIIS   ORB.
    1      0.000D+00      0.000D+00      -150.13407363    175.305163   -0.90855   -1.16393    0.00000    0    start
    2      0.000D+00      0.134D-01      -150.17425056    176.943013   -0.78940   -0.66552    0.00000    1    diag,B
    3      0.169D-01      0.544D-02      -150.18161936    176.816624   -0.74150   -0.65431    0.00000    2    diag,B
    4      0.690D-02      0.200D-02      -150.18662318    176.861720   -0.71885   -0.53006    0.00000    3    diag,B
    5      0.299D-02      0.165D-02      -150.19029543    176.884556   -0.70845   -0.46145    0.00000    4    diag,B
    6      0.233D-02      0.125D-02      -150.19463735    176.903135   -0.70117   -0.37616    0.00000    5    diag,B
    7      0.405D-02      0.652D-03      -150.19566924    176.935147   -0.69852   -0.34643    0.00000    6    fixocc
    8      0.250D-02      0.237D-03      -150.19573981    176.936735   -0.69727   -0.34583    0.00000    7    diag,B
    9      0.786D-03      0.784D-04      -150.19574492    176.937602   -0.69704   -0.34876    0.00000    8    diag,B
   10      0.243D-03      0.304D-04      -150.19574533    176.937623   -0.69710   -0.35032    0.00000    9    orth
   11      0.803D-04      0.189D-04      -150.19574553    176.937318   -0.69693   -0.35036    0.00000    9    diag,B
   12      0.765D-04      0.110D-04      -150.19574561    176.937348   -0.69693   -0.35046    0.00000    9    diag,B
   13      0.223D-04      0.279D-05      -150.19574561    176.937308   -0.69690   -0.35046    0.00000    9    diag,B
   14      0.112D-04      0.128D-05      -150.19574562    176.937327   -0.69690   -0.35044    0.00000    9    diag,B
   15      0.425D-05      0.396D-06      -150.19574562    176.937320   -0.69690   -0.35044    0.00000    0    orth

 Final alpha occupancy:   7   2
 Final beta  occupancy:   7   1

 !RHF STATE 1.2 Energy               -150.195745615434
 Nuclear energy                        32.12080174
 One-electron energy                 -270.78520723
 Two-electron energy                   88.46865988
 Virial quotient                       -1.00085612
 !RHF STATE 1.2 Dipole moment          -0.69690266    -0.35043768     0.00000000
 Dipole moment /Debye                  -1.77123387    -0.89066539     0.00000000

 Orbital energies:

         1.1          2.1          3.1          4.1          5.1          6.1          7.1          8.1          9.1
    -20.680418   -20.675778    -1.547853    -1.162411    -0.764162    -0.664960    -0.507191     0.111837     0.151830

         1.2          2.2          3.2          4.2
     -0.625217    -0.591903     0.189139     0.239871

 HOMO      7.1    -0.507191 =     -13.8014eV
 LUMO      8.1     0.111837 =       3.0432eV
 LUMO-HOMO         0.619027 =      16.8446eV


 **********************************************************************************************************************************
 DATASETS  * FILE   NREC   LENGTH (MB)   RECORD NAMES
              1      18       19.96       500      610      700      900      950      970     1000      129      960     1100   
                                          VAR    BASINP    GEOM    SYMINP    ZMAT    AOBASIS   BASIS     P2S    ABASIS      S 
                                         1400     1410     1200     1210     1080     1600     1650     1700   
                                           T        V       H0       H01     AOSYM     SMH    MOLCAS    OPER   

              2       4        2.83       700     1000      520     2100   
                                         GEOM     BASIS   MCVARS     RHF  

 PROGRAMS   *        TOTAL       RHF       INT
 CPU TIMES  *        13.13      0.04     12.95
 REAL TIME  *        24.34 SEC
 DISK USED  *       219.88 MB      
 SF USED    *         0.01 MB      
 GA USED    *         0.00 MB       (max)       0.00 MB       (current)
 **********************************************************************************************************************************


 PROGRAM * CCSD (Unrestricted open-shell coupled cluster)     Authors: C. Hampel, H.-J. Werner, 1991, M. Deegan, P.J. Knowles, 1992


 Convergence thresholds:  THRVAR = 1.00D-08  THRDEN = 1.00D-06

 CCSD(T)     terms to be evaluated (factor= 1.000)


 Number of core orbitals:           2 (   2   0 )
 Number of closed-shell orbitals:   6 (   5   1 )
 Number of active  orbitals:        1 (   0   1 )
 Number of external orbitals:      42 (  29  13 )

 Memory could be reduced to 1.08 Mwords without degradation in triples

 Number of N-1 electron functions:              13
 Number of N-2 electron functions:              78
 Number of singly external CSFs:               332
 Number of doubly external CSFs:             56706
 Total number of CSFs:                       57038

 Molecular orbitals read from record     2100.2  Type=RHF/CANONICAL (state 1.2)

 Integral transformation finished. Total CPU:   0.01 sec, npass=  1  Memory used:   0.26 MW

 Starting RMP2 calculation

 ITER.      SQ.NORM     CORR.ENERGY   TOTAL ENERGY   ENERGY CHANGE        DEN1      VAR(S)    VAR(P)  DIIS     TIME
   1      1.10153371    -0.37046203  -150.56620764    -0.37046203    -0.00130456  0.27D-04  0.42D-03  1  1     0.02
   2      1.10264340    -0.37187768  -150.56762329    -0.00141565    -0.00000406  0.80D-06  0.13D-05  2  2     0.02
   3      1.10268675    -0.37190366  -150.56764928    -0.00002598    -0.00000004  0.28D-07  0.70D-08  3  3     0.02
   4      1.10268887    -0.37190431  -150.56764993    -0.00000065    -0.00000000  0.47D-09  0.84D-10  4  4     0.02

 Norm of t1 vector:      0.04476812      S-energy:    -0.00404648      T1 diagnostic:  0.00105994
 Norm of t2 vector:      0.31730851      P-energy:    -0.36785783
                                         Alpha-Beta:  -0.27050977
                                         Alpha-Alpha: -0.05162652
                                         Beta-Beta:   -0.04572154

 Spin contamination <S**2-Sz**2-Sz>     0.00397365
  Reference energy                   -150.195745615434
  RHF-RMP2 correlation energy          -0.371904311137
 !RHF-RMP2 energy                    -150.567649926571

 Starting UCCSD calculation

 ITER.      SQ.NORM     CORR.ENERGY   TOTAL ENERGY   ENERGY CHANGE        DEN1      VAR(S)    VAR(P)  DIIS     TIME
   1      1.10589076    -0.37245940  -150.56820502    -0.37245940    -0.01247159  0.47D-02  0.18D-02  1  1     0.04
   2      1.11949481    -0.38383929  -150.57958490    -0.01137989    -0.00210724  0.58D-03  0.52D-03  2  2     0.06
   3      1.13175171    -0.38752399  -150.58326961    -0.00368470    -0.00066647  0.58D-03  0.48D-04  3  3     0.08
   4      1.14359028    -0.38980315  -150.58554876    -0.00227915    -0.00020889  0.17D-03  0.19D-04  4  4     0.10
   5      1.15551475    -0.39121715  -150.58696276    -0.00141400    -0.00003803  0.27D-04  0.42D-05  5  5     0.12
   6      1.16064907    -0.39166499  -150.58741061    -0.00044784    -0.00000432  0.16D-05  0.11D-05  6  6     0.14
   7      1.16158359    -0.39173507  -150.58748069    -0.00007009    -0.00000066  0.20D-06  0.19D-06  6  1     0.15
   8      1.16174228    -0.39173495  -150.58748057     0.00000012    -0.00000008  0.18D-07  0.29D-07  6  3     0.17
   9      1.16182520    -0.39174448  -150.58749010    -0.00000953    -0.00000001  0.27D-08  0.43D-08  6  2     0.19
  10      1.16180334    -0.39174148  -150.58748710     0.00000300    -0.00000000  0.55D-09  0.71D-09  6  4     0.21
  11      1.16182144    -0.39174392  -150.58748953    -0.00000244    -0.00000000  0.19D-09  0.11D-09  6  5     0.23
  12      1.16181183    -0.39174266  -150.58748827     0.00000126    -0.00000000  0.33D-10  0.16D-10  6  1     0.24
  13      1.16181397    -0.39174291  -150.58748853    -0.00000025    -0.00000000  0.46D-11  0.32D-11  6  6     0.27

 Norm of t1 vector:      0.20432973      S-energy:    -0.00462649      T1 diagnostic:  0.03853392
                                                                       D1 diagnostic:  0.13002877
 Norm of t2 vector:      0.34650156      P-energy:    -0.38711642
                                         Alpha-Beta:  -0.29817520
                                         Alpha-Alpha: -0.04595312
                                         Beta-Beta:   -0.04298810

 Singles amplitudes (print threshold =  0.500E-01):

         I         SYM. A    A   T(IA) [Beta-Beta]

         6         2         1      0.18388845

 Spin contamination <S**2-Sz**2-Sz>     0.00342862

 Memory could be reduced to 1.19 Mwords without degradation in triples


 RESULTS
 =======

  Reference energy                   -150.195745615434
  UCCSD singles energy                 -0.004626489609
  UCCSD pair energy                    -0.387116420333
  UCCSD correlation energy             -0.391742909942
  Triples (T) contribution             -0.012038466516
  Total correlation energy             -0.403781376458

  RHF-UCCSD energy                   -150.587488525375
  RHF-UCCSD[T] energy                -150.601791223971
  RHF-UCCSD-T energy                 -150.599250826806
 !RHF-UCCSD(T) energy                -150.599526991892

 Program statistics:

 Available memory in ccsd:             24999999438
 Min. memory needed in ccsd:                197538
 Max. memory used in ccsd:                  262045
 Max. memory used in cckext:                298518 (13 integral passes)
 Max. memory used in cckint:                263676 ( 1 integral passes)



 **********************************************************************************************************************************
 DATASETS  * FILE   NREC   LENGTH (MB)   RECORD NAMES
              1      18       19.96       500      610      700      900      950      970     1000      129      960     1100   
                                          VAR    BASINP    GEOM    SYMINP    ZMAT    AOBASIS   BASIS     P2S    ABASIS      S 
                                         1400     1410     1200     1210     1080     1600     1650     1700   
                                           T        V       H0       H01     AOSYM     SMH    MOLCAS    OPER   

              2       4        2.83       700     1000      520     2100   
                                         GEOM     BASIS   MCVARS     RHF  

 PROGRAMS   *        TOTAL  UCCSD(T)       RHF       INT
 CPU TIMES  *        13.48      0.35      0.04     12.95
 REAL TIME  *        24.80 SEC
 DISK USED  *       275.27 MB      
 SF USED    *        14.28 MB      
 GA USED    *         0.00 MB       (max)       0.00 MB       (current)
 **********************************************************************************************************************************

 UCCSD(T)/O=AVDZ,C=AVDZ,H=VDZ energy=   -150.599526991892

        UCCSD(T)        RHF-SCF 
   -150.59952699   -150.19574562
 **********************************************************************************************************************************
 Molpro calculation terminated
 Variable memory released
