
 Primary working directories    : /home/saurabh/molpro_temp2
 Secondary working directories  : /home/saurabh/molpro_temp2
 Wavefunction directory         : /home/saurabh/molpro_wfn2/
 Main file repository           : /home/saurabh/molpro_temp2/

 SHA1      : f6387f0c468d0184d0b38d85973bdb066f718752
 NAME      : 2015.1.44
 ARCHNAME  : linux/x86_64
 FC        : /opt/may/bin/gfortran
 BLASLIB   : -Wl,-_start-group /opt/intel/mkl/lib/intel64/libmkl_gf_ilp64.a /opt/intel/mkl/lib/intel64/libmkl_gnu_thread.a /opt/intel/mkl/lib/intel64/libmkl_core.a -Wl,-_end-group
 id        : ramakrishnan

 Nodes                 nprocs
 mediawiki.tifrh.res.in    8

 Using customized tuning parameters: mindgm=1; mindgv=20; mindgc=4; mindgr=1; noblas=0; minvec=7
 default implementation of scratch files=sf  

 ***,OOH
 memory,25,g
 geometry={
 O  0.055362   0.718634  0.000000
 O  0.055362  -0.610419  0.000000
 H -0.885791  -0.865721  0.000000
  }
 basis,O=AVTZ,C=AVTZ,H=VTZ
 {rhf
 wf,17,2,1
 }
 uccsd(t);
 

 Variables initialized (889), CPU time= 0.01 sec
 Commands  initialized (702), CPU time= 0.01 sec, 572 directives.
 Default parameters read. Elapsed time= 0.05 sec

 Checking input...
 Passed
1


                                         ***  PROGRAM SYSTEM MOLPRO  ***
                                       Copyright, TTI GmbH Stuttgart, 2015
                                    Version 2015.1 linked Jun  9 2019 06:55:40


 **********************************************************************************************************************************
 LABEL *   OOH                                                                           
  64 bit mpp version                                                                     DATE: 28-Jun-22          TIME: 19:05:37  
 **********************************************************************************************************************************

 SHA1:             f6387f0c468d0184d0b38d85973bdb066f718752
 **********************************************************************************************************************************

Geometry recognized as XYZ


 Variable memory set to ********** words,  buffer space   230000 words

 SETTING BASIS          =    O=AVTZ,C=AVTZ,H=VTZ


 Recomputing integrals since basis changed


 Using spherical harmonics

 Library entry O      S aug-cc-pVTZ          selected for orbital group  1
 Library entry O      P aug-cc-pVTZ          selected for orbital group  1
 Library entry O      D aug-cc-pVTZ          selected for orbital group  1
 Library entry O      F aug-cc-pVTZ          selected for orbital group  1
 Library entry H      S cc-pVTZ              selected for orbital group  2
 Library entry H      P cc-pVTZ              selected for orbital group  2
 Library entry H      D cc-pVTZ              selected for orbital group  2


 PROGRAM * SEWARD (Integral evaluation for generally contracted gaussian basis sets)     Author: Roland Lindh, 1990

 Geometry written to block  1 of record 700


 Point group  Cs  



 ATOMIC COORDINATES

 NR  ATOM    CHARGE       X              Y              Z

   1  O       8.00    0.104619018    1.358021444    0.000000000
   2  O       8.00    0.104619018   -1.153524731    0.000000000
   3  H       1.00   -1.673902394   -1.635975590    0.000000000

 Bond lengths in Bohr (Angstrom)

 1-2  2.511546175  2-3  1.842796039
     ( 1.329053000)     ( 0.975165668)

 Bond angles

  1-2-3  105.17711549

 NUCLEAR CHARGE:                   17
 NUMBER OF PRIMITIVE AOS:         151
 NUMBER OF SYMMETRY AOS:          132
 NUMBER OF CONTRACTIONS:          106   (  70A'  +  36A"  )
 NUMBER OF CORE ORBITALS:           2   (   2A'  +   0A"  )
 NUMBER OF VALENCE ORBITALS:        9   (   7A'  +   2A"  )


 NUCLEAR REPULSION ENERGY   32.12080174

 Eigenvalues of metric

         1 0.277E-03 0.730E-03 0.181E-02 0.424E-02 0.607E-02 0.649E-02 0.783E-02 0.989E-02
         2 0.733E-02 0.344E-01 0.398E-01 0.497E-01 0.758E-01 0.122E+00 0.152E+00 0.165E+00


 Contracted 2-electron integrals neglected if value below      1.0D-11
 AO integral compression algorithm  1   Integral accuracy      1.0D-11

     34.865 MB (compressed) written to integral file ( 41.4%)

     Node minimum: 3.408 MB, node maximum: 4.981 MB


 NUMBER OF SORTED TWO-ELECTRON INTEGRALS:    1032293.     BUFFER LENGTH:  32768
 NUMBER OF SEGMENTS:   1  SEGMENT LENGTH:    1032293      RECORD LENGTH: 524288

 Memory used in sort:       1.59 MW

 SORT1 READ    10510951. AND WROTE      719413. INTEGRALS IN      3 RECORDS. CPU TIME:     0.11 SEC, REAL TIME:     0.16 SEC
 SORT2 READ     5761242. AND WROTE     8275996. INTEGRALS IN    136 RECORDS. CPU TIME:     0.02 SEC, REAL TIME:     0.03 SEC

 Node minimum:     1031507.  Node maximum:     1040538. integrals

 OPERATOR DM      FOR CENTER  0  COORDINATES:    0.000000    0.000000    0.000000


 **********************************************************************************************************************************
 DATASETS  * FILE   NREC   LENGTH (MB)   RECORD NAMES
              1      18       20.14       500      610      700      900      950      970     1000      129      960     1100   
                                          VAR    BASINP    GEOM    SYMINP    ZMAT    AOBASIS   BASIS     P2S    ABASIS      S 
                                         1400     1410     1200     1210     1080     1600     1650     1700   
                                           T        V       H0       H01     AOSYM     SMH    MOLCAS    OPER   

 PROGRAMS   *        TOTAL       INT
 CPU TIMES  *         4.32      4.19
 REAL TIME  *        15.63 SEC
 DISK USED  *       128.44 MB      
 GA USED    *         0.00 MB       (max)       0.00 MB       (current)
 **********************************************************************************************************************************


 PROGRAM * RHF-SCF (OPEN SHELL)       Authors: W. Meyer, H.-J. Werner


 NUMBER OF ELECTRONS:       9+    8-    SPACE SYMMETRY=2    SPIN SYMMETRY: Doublet 
 CONVERGENCE THRESHOLDS:    1.00E-05 (Density)    1.00E-07 (Energy)
 MAX. NUMBER OF ITERATIONS:       60
 INTERPOLATION TYPE:            DIIS
 INTERPOLATION STEPS:              2 (START)      1 (STEP)
 LEVEL SHIFTS:                 -0.60 (CLOSED) -0.30 (OPEN) 



 Orbital guess generated from atomic densities. Full valence occupancy:    9   2

 Molecular orbital dump at record        2100.2

 Initial alpha occupancy:   7   2
 Initial beta  occupancy:   7   1
 Wave function symmetry:    2

 ITERATION    DDIFF          GRAD             ENERGY        2-EL.EN.            DIPOLE MOMENTS         DIIS   ORB.
    1      0.000D+00      0.000D+00      -150.17000520    175.541074   -0.90826   -1.16165    0.00000    0    start
    2      0.000D+00      0.944D-02      -150.21034593    177.134721   -0.78451   -0.66188    0.00000    1    diag,B
    3      0.737D-02      0.396D-02      -150.21778746    177.003305   -0.73660   -0.65051    0.00000    2    diag,B
    4      0.312D-02      0.140D-02      -150.22270830    177.053568   -0.71275   -0.53231    0.00000    3    diag,B
    5      0.142D-02      0.115D-02      -150.22665904    177.080912   -0.69909   -0.45920    0.00000    4    diag,B
    6      0.114D-02      0.859D-03      -150.23111276    177.099365   -0.68984   -0.37277    0.00000    5    diag,B
    7      0.182D-02      0.481D-03      -150.23237922    177.133146   -0.68781   -0.33906    0.00000    6    fixocc
    8      0.133D-02      0.172D-03      -150.23245971    177.133914   -0.68668   -0.33791    0.00000    7    diag,B
    9      0.389D-03      0.642D-04      -150.23246703    177.135216   -0.68601   -0.34036    0.00000    8    diag,B
   10      0.151D-03      0.269D-04      -150.23246758    177.135596   -0.68616   -0.34233    0.00000    9    orth
   11      0.552D-04      0.199D-04      -150.23246815    177.135291   -0.68594   -0.34245    0.00000    9    diag,B
   12      0.442D-04      0.684D-05      -150.23246822    177.135278   -0.68596   -0.34261    0.00000    9    diag,B
   13      0.911D-05      0.234D-05      -150.23246822    177.135305   -0.68596   -0.34261    0.00000    0    orth

 Final alpha occupancy:   7   2
 Final beta  occupancy:   7   1

 !RHF STATE 1.2 Energy               -150.232468223402
 Nuclear energy                        32.12080174
 One-electron energy                 -270.92092261
 Two-electron energy                   88.56765265
 Virial quotient                       -1.00124176
 !RHF STATE 1.2 Dipole moment          -0.68595737    -0.34260557     0.00000000
 Dipole moment /Debye                  -1.74341552    -0.87075947     0.00000000

 Orbital energies:

         1.1          2.1          3.1          4.1          5.1          6.1          7.1          8.1          9.1
    -20.672847   -20.668314    -1.542001    -1.157762    -0.762078    -0.662740    -0.506502     0.091356     0.124807

         1.2          2.2          3.2          4.2
     -0.624451    -0.592238     0.156017     0.201243

 HOMO      7.1    -0.506502 =     -13.7826eV
 LUMO      8.1     0.091356 =       2.4859eV
 LUMO-HOMO         0.597859 =      16.2686eV


 **********************************************************************************************************************************
 DATASETS  * FILE   NREC   LENGTH (MB)   RECORD NAMES
              1      18       20.15       500      610      700      900      950      970     1000      129      960     1100   
                                          VAR    BASINP    GEOM    SYMINP    ZMAT    AOBASIS   BASIS     P2S    ABASIS      S 
                                         1400     1410     1200     1210     1080     1600     1650     1700   
                                           T        V       H0       H01     AOSYM     SMH    MOLCAS    OPER   

              2       4        2.97       700     1000      520     2100   
                                         GEOM     BASIS   MCVARS     RHF  

 PROGRAMS   *        TOTAL       RHF       INT
 CPU TIMES  *         4.44      0.13      4.19
 REAL TIME  *        15.79 SEC
 DISK USED  *       321.07 MB      
 SF USED    *         0.03 MB      
 GA USED    *         0.00 MB       (max)       0.00 MB       (current)
 **********************************************************************************************************************************


 PROGRAM * CCSD (Unrestricted open-shell coupled cluster)     Authors: C. Hampel, H.-J. Werner, 1991, M. Deegan, P.J. Knowles, 1992


 Convergence thresholds:  THRVAR = 1.00D-08  THRDEN = 1.00D-06

 CCSD(T)     terms to be evaluated (factor= 1.000)


 Number of core orbitals:           2 (   2   0 )
 Number of closed-shell orbitals:   6 (   5   1 )
 Number of active  orbitals:        1 (   0   1 )
 Number of external orbitals:      97 (  63  34 )

 Memory could be reduced to 7.81 Mwords without degradation in triples

 Number of N-1 electron functions:              13
 Number of N-2 electron functions:              78
 Number of singly external CSFs:               735
 Number of doubly external CSFs:            292971
 Total number of CSFs:                      293706

 Molecular orbitals read from record     2100.2  Type=RHF/CANONICAL (state 1.2)

 Integral transformation finished. Total CPU:   0.10 sec, npass=  1  Memory used:   1.67 MW

 Starting RMP2 calculation

 ITER.      SQ.NORM     CORR.ENERGY   TOTAL ENERGY   ENERGY CHANGE        DEN1      VAR(S)    VAR(P)  DIIS     TIME
   1      1.10913865    -0.45830565  -150.69077387    -0.45830565    -0.00133418  0.27D-04  0.43D-03  1  1     0.36
   2      1.11026530    -0.45974646  -150.69221468    -0.00144081    -0.00000454  0.82D-06  0.15D-05  2  2     0.38
   3      1.11031425    -0.45977892  -150.69224715    -0.00003247    -0.00000005  0.33D-07  0.87D-08  3  3     0.39
   4      1.11031661    -0.45977956  -150.69224779    -0.00000064    -0.00000000  0.71D-09  0.10D-09  4  4     0.40

 Norm of t1 vector:      0.04578249      S-energy:    -0.00441730      T1 diagnostic:  0.00107219
 Norm of t2 vector:      0.32896895      P-energy:    -0.45536226
                                         Alpha-Beta:  -0.34016527
                                         Alpha-Alpha: -0.06236158
                                         Beta-Beta:   -0.05283541

 Spin contamination <S**2-Sz**2-Sz>     0.00380051
  Reference energy                   -150.232468223402
  RHF-RMP2 correlation energy          -0.459779564370
 !RHF-RMP2 energy                    -150.692247787772

 Starting UCCSD calculation

 ITER.      SQ.NORM     CORR.ENERGY   TOTAL ENERGY   ENERGY CHANGE        DEN1      VAR(S)    VAR(P)  DIIS     TIME
   1      1.11050014    -0.45509324  -150.68756147    -0.45509324    -0.01403776  0.45D-02  0.18D-02  1  1     0.51
   2      1.12237350    -0.46684119  -150.69930942    -0.01174795    -0.00222691  0.58D-03  0.51D-03  2  2     0.61
   3      1.13331072    -0.47040034  -150.70286856    -0.00355915    -0.00069001  0.59D-03  0.52D-04  3  3     0.72
   4      1.14341789    -0.47252897  -150.70499719    -0.00212863    -0.00025848  0.20D-03  0.22D-04  4  4     0.83
   5      1.15532150    -0.47406194  -150.70653017    -0.00153298    -0.00005606  0.43D-04  0.49D-05  5  5     0.93
   6      1.16228064    -0.47471452  -150.70718274    -0.00065257    -0.00000576  0.23D-05  0.12D-05  6  6     1.05
   7      1.16355441    -0.47479254  -150.70726076    -0.00007802    -0.00000089  0.24D-06  0.24D-06  6  2     1.15
   8      1.16368228    -0.47480766  -150.70727588    -0.00001512    -0.00000012  0.30D-07  0.38D-07  6  1     1.26
   9      1.16378671    -0.47481618  -150.70728441    -0.00000852    -0.00000002  0.54D-08  0.61D-08  6  3     1.37
  10      1.16374053    -0.47480900  -150.70727722     0.00000718    -0.00000000  0.86D-09  0.93D-09  6  4     1.49
  11      1.16376482    -0.47481090  -150.70727912    -0.00000190    -0.00000000  0.32D-09  0.12D-09  6  5     1.60
  12      1.16374859    -0.47480883  -150.70727705     0.00000207    -0.00000000  0.58D-10  0.19D-10  6  2     1.71
  13      1.16375156    -0.47480920  -150.70727743    -0.00000038    -0.00000000  0.92D-11  0.38D-11  6  6     1.82

 Norm of t1 vector:      0.19887037      S-energy:    -0.00499940      T1 diagnostic:  0.03739980
                                                                       D1 diagnostic:  0.12765946
 Norm of t2 vector:      0.35242324      P-energy:    -0.46980980
                                         Alpha-Beta:  -0.36459196
                                         Alpha-Alpha: -0.05594182
                                         Beta-Beta:   -0.04927602

 Singles amplitudes (print threshold =  0.500E-01):

         I         SYM. A    A   T(IA) [Beta-Beta]

         6         2         1      0.18053773

 Spin contamination <S**2-Sz**2-Sz>     0.00361123

 Memory could be reduced to 8.30 Mwords without degradation in triples


 RESULTS
 =======

  Reference energy                   -150.232468223402
  UCCSD singles energy                 -0.004999403440
  UCCSD pair energy                    -0.469809801504
  UCCSD correlation energy             -0.474809204944
  Triples (T) contribution             -0.018783724799
  Total correlation energy             -0.493592929743

  RHF-UCCSD energy                   -150.707277428346
  RHF-UCCSD[T] energy                -150.728291913696
  RHF-UCCSD-T energy                 -150.725747350874
 !RHF-UCCSD(T) energy                -150.726061153145

 Program statistics:

 Available memory in ccsd:             24999999438
 Min. memory needed in ccsd:                962864
 Max. memory used in ccsd:                 1303444
 Max. memory used in cckext:               1231788 (13 integral passes)
 Max. memory used in cckint:               1669760 ( 1 integral passes)



 **********************************************************************************************************************************
 DATASETS  * FILE   NREC   LENGTH (MB)   RECORD NAMES
              1      18       20.15       500      610      700      900      950      970     1000      129      960     1100   
                                          VAR    BASINP    GEOM    SYMINP    ZMAT    AOBASIS   BASIS     P2S    ABASIS      S 
                                         1400     1410     1200     1210     1080     1600     1650     1700   
                                           T        V       H0       H01     AOSYM     SMH    MOLCAS    OPER   

              2       4        2.97       700     1000      520     2100   
                                         GEOM     BASIS   MCVARS     RHF  

 PROGRAMS   *        TOTAL  UCCSD(T)       RHF       INT
 CPU TIMES  *         7.11      2.67      0.13      4.19
 REAL TIME  *        19.31 SEC
 DISK USED  *       607.48 MB      
 SF USED    *       114.86 MB      
 GA USED    *         0.00 MB       (max)       0.00 MB       (current)
 **********************************************************************************************************************************

 UCCSD(T)/O=AVTZ,C=AVTZ,H=VTZ energy=   -150.726061153145

        UCCSD(T)        RHF-SCF 
   -150.72606115   -150.23246822
 **********************************************************************************************************************************
 Molpro calculation terminated
 Variable memory released
