 Entering Gaussian System, Link 0=g16
 Input=Mol_05.com
 Output=Mol_05.log
 Initial command:
 /home/saurabh/g16/l1.exe "/scratch/saurabh/PBS_8053889.helios/Gau-78247.inp" -scrdir="/scratch/saurabh/PBS_8053889.helios/"
 Entering Link 1 = /home/saurabh/g16/l1.exe PID=     78248.
  
 Copyright (c) 1988-2019, Gaussian, Inc.  All Rights Reserved.
  
 This is part of the Gaussian(R) 16 program.  It is based on
 the Gaussian(R) 09 system (copyright 2009, Gaussian, Inc.),
 the Gaussian(R) 03 system (copyright 2003, Gaussian, Inc.),
 the Gaussian(R) 98 system (copyright 1998, Gaussian, Inc.),
 the Gaussian(R) 94 system (copyright 1995, Gaussian, Inc.),
 the Gaussian 92(TM) system (copyright 1992, Gaussian, Inc.),
 the Gaussian 90(TM) system (copyright 1990, Gaussian, Inc.),
 the Gaussian 88(TM) system (copyright 1988, Gaussian, Inc.),
 the Gaussian 86(TM) system (copyright 1986, Carnegie Mellon
 University), and the Gaussian 82(TM) system (copyright 1983,
 Carnegie Mellon University). Gaussian is a federally registered
 trademark of Gaussian, Inc.
  
 This software contains proprietary and confidential information,
 including trade secrets, belonging to Gaussian, Inc.
  
 This software is provided under written license and may be
 used, copied, transmitted, or stored only in accord with that
 written license.
  
 The following legend is applicable only to US Government
 contracts under FAR:
  
                    RESTRICTED RIGHTS LEGEND
  
 Use, reproduction and disclosure by the US Government is
 subject to restrictions as set forth in subparagraphs (a)
 and (c) of the Commercial Computer Software - Restricted
 Rights clause in FAR 52.227-19.
  
 Gaussian, Inc.
 340 Quinnipiac St., Bldg. 40, Wallingford CT 06492
  
  
 ---------------------------------------------------------------
 Warning -- This program may not be used in any manner that
 competes with the business of Gaussian, Inc. or will provide
 assistance to any competitor of Gaussian, Inc.  The licensee
 of this program is prohibited from giving any competitor of
 Gaussian, Inc. access to this program.  By using this program,
 the user acknowledges that Gaussian, Inc. is engaged in the
 business of creating and licensing software in the field of
 computational chemistry and represents and warrants to the
 licensee that it is not a competitor of Gaussian, Inc. and that
 it will not use this program in any manner prohibited above.
 ---------------------------------------------------------------
  

 Cite this work as:
 Gaussian 16, Revision C.01,
 M. J. Frisch, G. W. Trucks, H. B. Schlegel, G. E. Scuseria, 
 M. A. Robb, J. R. Cheeseman, G. Scalmani, V. Barone, 
 G. A. Petersson, H. Nakatsuji, X. Li, M. Caricato, A. V. Marenich, 
 J. Bloino, B. G. Janesko, R. Gomperts, B. Mennucci, H. P. Hratchian, 
 J. V. Ortiz, A. F. Izmaylov, J. L. Sonnenberg, D. Williams-Young, 
 F. Ding, F. Lipparini, F. Egidi, J. Goings, B. Peng, A. Petrone, 
 T. Henderson, D. Ranasinghe, V. G. Zakrzewski, J. Gao, N. Rega, 
 G. Zheng, W. Liang, M. Hada, M. Ehara, K. Toyota, R. Fukuda, 
 J. Hasegawa, M. Ishida, T. Nakajima, Y. Honda, O. Kitao, H. Nakai, 
 T. Vreven, K. Throssell, J. A. Montgomery, Jr., J. E. Peralta, 
 F. Ogliaro, M. J. Bearpark, J. J. Heyd, E. N. Brothers, K. N. Kudin, 
 V. N. Staroverov, T. A. Keith, R. Kobayashi, J. Normand, 
 K. Raghavachari, A. P. Rendell, J. C. Burant, S. S. Iyengar, 
 J. Tomasi, M. Cossi, J. M. Millam, M. Klene, C. Adamo, R. Cammi, 
 J. W. Ochterski, R. L. Martin, K. Morokuma, O. Farkas, 
 J. B. Foresman, and D. J. Fox, Gaussian, Inc., Wallingford CT, 2019.
 
 ******************************************
 Gaussian 16:  EM64L-G16RevC.01  3-Jul-2019
                 3-Apr-2022 
 ******************************************
 %mem=8gb
 %nproc=8
 Will use up to    8 processors via shared memory.
 %chk=Mol_05.chk
 ----------------------------------------------------------------------
 #p B3LYP/cc-PVTZ scf(verytight, maxcycles=1000) opt(calcfc, maxcyc=100
 0) freq(hpmodes) int(grid=ultrafine)
 ----------------------------------------------------------------------
 1/6=1000,10=4,18=20,19=15,26=4,38=1/1,3;
 2/9=110,12=2,17=6,18=5,40=1/2;
 3/5=16,6=1,11=2,25=1,30=1,71=2,74=-5,75=-5,140=1/1,2,3;
 4//1;
 5/5=2,7=1000,17=3,38=5/2;
 8/6=4,10=90,11=11/1;
 11/6=1,8=1,9=11,15=111,16=1/1,2,10;
 10/6=1,13=1/2;
 6/7=2,8=2,9=2,10=2,28=1/1;
 7/10=1,25=1/1,2,3,16;
 1/6=1000,10=4,18=20,19=15,26=4/3(2);
 2/9=110/2;
 99//99;
 2/9=110/2;
 3/5=16,6=1,11=2,25=1,30=1,71=1,74=-5,75=-5/1,2,3;
 4/5=5,16=3,69=1/1;
 5/5=2,7=1000,17=3,38=5/2;
 7//1,2,3,16;
 1/6=1000,18=20,19=15,26=4/3(-5);
 2/9=110/2;
 6/7=2,8=2,9=2,10=2,19=2,28=1/1;
 99/9=1/99;
 Leave Link    1 at Sun Apr  3 21:19:07 2022, MaxMem=  1073741824 cpu:               0.5 elap:               0.1
 (Enter /home/saurabh/g16/l101.exe)
 ------
 Mol_05
 ------
 Symbolic Z-matrix:
 Charge =  0 Multiplicity = 1
 C                    -0.10279   0.13657  -0.63702 
 C                    -1.20373   0.99406  -0.73686 
 C                    -1.1301    2.29052  -0.21619 
 C                     0.04447   2.72949   0.4043 
 C                     1.14541   1.872     0.50414 
 C                     1.07178   0.57554  -0.01652 
 H                     2.05409   2.2116    0.98417 
 H                    -1.98181   2.9539   -0.29343 
 H                    -2.11241   0.65446  -1.21689 
 H                     0.10143   3.73247   0.8071 
 H                    -0.15976  -0.86641  -1.03982 
 H                     1.92349  -0.08784   0.06071 
 
 ITRead=  0  0  0  0  0  0  0  0  0  0  0  0
 MicOpt= -1 -1 -1 -1 -1 -1 -1 -1 -1 -1 -1 -1
 NAtoms=     12 NQM=       12 NQMF=       0 NMMI=      0 NMMIF=      0
                NMic=       0 NMicF=      0.
                    Isotopes and Nuclear Properties:
 (Nuclear quadrupole moments (NQMom) in fm**2, nuclear magnetic moments (NMagM)
  in nuclear magnetons)

  Atom         1           2           3           4           5           6           7           8           9          10
 IAtWgt=          12          12          12          12          12          12           1           1           1           1
 AtmWgt=  12.0000000  12.0000000  12.0000000  12.0000000  12.0000000  12.0000000   1.0078250   1.0078250   1.0078250   1.0078250
 NucSpn=           0           0           0           0           0           0           1           1           1           1
 AtZEff=  -0.0000000  -0.0000000  -0.0000000  -0.0000000  -0.0000000  -0.0000000  -0.0000000  -0.0000000  -0.0000000  -0.0000000
 NQMom=    0.0000000   0.0000000   0.0000000   0.0000000   0.0000000   0.0000000   0.0000000   0.0000000   0.0000000   0.0000000
 NMagM=    0.0000000   0.0000000   0.0000000   0.0000000   0.0000000   0.0000000   2.7928460   2.7928460   2.7928460   2.7928460
 AtZNuc=   6.0000000   6.0000000   6.0000000   6.0000000   6.0000000   6.0000000   1.0000000   1.0000000   1.0000000   1.0000000

  Atom        11          12
 IAtWgt=           1           1
 AtmWgt=   1.0078250   1.0078250
 NucSpn=           1           1
 AtZEff=  -0.0000000  -0.0000000
 NQMom=    0.0000000   0.0000000
 NMagM=    2.7928460   2.7928460
 AtZNuc=   1.0000000   1.0000000
 Leave Link  101 at Sun Apr  3 21:19:07 2022, MaxMem=  1073741824 cpu:               1.9 elap:               0.3
 (Enter /home/saurabh/g16/l103.exe)

 GradGradGradGradGradGradGradGradGradGradGradGradGradGradGradGradGradGrad
 Berny optimization.
 Initialization pass.
                           ----------------------------
                           !    Initial Parameters    !
                           ! (Angstroms and Degrees)  !
 --------------------------                            --------------------------
 ! Name  Definition              Value          Derivative Info.                !
 --------------------------------------------------------------------------------
 ! R1    R(1,2)                  1.399          calculate D2E/DX2 analytically  !
 ! R2    R(1,6)                  1.399          calculate D2E/DX2 analytically  !
 ! R3    R(1,11)                 1.0823         calculate D2E/DX2 analytically  !
 ! R4    R(2,3)                  1.399          calculate D2E/DX2 analytically  !
 ! R5    R(2,9)                  1.0823         calculate D2E/DX2 analytically  !
 ! R6    R(3,4)                  1.399          calculate D2E/DX2 analytically  !
 ! R7    R(3,8)                  1.0823         calculate D2E/DX2 analytically  !
 ! R8    R(4,5)                  1.399          calculate D2E/DX2 analytically  !
 ! R9    R(4,10)                 1.0823         calculate D2E/DX2 analytically  !
 ! R10   R(5,6)                  1.399          calculate D2E/DX2 analytically  !
 ! R11   R(5,7)                  1.0823         calculate D2E/DX2 analytically  !
 ! R12   R(6,12)                 1.0823         calculate D2E/DX2 analytically  !
 ! A1    A(2,1,6)              120.0            calculate D2E/DX2 analytically  !
 ! A2    A(2,1,11)             120.0            calculate D2E/DX2 analytically  !
 ! A3    A(6,1,11)             120.0            calculate D2E/DX2 analytically  !
 ! A4    A(1,2,3)              120.0            calculate D2E/DX2 analytically  !
 ! A5    A(1,2,9)              120.0            calculate D2E/DX2 analytically  !
 ! A6    A(3,2,9)              120.0            calculate D2E/DX2 analytically  !
 ! A7    A(2,3,4)              120.0            calculate D2E/DX2 analytically  !
 ! A8    A(2,3,8)              120.0            calculate D2E/DX2 analytically  !
 ! A9    A(4,3,8)              120.0            calculate D2E/DX2 analytically  !
 ! A10   A(3,4,5)              120.0            calculate D2E/DX2 analytically  !
 ! A11   A(3,4,10)             120.0            calculate D2E/DX2 analytically  !
 ! A12   A(5,4,10)             120.0            calculate D2E/DX2 analytically  !
 ! A13   A(4,5,6)              120.0            calculate D2E/DX2 analytically  !
 ! A14   A(4,5,7)              120.0            calculate D2E/DX2 analytically  !
 ! A15   A(6,5,7)              120.0            calculate D2E/DX2 analytically  !
 ! A16   A(1,6,5)              120.0            calculate D2E/DX2 analytically  !
 ! A17   A(1,6,12)             120.0            calculate D2E/DX2 analytically  !
 ! A18   A(5,6,12)             120.0            calculate D2E/DX2 analytically  !
 ! D1    D(6,1,2,3)             -0.0001         calculate D2E/DX2 analytically  !
 ! D2    D(6,1,2,9)            179.9999         calculate D2E/DX2 analytically  !
 ! D3    D(11,1,2,3)           179.9999         calculate D2E/DX2 analytically  !
 ! D4    D(11,1,2,9)            -0.0001         calculate D2E/DX2 analytically  !
 ! D5    D(2,1,6,5)              0.0002         calculate D2E/DX2 analytically  !
 ! D6    D(2,1,6,12)          -179.9998         calculate D2E/DX2 analytically  !
 ! D7    D(11,1,6,5)          -179.9998         calculate D2E/DX2 analytically  !
 ! D8    D(11,1,6,12)            0.0001         calculate D2E/DX2 analytically  !
 ! D9    D(1,2,3,4)             -0.0001         calculate D2E/DX2 analytically  !
 ! D10   D(1,2,3,8)            179.9999         calculate D2E/DX2 analytically  !
 ! D11   D(9,2,3,4)            179.9999         calculate D2E/DX2 analytically  !
 ! D12   D(9,2,3,8)             -0.0001         calculate D2E/DX2 analytically  !
 ! D13   D(2,3,4,5)              0.0002         calculate D2E/DX2 analytically  !
 ! D14   D(2,3,4,10)          -179.9998         calculate D2E/DX2 analytically  !
 ! D15   D(8,3,4,5)           -179.9998         calculate D2E/DX2 analytically  !
 ! D16   D(8,3,4,10)             0.0001         calculate D2E/DX2 analytically  !
 ! D17   D(3,4,5,6)             -0.0001         calculate D2E/DX2 analytically  !
 ! D18   D(3,4,5,7)            179.9999         calculate D2E/DX2 analytically  !
 ! D19   D(10,4,5,6)           179.9999         calculate D2E/DX2 analytically  !
 ! D20   D(10,4,5,7)            -0.0001         calculate D2E/DX2 analytically  !
 ! D21   D(4,5,6,1)             -0.0001         calculate D2E/DX2 analytically  !
 ! D22   D(4,5,6,12)           179.9999         calculate D2E/DX2 analytically  !
 ! D23   D(7,5,6,1)            179.9999         calculate D2E/DX2 analytically  !
 ! D24   D(7,5,6,12)            -0.0001         calculate D2E/DX2 analytically  !
 --------------------------------------------------------------------------------
 Trust Radius=3.00D-01 FncErr=1.00D-07 GrdErr=1.00D-06 EigMax=2.50D+02 EigMin=1.00D-04
 Number of steps in this run=    100 maximum allowed number of steps=    100.
 GradGradGradGradGradGradGradGradGradGradGradGradGradGradGradGradGradGrad

 Leave Link  103 at Sun Apr  3 21:19:07 2022, MaxMem=  1073741824 cpu:               0.1 elap:               0.0
 (Enter /home/saurabh/g16/l202.exe)
                          Input orientation:                          
 ---------------------------------------------------------------------
 Center     Atomic      Atomic             Coordinates (Angstroms)
 Number     Number       Type             X           Y           Z
 ---------------------------------------------------------------------
      1          6           0       -0.102793    0.136570   -0.637020
      2          6           0       -1.203730    0.994063   -0.736856
      3          6           0       -1.130097    2.290524   -0.216195
      4          6           0        0.044471    2.729492    0.404303
      5          6           0        1.145408    1.872000    0.504138
      6          6           0        1.071776    0.575539   -0.016525
      7          1           0        2.054087    2.211598    0.984171
      8          1           0       -1.981812    2.953905   -0.293432
      9          1           0       -2.112409    0.654464   -1.216889
     10          1           0        0.101435    3.732470    0.807103
     11          1           0       -0.159758   -0.866409   -1.039817
     12          1           0        1.923492   -0.087841    0.060709
 ---------------------------------------------------------------------
                    Distance matrix (angstroms):
                    1          2          3          4          5
     1  C    0.000000
     2  C    1.399043   0.000000
     3  C    2.423214   1.399043   0.000000
     4  C    2.798086   2.423214   1.399043   0.000000
     5  C    2.423214   2.798086   2.423214   1.399043   0.000000
     6  C    1.399043   2.423214   2.798086   2.423214   1.399043
     7  H    3.403842   3.880425   3.403842   2.154766   1.082339
     8  H    3.403842   2.154766   1.082339   2.154766   3.403842
     9  H    2.154766   1.082339   2.154766   3.403842   3.880425
    10  H    3.880425   3.403842   2.154766   1.082339   2.154766
    11  H    1.082339   2.154766   3.403842   3.880425   3.403842
    12  H    2.154766   3.403842   3.880425   3.403842   2.154766
                    6          7          8          9         10
     6  C    0.000000
     7  H    2.154766   0.000000
     8  H    3.880425   4.297880   0.000000
     9  H    3.403842   4.962764   2.481382   0.000000
    10  H    3.403842   2.481382   2.481382   4.297880   0.000000
    11  H    2.154766   4.297880   4.297880   2.481382   4.962764
    12  H    1.082339   2.481382   4.962764   4.297880   4.297880
                   11         12
    11  H    0.000000
    12  H    2.481382   0.000000
 Stoichiometry    C6H6
 Framework group  D2[C2'(HC.CH),X(C4H4)]
 Deg. of freedom     8
 Full point group                 D2      NOp   4
 Largest Abelian subgroup         D2      NOp   4
 Largest concise Abelian subgroup D2      NOp   4
                         Standard orientation:                         
 ---------------------------------------------------------------------
 Center     Atomic      Atomic             Coordinates (Angstroms)
 Number     Number       Type             X           Y           Z
 ---------------------------------------------------------------------
      1          6           0        1.211607   -0.699521    0.000001
      2          6           0       -0.000000   -1.399043    0.000000
      3          6           0       -1.211607   -0.699521   -0.000001
      4          6           0       -1.211607    0.699521    0.000001
      5          6           0        0.000000    1.399043    0.000000
      6          6           0        1.211607    0.699521   -0.000001
      7          1           0        0.000000    2.481382    0.000000
      8          1           0       -2.148940   -1.240691   -0.000003
      9          1           0       -0.000000   -2.481382   -0.000000
     10          1           0       -2.148940    1.240691    0.000003
     11          1           0        2.148940   -1.240691    0.000003
     12          1           0        2.148940    1.240691   -0.000003
 ---------------------------------------------------------------------
 Rotational constants (GHZ):           5.6733240           5.6733240           2.8366620
 Leave Link  202 at Sun Apr  3 21:19:07 2022, MaxMem=  1073741824 cpu:               0.1 elap:               0.0
 (Enter /home/saurabh/g16/l301.exe)
 Standard basis: CC-pVTZ (5D, 7F)
 Ernie: Thresh=  0.10000D-02 Tol=  0.10000D-05 Strict=F.
 Ernie:  18 primitive shells out of 204 were deleted.
 There are    78 symmetry adapted cartesian basis functions of A   symmetry.
 There are    72 symmetry adapted cartesian basis functions of B1  symmetry.
 There are    78 symmetry adapted cartesian basis functions of B2  symmetry.
 There are    72 symmetry adapted cartesian basis functions of B3  symmetry.
 There are    68 symmetry adapted basis functions of A   symmetry.
 There are    64 symmetry adapted basis functions of B1  symmetry.
 There are    68 symmetry adapted basis functions of B2  symmetry.
 There are    64 symmetry adapted basis functions of B3  symmetry.
   264 basis functions,   414 primitive gaussians,   300 cartesian basis functions
    21 alpha electrons       21 beta electrons
       nuclear repulsion energy       203.0193356270 Hartrees.
 IExCor=  402 DFT=T Ex+Corr=B3LYP ExCW=0 ScaHFX=  0.200000
 ScaDFX=  0.800000  0.720000  1.000000  0.810000 ScalE2=  1.000000  1.000000
 IRadAn=      5 IRanWt=     -1 IRanGd=            0 ICorTp=0 IEmpDi=  4
 NAtoms=   12 NActive=   12 NUniq=    4 SFac= 4.00D+00 NAtFMM=   60 NAOKFM=F Big=F
 Integral buffers will be    131072 words long.
 Raffenetti 2 integral format.
 Two-electron integral symmetry is turned on.
 Leave Link  301 at Sun Apr  3 21:19:07 2022, MaxMem=  1073741824 cpu:               0.5 elap:               0.1
 (Enter /home/saurabh/g16/l302.exe)
 NPDir=0 NMtPBC=     1 NCelOv=     1 NCel=       1 NClECP=     1 NCelD=      1
         NCelK=      1 NCelE2=     1 NClLst=     1 CellRange=     0.0.
 One-electron integrals computed using PRISM.
 One-electron integral symmetry used in STVInt
 NBasis=   264 RedAO= T EigKep=  3.88D-05  NBF=    68    64    68    64
 NBsUse=   264 1.00D-06 EigRej= -1.00D+00 NBFU=    68    64    68    64
 Precomputing XC quadrature grid using
 IXCGrd= 4 IRadAn=           5 IRanWt=          -1 IRanGd=           0 AccXCQ= 0.00D+00.
 Generated NRdTot=       0 NPtTot=           0 NUsed=           0 NTot=          32
 NSgBfM=   300   300   300   300   300 MxSgAt=    12 MxSgA2=    12.
 Leave Link  302 at Sun Apr  3 21:19:08 2022, MaxMem=  1073741824 cpu:               1.7 elap:               0.2
 (Enter /home/saurabh/g16/l303.exe)
 DipDrv:  MaxL=1.
 Leave Link  303 at Sun Apr  3 21:19:08 2022, MaxMem=  1073741824 cpu:               0.3 elap:               0.1
 (Enter /home/saurabh/g16/l401.exe)
 ExpMin= 1.03D-01 ExpMax= 8.24D+03 ExpMxC= 2.81D+02 IAcc=3 IRadAn=         5 AccDes= 0.00D+00
 Harris functional with IExCor=  402 and IRadAn=       5 diagonalized for initial guess.
 HarFok:  IExCor=  402 AccDes= 0.00D+00 IRadAn=         5 IDoV= 1 UseB2=F ITyADJ=14
 ICtDFT=  3500011 ScaDFX=  1.000000  1.000000  1.000000  1.000000
 FoFCou: FMM=F IPFlag=           0 FMFlag=      100000 FMFlg1=           0
         NFxFlg=           0 DoJE=T BraDBF=F KetDBF=T FulRan=T
         wScrn=  0.000000 ICntrl=       500 IOpCl=  0 I1Cent=   200000004 NGrid=           0
         NMat0=    1 NMatS0=      1 NMatT0=    0 NMatD0=    1 NMtDS0=    0 NMtDT0=    0
 Petite list used in FoFCou.
 Harris En= -232.377477037517    
 JPrj=0 DoOrth=F DoCkMO=F.
 Initial guess orbital symmetries:
       Occupied  (A) (B3) (B2) (B1) (A) (B2) (A) (B3) (B2) (A)
                 (B1) (A) (B3) (B2) (B3) (B2) (A) (B1) (B1) (B3)
                 (B2)
       Virtual   (B1) (A) (A) (B3) (B2) (B3) (A) (B1) (B2) (A)
                 (B1) (B3) (B2) (A) (B3) (B1) (B3) (B2) (A) (B2)
                 (B3) (B1) (A) (B2) (B1) (A) (B1) (B2) (B3) (B1)
                 (A) (B1) (B3) (A) (B2) (B1) (A) (B3) (B2) (B2)
                 (B1) (B3) (B2) (B2) (B2) (B3) (B1) (A) (A) (A)
                 (B1) (B3) (B1) (B1) (A) (B2) (B1) (A) (B3) (A)
                 (B3) (B2) (B3) (B2) (B2) (B3) (B2) (B3) (B3) (B2)
                 (B1) (B3) (A) (B1) (A) (B1) (B1) (A) (B2) (B2)
                 (B3) (A) (A) (B1) (B3) (A) (B2) (B1) (B1) (A)
                 (B1) (B3) (B2) (B2) (B3) (B2) (A) (B3) (B1) (A)
                 (B2) (B3) (B2) (A) (A) (B1) (B1) (B2) (B3) (B3)
                 (A) (B1) (B3) (B1) (A) (B3) (B2) (B2) (B3) (B1)
                 (A) (B2) (B3) (B2) (B1) (A) (B1) (B3) (B2) (B1)
                 (A) (B2) (B3) (A) (B3) (A) (B1) (B1) (A) (B2)
                 (B3) (A) (B2) (B1) (A) (B2) (B1) (B3) (A) (B1)
                 (A) (B3) (B2) (A) (B1) (B2) (B2) (B3) (B3) (B2)
                 (B1) (A) (B3) (B2) (B3) (B1) (B3) (B2) (B3) (B2)
                 (B1) (A) (A) (A) (B2) (B1) (B1) (A) (B2) (B3)
                 (B2) (B2) (B3) (A) (B1) (A) (B1) (B1) (A) (B3)
                 (A) (B1) (B3) (B2) (B1) (A) (B2) (B3) (B2) (B3)
                 (A) (B1) (A) (A) (B1) (B2) (B3) (B1) (B3) (B3)
                 (B2) (B2) (B3) (A) (B3) (A) (B1) (A) (B1) (B2)
                 (A) (B1) (B2) (B3) (B3) (B2) (B3) (B1) (A) (B2)
                 (B1) (A) (B1) (B2) (B3) (B2) (B1) (A) (B3) (B2)
                 (A) (B1) (B2)
 The electronic state of the initial guess is 1-A.
 Leave Link  401 at Sun Apr  3 21:19:08 2022, MaxMem=  1073741824 cpu:               4.3 elap:               0.6
 (Enter /home/saurabh/g16/l502.exe)
 Keep R1 ints in memory in symmetry-blocked form, NReq=764870419.
 FoFCou: FMM=F IPFlag=           0 FMFlag=           0 FMFlg1=           0
         NFxFlg=           0 DoJE=F BraDBF=F KetDBF=F FulRan=T
         wScrn=  0.000000 ICntrl=       600 IOpCl=  0 I1Cent=           0 NGrid=           0
         NMat0=    1 NMatS0=  34980 NMatT0=    0 NMatD0=    1 NMtDS0=    0 NMtDT0=    0
 Petite list used in FoFCou.
 Closed shell SCF:
 Using DIIS extrapolation, IDIIS=  1040.
 NGot=  1073741824 LenX=   920505656 LenY=   920415215
 Requested convergence on RMS density matrix=1.00D-08 within1000 cycles.
 Requested convergence on MAX density matrix=1.00D-06.
 Requested convergence on             energy=1.00D-06.
 No special actions if energy rises.
 Integral accuracy reduced to 1.0D-05 until final iterations.

 Cycle   1  Pass 0  IDiag  1:
 E= -232.159328628872    
 DIIS: error= 4.11D-02 at cycle   1 NSaved=   1.
 NSaved= 1 IEnMin= 1 EnMin= -232.159328628872     IErMin= 1 ErrMin= 4.11D-02
 ErrMax= 4.11D-02  0.00D+00 EMaxC= 1.00D-01 BMatC= 1.71D-01 BMatP= 1.71D-01
 IDIUse=3 WtCom= 5.89D-01 WtEn= 4.11D-01
 Coeff-Com:  0.100D+01
 Coeff-En:   0.100D+01
 Coeff:      0.100D+01
 Gap=     0.242 Goal=   None    Shift=    0.000
 GapD=    0.242 DampG=1.000 DampE=0.500 DampFc=0.5000 IDamp=-1.
 Damping current iteration by 5.00D-01
 RMSDP=2.17D-03 MaxDP=4.44D-02              OVMax= 1.65D-01

 Cycle   2  Pass 0  IDiag  1:
 E= -232.234749542530     Delta-E=       -0.075420913658 Rises=F Damp=T
 DIIS: error= 9.04D-03 at cycle   2 NSaved=   2.
 NSaved= 2 IEnMin= 2 EnMin= -232.234749542530     IErMin= 2 ErrMin= 9.04D-03
 ErrMax= 9.04D-03  0.00D+00 EMaxC= 1.00D-01 BMatC= 1.01D-02 BMatP= 1.71D-01
 IDIUse=3 WtCom= 9.10D-01 WtEn= 9.04D-02
 Coeff-Com:  0.344D-01 0.966D+00
 Coeff-En:   0.111D+00 0.889D+00
 Coeff:      0.413D-01 0.959D+00
 Gap=     0.250 Goal=   None    Shift=    0.000
 RMSDP=5.42D-04 MaxDP=1.08D-02 DE=-7.54D-02 OVMax= 1.03D-01

 Cycle   3  Pass 0  IDiag  1:
 E= -232.329909103752     Delta-E=       -0.095159561222 Rises=F Damp=F
 DIIS: error= 7.78D-03 at cycle   3 NSaved=   3.
 NSaved= 3 IEnMin= 3 EnMin= -232.329909103752     IErMin= 3 ErrMin= 7.78D-03
 ErrMax= 7.78D-03  0.00D+00 EMaxC= 1.00D-01 BMatC= 3.20D-03 BMatP= 1.01D-02
 IDIUse=3 WtCom= 9.22D-01 WtEn= 7.78D-02
 Coeff-Com: -0.505D-01 0.332D+00 0.719D+00
 Coeff-En:   0.000D+00 0.000D+00 0.100D+01
 Coeff:     -0.465D-01 0.306D+00 0.741D+00
 Gap=     0.243 Goal=   None    Shift=    0.000
 RMSDP=1.46D-04 MaxDP=2.54D-03 DE=-9.52D-02 OVMax= 1.29D-02

 Cycle   4  Pass 0  IDiag  1:
 E= -232.332920260121     Delta-E=       -0.003011156369 Rises=F Damp=F
 DIIS: error= 9.94D-04 at cycle   4 NSaved=   4.
 NSaved= 4 IEnMin= 4 EnMin= -232.332920260121     IErMin= 4 ErrMin= 9.94D-04
 ErrMax= 9.94D-04  0.00D+00 EMaxC= 1.00D-01 BMatC= 8.94D-05 BMatP= 3.20D-03
 IDIUse=3 WtCom= 9.90D-01 WtEn= 9.94D-03
 Coeff-Com: -0.129D-01 0.273D-01 0.186D+00 0.800D+00
 Coeff-En:   0.000D+00 0.000D+00 0.000D+00 0.100D+01
 Coeff:     -0.128D-01 0.271D-01 0.184D+00 0.802D+00
 Gap=     0.243 Goal=   None    Shift=    0.000
 RMSDP=2.27D-05 MaxDP=4.45D-04 DE=-3.01D-03 OVMax= 1.59D-03

 Cycle   5  Pass 0  IDiag  1:
 E= -232.332997710109     Delta-E=       -0.000077449988 Rises=F Damp=F
 DIIS: error= 3.98D-05 at cycle   5 NSaved=   5.
 NSaved= 5 IEnMin= 5 EnMin= -232.332997710109     IErMin= 5 ErrMin= 3.98D-05
 ErrMax= 3.98D-05  0.00D+00 EMaxC= 1.00D-01 BMatC= 1.38D-07 BMatP= 8.94D-05
 IDIUse=1 WtCom= 1.00D+00 WtEn= 0.00D+00
 Coeff-Com: -0.469D-03-0.736D-03 0.104D-01 0.733D-01 0.918D+00
 Coeff:     -0.469D-03-0.736D-03 0.104D-01 0.733D-01 0.918D+00
 Gap=     0.243 Goal=   None    Shift=    0.000
 RMSDP=2.17D-06 MaxDP=4.03D-05 DE=-7.74D-05 OVMax= 8.95D-05

 Initial convergence to 1.0D-05 achieved.  Increase integral accuracy.
 Cycle   6  Pass 1  IDiag  1:
 E= -232.332997498777     Delta-E=        0.000000211332 Rises=F Damp=F
 DIIS: error= 1.16D-05 at cycle   1 NSaved=   1.
 NSaved= 1 IEnMin= 1 EnMin= -232.332997498777     IErMin= 1 ErrMin= 1.16D-05
 ErrMax= 1.16D-05  0.00D+00 EMaxC= 1.00D-01 BMatC= 6.49D-09 BMatP= 6.49D-09
 IDIUse=1 WtCom= 1.00D+00 WtEn= 0.00D+00
 Coeff-Com:  0.100D+01
 Coeff:      0.100D+01
 Gap=     0.243 Goal=   None    Shift=    0.000
 RMSDP=2.17D-06 MaxDP=4.03D-05 DE= 2.11D-07 OVMax= 3.07D-05

 Cycle   7  Pass 1  IDiag  1:
 E= -232.332997505450     Delta-E=       -0.000000006673 Rises=F Damp=F
 DIIS: error= 2.51D-06 at cycle   2 NSaved=   2.
 NSaved= 2 IEnMin= 2 EnMin= -232.332997505450     IErMin= 2 ErrMin= 2.51D-06
 ErrMax= 2.51D-06  0.00D+00 EMaxC= 1.00D-01 BMatC= 2.89D-10 BMatP= 6.49D-09
 IDIUse=1 WtCom= 1.00D+00 WtEn= 0.00D+00
 Coeff-Com:  0.539D-01 0.946D+00
 Coeff:      0.539D-01 0.946D+00
 Gap=     0.243 Goal=   None    Shift=    0.000
 RMSDP=9.63D-08 MaxDP=1.93D-06 DE=-6.67D-09 OVMax= 7.19D-06

 Cycle   8  Pass 1  IDiag  1:
 E= -232.332997505469     Delta-E=       -0.000000000019 Rises=F Damp=F
 DIIS: error= 2.09D-06 at cycle   3 NSaved=   3.
 NSaved= 3 IEnMin= 3 EnMin= -232.332997505469     IErMin= 3 ErrMin= 2.09D-06
 ErrMax= 2.09D-06  0.00D+00 EMaxC= 1.00D-01 BMatC= 2.82D-10 BMatP= 2.89D-10
 IDIUse=1 WtCom= 1.00D+00 WtEn= 0.00D+00
 Coeff-Com: -0.159D-01 0.499D+00 0.517D+00
 Coeff:     -0.159D-01 0.499D+00 0.517D+00
 Gap=     0.243 Goal=   None    Shift=    0.000
 RMSDP=4.09D-08 MaxDP=9.23D-07 DE=-1.91D-11 OVMax= 3.80D-06

 Cycle   9  Pass 1  IDiag  1:
 E= -232.332997505736     Delta-E=       -0.000000000268 Rises=F Damp=F
 DIIS: error= 1.47D-07 at cycle   4 NSaved=   4.
 NSaved= 4 IEnMin= 4 EnMin= -232.332997505736     IErMin= 4 ErrMin= 1.47D-07
 ErrMax= 1.47D-07  0.00D+00 EMaxC= 1.00D-01 BMatC= 2.05D-12 BMatP= 2.82D-10
 IDIUse=1 WtCom= 1.00D+00 WtEn= 0.00D+00
 Coeff-Com: -0.632D-02 0.135D+00 0.171D+00 0.701D+00
 Coeff:     -0.632D-02 0.135D+00 0.171D+00 0.701D+00
 Gap=     0.243 Goal=   None    Shift=    0.000
 RMSDP=4.23D-09 MaxDP=1.05D-07 DE=-2.68D-10 OVMax= 3.52D-07

 SCF Done:  E(RB3LYP) =  -232.332997506     A.U. after    9 cycles
            NFock=  9  Conv=0.42D-08     -V/T= 2.0075
 KE= 2.306088628493D+02 PE=-9.440376099458D+02 EE= 2.780764139638D+02
 Leave Link  502 at Sun Apr  3 21:19:17 2022, MaxMem=  1073741824 cpu:              60.0 elap:               8.3
 (Enter /home/saurabh/g16/l801.exe)
 DoSCS=F DFT=T ScalE2(SS,OS)=  1.000000  1.000000
 Range of M.O.s used for correlation:     1   264
 NBasis=   264 NAE=    21 NBE=    21 NFC=     0 NFV=     0
 NROrb=    264 NOA=    21 NOB=    21 NVA=   243 NVB=   243

 **** Warning!!: The largest alpha MO coefficient is  0.41415093D+02

 Leave Link  801 at Sun Apr  3 21:19:17 2022, MaxMem=  1073741824 cpu:               0.2 elap:               0.0
 (Enter /home/saurabh/g16/l1101.exe)
 Using compressed storage, NAtomX=    12.
 Will process     13 centers per pass.
 Leave Link 1101 at Sun Apr  3 21:19:17 2022, MaxMem=  1073741824 cpu:               1.8 elap:               0.3
 (Enter /home/saurabh/g16/l1102.exe)
 Symmetrizing basis deriv contribution to polar:
 IMax=3 JMax=2 DiffMx= 0.00D+00
 Leave Link 1102 at Sun Apr  3 21:19:17 2022, MaxMem=  1073741824 cpu:               0.3 elap:               0.1
 (Enter /home/saurabh/g16/l1110.exe)
 Forming Gx(P) for the SCF density, NAtomX=    12.
 Integral derivatives from FoFJK, PRISM(SPDF).
 Do as many integral derivatives as possible in FoFJK.
 G2DrvN: MDV=    1073740476.
 G2DrvN: will do    13 centers at a time, making    1 passes.
 Calling FoFCou, ICntrl=  3107 FMM=F I1Cent=   0 AccDes= 0.00D+00.
 FoFJK:  IHMeth= 1 ICntrl=    3107 DoSepK=F KAlg= 0 I1Cent=           0 FoldK=F
 IRaf=         0 NMat=       1 IRICut=       1 DoRegI=T DoRafI=F ISym2E= 1 IDoP0=0 IntGTp=1.
 FoFCou: FMM=F IPFlag=           0 FMFlag=      100000 FMFlg1=           0
         NFxFlg=           0 DoJE=F BraDBF=F KetDBF=F FulRan=T
         wScrn=  0.000000 ICntrl=      3107 IOpCl=  0 I1Cent=           0 NGrid=           0
         NMat0=    1 NMatS0=      1 NMatT0=    0 NMatD0=    1 NMtDS0=    0 NMtDT0=    0
 Petite list used in FoFCou.
 End of G2Drv F.D. properties file   721 does not exist.
 End of G2Drv F.D. properties file   722 does not exist.
 End of G2Drv F.D. properties file   788 does not exist.
 Leave Link 1110 at Sun Apr  3 21:19:32 2022, MaxMem=  1073741824 cpu:             123.7 elap:              15.5
 (Enter /home/saurabh/g16/l1002.exe)
 Minotr:  Closed shell wavefunction.
          IDoAtm=111111111111
          Direct CPHF calculation.
          Differentiating once with respect to nuclear coordinates.
          Using symmetry in CPHF.
          Requested convergence is 1.0D-08 RMS, and 1.0D-07 maximum.
          Secondary convergence is 1.0D-12 RMS, and 1.0D-12 maximum.
          NewPWx=T KeepS1=F KeepF1=F KeepIn=T MapXYZ=F SortEE=F KeepMc=T.
         3535 words used for storage of precomputed grid.
 Keep R1 ints in memory in symmetry-blocked form, NReq=764875994.
 FoFCou: FMM=F IPFlag=           0 FMFlag=           0 FMFlg1=           0
         NFxFlg=           0 DoJE=F BraDBF=F KetDBF=F FulRan=T
         wScrn=  0.000000 ICntrl=       600 IOpCl=  0 I1Cent=           0 NGrid=           0
         NMat0=    1 NMatS0=  34980 NMatT0=    0 NMatD0=    1 NMtDS0=    0 NMtDT0=    0
 Petite list used in FoFCou.
          MDV=    1073741824 using IRadAn=       1.
          Solving linear equations simultaneously, MaxMat=       0.
          There are    15 degrees of freedom in the 1st order CPHF.  IDoFFX=4 NUNeed=    15.
     12 vectors produced by pass  0 Test12= 3.40D-14 6.67D-09 XBig12= 1.20D-01 1.51D-01.
 AX will form    12 AO Fock derivatives at one time.
     12 vectors produced by pass  1 Test12= 3.40D-14 6.67D-09 XBig12= 4.46D-02 1.04D-01.
     12 vectors produced by pass  2 Test12= 3.40D-14 6.67D-09 XBig12= 3.34D-03 1.20D-02.
     12 vectors produced by pass  3 Test12= 3.40D-14 6.67D-09 XBig12= 1.57D-04 2.89D-03.
     12 vectors produced by pass  4 Test12= 3.40D-14 6.67D-09 XBig12= 1.92D-06 2.53D-04.
     12 vectors produced by pass  5 Test12= 3.40D-14 6.67D-09 XBig12= 1.56D-08 3.42D-05.
     12 vectors produced by pass  6 Test12= 3.40D-14 6.67D-09 XBig12= 1.03D-10 1.28D-06.
      6 vectors produced by pass  7 Test12= 3.40D-14 6.67D-09 XBig12= 4.90D-13 1.40D-07.
      1 vectors produced by pass  8 Test12= 3.40D-14 6.67D-09 XBig12= 1.62D-15 7.16D-09.
 InvSVY:  IOpt=1 It=  1 EMax= 6.66D-16
 Solved reduced A of dimension    91 with    12 vectors.
 FullF1:  Do perturbations      4 to      15.
 End of Minotr F.D. properties file   721 does not exist.
 End of Minotr F.D. properties file   722 does not exist.
 End of Minotr F.D. properties file   788 does not exist.
 Leave Link 1002 at Sun Apr  3 21:20:08 2022, MaxMem=  1073741824 cpu:             277.1 elap:              35.1
 (Enter /home/saurabh/g16/l601.exe)
 Copying SCF densities to generalized density rwf, IOpCl= 0 IROHF=0.

 **********************************************************************

            Population analysis using the SCF Density.

 **********************************************************************

 Orbital symmetries:
       Occupied  (A) (B2) (B3) (A) (B1) (B2) (A) (B3) (B2) (A)
                 (B1) (A) (B2) (B3) (B3) (B2) (B1) (A) (B1) (B3)
                 (B2)
       Virtual   (B1) (A) (A) (B3) (B2) (A) (B1) (B2) (B3) (A)
                 (B1) (B3) (A) (B3) (B2) (B1) (B3) (B2) (A) (B2)
                 (B3) (B2) (B1) (A) (B1) (A) (B2) (B3) (B1) (B3)
                 (B1) (A) (B1) (A) (B2) (A) (B1) (B3) (B2) (B2)
                 (B3) (B2) (B1) (B2) (B3) (B2) (B1) (A) (A) (A)
                 (B1) (B3) (B1) (B2) (B1) (A) (B1) (A) (B3) (B3)
                 (B2) (A) (B2) (B3) (B2) (B3) (B2) (B3) (B1) (B3)
                 (B3) (B2) (A) (B1) (B1) (A) (A) (B1) (B2) (B2)
                 (B3) (A) (A) (B1) (B3) (A) (B2) (B1) (A) (B1)
                 (B2) (B1) (B3) (B2) (A) (B3) (B2) (B3) (B3) (B2)
                 (B1) (A) (B2) (A) (A) (B1) (B2) (B3) (B1) (B3)
                 (B1) (A) (B3) (B1) (A) (B3) (B2) (B1) (B3) (B2)
                 (B2) (B3) (A) (B2) (B1) (A) (B1) (B3) (B2) (B1)
                 (A) (B2) (B3) (A) (B3) (A) (B1) (B1) (A) (B2)
                 (B3) (A) (B2) (B1) (A) (B2) (B1) (B3) (B1) (A)
                 (A) (B3) (B2) (A) (B1) (B2) (B3) (B3) (B2) (B2)
                 (B1) (A) (B3) (B2) (B3) (A) (B3) (B2) (B1) (B3)
                 (B2) (A) (B1) (A) (B1) (B2) (B1) (A) (B3) (B2)
                 (B3) (B2) (B2) (B1) (A) (A) (B1) (B1) (A) (B3)
                 (B3) (A) (B1) (B2) (B1) (A) (B2) (B3) (B2) (B3)
                 (A) (B1) (A) (A) (B1) (B2) (B3) (B1) (B3) (B3)
                 (B2) (B2) (B3) (A) (B3) (A) (B1) (B2) (A) (B1)
                 (A) (B1) (B2) (B3) (B3) (B2) (B3) (B1) (A) (B2)
                 (B1) (A) (B1) (B3) (B2) (B2) (B1) (A) (B3) (B2)
                 (A) (B1) (B2)
 The electronic state is 1-A.
 Alpha  occ. eigenvalues --  -10.18095 -10.18070 -10.18070 -10.18013 -10.18013
 Alpha  occ. eigenvalues --  -10.17988  -0.85391  -0.74722  -0.74722  -0.60502
 Alpha  occ. eigenvalues --   -0.60502  -0.52590  -0.46559  -0.44841  -0.42460
 Alpha  occ. eigenvalues --   -0.42460  -0.36966  -0.34816  -0.34816  -0.25735
 Alpha  occ. eigenvalues --   -0.25735
 Alpha virt. eigenvalues --   -0.01391  -0.01391   0.03976   0.07086   0.07086
 Alpha virt. eigenvalues --    0.10105   0.10105   0.12674   0.14025   0.22994
 Alpha virt. eigenvalues --    0.22994   0.25739   0.26190   0.26288   0.26288
 Alpha virt. eigenvalues --    0.27969   0.32243   0.32243   0.35376   0.36250
 Alpha virt. eigenvalues --    0.36250   0.38548   0.39530   0.39530   0.40453
 Alpha virt. eigenvalues --    0.40453   0.43571   0.43571   0.44701   0.47902
 Alpha virt. eigenvalues --    0.48192   0.48192   0.49260   0.49707   0.54442
 Alpha virt. eigenvalues --    0.54610   0.54610   0.57164   0.57164   0.64837
 Alpha virt. eigenvalues --    0.67302   0.67302   0.70236   0.72594   0.72594
 Alpha virt. eigenvalues --    0.73869   0.75907   0.75907   0.79467   0.85995
 Alpha virt. eigenvalues --    0.85995   0.89807   0.92583   0.96261   1.00005
 Alpha virt. eigenvalues --    1.00005   1.01729   1.01730   1.01914   1.08643
 Alpha virt. eigenvalues --    1.08643   1.09569   1.10668   1.10668   1.16841
 Alpha virt. eigenvalues --    1.16841   1.24472   1.24472   1.26158   1.26421
 Alpha virt. eigenvalues --    1.26472   1.26472   1.28278   1.28278   1.36764
 Alpha virt. eigenvalues --    1.36765   1.37660   1.37660   1.38315   1.40971
 Alpha virt. eigenvalues --    1.40971   1.46687   1.48283   1.48283   1.52378
 Alpha virt. eigenvalues --    1.57647   1.66340   1.85391   1.92507   1.92507
 Alpha virt. eigenvalues --    1.95764   1.96802   1.98394   1.98394   2.07087
 Alpha virt. eigenvalues --    2.09084   2.09084   2.14066   2.15403   2.15403
 Alpha virt. eigenvalues --    2.17174   2.17174   2.28776   2.35396   2.40907
 Alpha virt. eigenvalues --    2.40907   2.45725   2.45725   2.46802   2.48896
 Alpha virt. eigenvalues --    2.56004   2.56004   2.60379   2.63197   2.63197
 Alpha virt. eigenvalues --    2.67785   2.67785   2.68684   2.69879   2.69879
 Alpha virt. eigenvalues --    2.75005   2.75005   2.75432   2.78387   2.82328
 Alpha virt. eigenvalues --    2.82328   2.89885   2.90679   2.90679   2.96341
 Alpha virt. eigenvalues --    2.96341   2.97369   2.97369   3.00771   3.02626
 Alpha virt. eigenvalues --    3.04510   3.04510   3.04696   3.04696   3.05763
 Alpha virt. eigenvalues --    3.05763   3.08378   3.11178   3.12143   3.12143
 Alpha virt. eigenvalues --    3.13619   3.16680   3.28419   3.29735   3.29735
 Alpha virt. eigenvalues --    3.30904   3.32288   3.32289   3.36116   3.36116
 Alpha virt. eigenvalues --    3.38015   3.38015   3.38975   3.38975   3.40449
 Alpha virt. eigenvalues --    3.55118   3.55118   3.56572   3.59994   3.71905
 Alpha virt. eigenvalues --    3.74684   3.75207   3.75207   3.76301   3.76426
 Alpha virt. eigenvalues --    3.76426   3.76445   3.78364   3.78364   3.78904
 Alpha virt. eigenvalues --    3.82316   3.83563   3.83563   3.88057   3.88057
 Alpha virt. eigenvalues --    3.99265   3.99265   4.01477   4.07423   4.07423
 Alpha virt. eigenvalues --    4.07794   4.08717   4.09132   4.09132   4.16673
 Alpha virt. eigenvalues --    4.18187   4.20855   4.20855   4.21562   4.30065
 Alpha virt. eigenvalues --    4.30065   4.30325   4.30325   4.31025   4.31025
 Alpha virt. eigenvalues --    4.34721   4.34721   4.49013   4.51956   4.51956
 Alpha virt. eigenvalues --    4.65749   4.65749   4.65885   4.69428   4.74784
 Alpha virt. eigenvalues --    4.74785   4.76521   4.76521   4.79113   4.89573
 Alpha virt. eigenvalues --    4.94282   5.00306   5.01869   5.02017   5.02017
 Alpha virt. eigenvalues --    5.04703   5.04703   5.14740   5.14740   5.34282
 Alpha virt. eigenvalues --    5.34282   5.44400   5.65871   5.65871   5.69278
 Alpha virt. eigenvalues --    5.85302   5.85303   5.92457   6.09502   6.09502
 Alpha virt. eigenvalues --    6.41922   6.89732   8.88858  12.25724  12.25725
 Alpha virt. eigenvalues --   12.75981  12.75982  15.25484
          Condensed to atoms (all electrons):
               1          2          3          4          5          6
     1  C    4.898466   0.494122  -0.049670  -0.031362  -0.049670   0.494123
     2  C    0.494122   4.898465   0.494122  -0.049670  -0.031363  -0.049670
     3  C   -0.049670   0.494122   4.898466   0.494123  -0.049670  -0.031362
     4  C   -0.031362  -0.049670   0.494123   4.898466   0.494122  -0.049670
     5  C   -0.049670  -0.031363  -0.049670   0.494122   4.898465   0.494122
     6  C    0.494123  -0.049670  -0.031362  -0.049670   0.494122   4.898466
     7  H    0.006837  -0.000718   0.006837  -0.045116   0.427530  -0.045116
     8  H    0.006838  -0.045116   0.427530  -0.045117   0.006838  -0.000718
     9  H   -0.045116   0.427530  -0.045116   0.006837  -0.000718   0.006837
    10  H   -0.000718   0.006838  -0.045117   0.427530  -0.045116   0.006838
    11  H    0.427530  -0.045116   0.006838  -0.000718   0.006838  -0.045117
    12  H   -0.045117   0.006838  -0.000718   0.006838  -0.045116   0.427530
               7          8          9         10         11         12
     1  C    0.006837   0.006838  -0.045116  -0.000718   0.427530  -0.045117
     2  C   -0.000718  -0.045116   0.427530   0.006838  -0.045116   0.006838
     3  C    0.006837   0.427530  -0.045116  -0.045117   0.006838  -0.000718
     4  C   -0.045116  -0.045117   0.006837   0.427530  -0.000718   0.006838
     5  C    0.427530   0.006838  -0.000718  -0.045116   0.006838  -0.045116
     6  C   -0.045116  -0.000718   0.006837   0.006838  -0.045117   0.427530
     7  H    0.558644  -0.000358   0.000084  -0.007265  -0.000358  -0.007265
     8  H   -0.000358   0.558645  -0.007265  -0.007265  -0.000358   0.000084
     9  H    0.000084  -0.007265   0.558644  -0.000358  -0.007265  -0.000358
    10  H   -0.007265  -0.007265  -0.000358   0.558645   0.000084  -0.000358
    11  H   -0.000358  -0.000358  -0.007265   0.000084   0.558645  -0.007265
    12  H   -0.007265   0.000084  -0.000358  -0.000358  -0.007265   0.558645
 Mulliken charges:
               1
     1  C   -0.106263
     2  C   -0.106263
     3  C   -0.106263
     4  C   -0.106263
     5  C   -0.106263
     6  C   -0.106263
     7  H    0.106263
     8  H    0.106263
     9  H    0.106263
    10  H    0.106263
    11  H    0.106263
    12  H    0.106263
 Sum of Mulliken charges =  -0.00000
 Mulliken charges with hydrogens summed into heavy atoms:
               1
     1  C   -0.000000
     2  C    0.000000
     3  C   -0.000000
     4  C   -0.000000
     5  C    0.000000
     6  C   -0.000000
 APT charges:
               1
     1  C   -0.506707
     2  C   -0.506706
     3  C   -0.506707
     4  C   -0.506707
     5  C   -0.506706
     6  C   -0.506707
     7  H    0.506706
     8  H    0.506706
     9  H    0.506706
    10  H    0.506706
    11  H    0.506706
    12  H    0.506706
 Sum of APT charges =  -0.00000
 APT charges with hydrogens summed into heavy atoms:
               1
     1  C   -0.000000
     2  C    0.000000
     3  C   -0.000000
     4  C   -0.000000
     5  C    0.000000
     6  C   -0.000000
 Electronic spatial extent (au):  <R**2>=            460.7574
 Charge=             -0.0000 electrons
 Dipole moment (field-independent basis, Debye):
    X=             -0.0000    Y=              0.0000    Z=              0.0000  Tot=              0.0000
 Quadrupole moment (field-independent basis, Debye-Ang):
   XX=            -32.0800   YY=            -32.0800   ZZ=            -39.6762
   XY=              0.0000   XZ=              0.0000   YZ=              0.0000
 Traceless Quadrupole moment (field-independent basis, Debye-Ang):
   XX=              2.5321   YY=              2.5321   ZZ=             -5.0641
   XY=              0.0000   XZ=              0.0000   YZ=              0.0000
 Octapole moment (field-independent basis, Debye-Ang**2):
  XXX=              0.0000  YYY=              0.0000  ZZZ=             -0.0000  XYY=             -0.0000
  XXY=             -0.0000  XXZ=              0.0000  XZZ=             -0.0000  YZZ=              0.0000
  YYZ=             -0.0000  XYZ=             -0.0000
 Hexadecapole moment (field-independent basis, Debye-Ang**3):
 XXXX=           -276.7579 YYYY=           -276.7580 ZZZZ=            -46.3189 XXXY=             -0.0000
 XXXZ=              0.0000 YYYX=             -0.0000 YYYZ=             -0.0000 ZZZX=              0.0000
 ZZZY=             -0.0000 XXYY=            -92.2526 XXZZ=            -63.7409 YYZZ=            -63.7409
 XXYZ=              0.0000 YYXZ=              0.0000 ZZXY=             -0.0000
 N-N= 2.030193356270D+02 E-N=-9.440376337386D+02  KE= 2.306088628493D+02
 Symmetry A    KE= 7.427169481650D+01
 Symmetry B1   KE= 3.947794432789D+01
 Symmetry B2   KE= 7.417443570497D+01
 Symmetry B3   KE= 4.268478799989D+01
  Exact polarizability:       0.000       0.000       0.000       0.000       0.000       0.000
 Approx polarizability:     129.723       0.000     129.723       0.000      -0.000      53.693
 No NMR shielding tensors so no spin-rotation constants.
 Leave Link  601 at Sun Apr  3 21:20:08 2022, MaxMem=  1073741824 cpu:               1.5 elap:               0.2
 (Enter /home/saurabh/g16/l701.exe)
 ... and contract with generalized density number  0.
 Compute integral second derivatives.
 Leave Link  701 at Sun Apr  3 21:20:08 2022, MaxMem=  1073741824 cpu:               1.4 elap:               0.2
 (Enter /home/saurabh/g16/l702.exe)
 L702 exits ... SP integral derivatives will be done elsewhere.
 Leave Link  702 at Sun Apr  3 21:20:08 2022, MaxMem=  1073741824 cpu:               0.2 elap:               0.0
 (Enter /home/saurabh/g16/l703.exe)
 Integral derivatives from FoFJK, PRISM(SPDF).
 Compute integral second derivatives, UseDBF=F ICtDFT=           0.
 Calling FoFJK, ICntrl=    100127 FMM=F ISym2X=1 I1Cent= 0 IOpClX= 0 NMat=1 NMatS=1 NMatT=0.
 FoFJK:  IHMeth= 1 ICntrl=  100127 DoSepK=F KAlg= 0 I1Cent=           0 FoldK=F
 IRaf=         0 NMat=       1 IRICut=       1 DoRegI=T DoRafI=F ISym2E= 1 IDoP0=0 IntGTp=1.
 FoFCou: FMM=F IPFlag=           0 FMFlag=      100000 FMFlg1=         800
         NFxFlg=           0 DoJE=F BraDBF=F KetDBF=F FulRan=T
         wScrn=  0.000000 ICntrl=    100127 IOpCl=  0 I1Cent=           0 NGrid=           0
         NMat0=    1 NMatS0=      1 NMatT0=    0 NMatD0=    1 NMtDS0=    0 NMtDT0=    0
 Petite list used in FoFCou.
 Leave Link  703 at Sun Apr  3 21:20:37 2022, MaxMem=  1073741824 cpu:             232.4 elap:              29.0
 (Enter /home/saurabh/g16/l716.exe)
 Dipole        =-8.88178804D-16 3.10862293D-15 7.96846197D-17
 Polarizability= 0.00000000D+00 0.00000000D+00 0.00000000D+00
                 0.00000000D+00 0.00000000D+00 0.00000000D+00
 ***** Axes restored to original set *****
 -------------------------------------------------------------------
 Center     Atomic                   Forces (Hartrees/Bohr)
 Number     Number              X              Y              Z
 -------------------------------------------------------------------
      1        6           0.000395073    0.006913892    0.002777440
      2        6           0.006263937    0.002341005    0.003309088
      3        6           0.005872763   -0.004571430    0.000533708
      4        6          -0.000395001   -0.006913821   -0.002777628
      5        6          -0.006263937   -0.002341005   -0.003309088
      6        6          -0.005872835    0.004571359   -0.000533520
      7        1          -0.000302708   -0.000113130   -0.000159913
      8        1           0.000283391   -0.000220896    0.000025697
      9        1           0.000302708    0.000113130    0.000159913
     10        1          -0.000018826   -0.000333819   -0.000134074
     11        1           0.000018863    0.000333856    0.000133977
     12        1          -0.000283429    0.000220859   -0.000025600
 -------------------------------------------------------------------
 Cartesian Forces:  Max     0.006913892 RMS     0.003049600
 Force constants in Cartesian coordinates: 
                1             2             3             4             5 
      1  0.571341D+00
      2 -0.504696D-01  0.659403D+00
      3  0.147868D+00  0.178052D+00  0.263789D+00
      4 -0.234819D+00  0.122948D+00 -0.188704D-01  0.641964D+00
      5  0.656856D-01 -0.191213D+00 -0.224710D-01 -0.288976D-01  0.582919D+00
      6 -0.406105D-01 -0.345614D-03 -0.809976D-01  0.183354D+00  0.157357D+00
      7  0.360492D-01  0.192267D-01  0.181838D-01 -0.123792D+00  0.272995D-01
      8  0.606265D-01 -0.388394D-01  0.568800D-02 -0.299626D-01 -0.278213D+00
      9  0.339016D-01 -0.103083D-01  0.170655D-01 -0.340246D-01 -0.703331D-01
     10 -0.614449D-01  0.102560D-01 -0.168994D-01  0.255222D-01 -0.725399D-01
     11  0.102560D-01 -0.300324D-02  0.571964D-02 -0.311464D-01 -0.472869D-02
     12 -0.168994D-01  0.571967D-02 -0.119889D-01 -0.500596D-02 -0.328132D-01
     13  0.255221D-01 -0.311465D-01 -0.500596D-02 -0.133207D-01  0.249782D-01
     14 -0.725400D-01 -0.472869D-02 -0.328133D-01  0.249782D-01 -0.551236D-01
     15 -0.207213D-01 -0.168193D-01 -0.651801D-02  0.728009D-02 -0.838425D-02
     16 -0.250231D+00 -0.686255D-01 -0.975540D-01 -0.503459D-01  0.342130D-01
     17 -0.113684D-01 -0.141273D+00 -0.332803D-01 -0.718045D-02  0.547212D-01
     18 -0.758159D-01 -0.554038D-01 -0.115512D+00 -0.252216D-01  0.310054D-01
     19  0.250967D-02  0.616309D-03 -0.157538D-02  0.189480D-03  0.588283D-03
     20  0.141201D-02 -0.427754D-02 -0.380910D-02  0.588267D-03 -0.102286D-02
     21 -0.127332D-02 -0.411655D-02  0.513759D-02  0.578274D-03  0.115729D-03
     22  0.233287D-02 -0.126373D-03 -0.192578D-02  0.489775D-02 -0.272894D-02
     23 -0.922122D-03 -0.370582D-02 -0.449399D-02  0.245124D-01 -0.129870D-01
     24 -0.222785D-02 -0.418654D-02  0.474245D-02  0.100410D-01 -0.712262D-02
     25 -0.162195D-01 -0.101731D-01 -0.112874D-01 -0.250399D+00 -0.696648D-01
     26  0.170679D-01  0.101332D-01  0.930405D-02 -0.696648D-01 -0.840714D-01
     27 -0.945111D-03 -0.122159D-02  0.216831D-02 -0.109111D+00 -0.449922D-01
     28 -0.121167D-02  0.159936D-03 -0.125704D-03 -0.345715D-02 -0.412191D-03
     29  0.159943D-03  0.494188D-03  0.526268D-03 -0.120769D-02  0.218368D-02
     30 -0.125719D-03  0.526278D-03 -0.577963D-03 -0.457339D-02 -0.206088D-02
     31 -0.577284D-01 -0.107582D-01 -0.122976D-01  0.574518D-02  0.237824D-01
     32 -0.107589D-01 -0.292742D+00 -0.101451D+00 -0.345898D-02 -0.136511D-01
     33 -0.122978D-01 -0.101451D+00 -0.797402D-01 -0.251142D-03  0.286893D-02
     34 -0.161003D-01  0.180925D-01 -0.510296D-03 -0.218522D-02 -0.230349D-02
     35 -0.914918D-02  0.975260D-02 -0.970607D-03 -0.150798D-02  0.118697D-02
     36 -0.108528D-01  0.955519D-02  0.243212D-02 -0.419590D-02 -0.317004D-02
                6             7             8             9            10 
      6  0.269624D+00
      7 -0.122846D-01  0.633376D+00
      8 -0.924584D-01 -0.103913D+00  0.610792D+00
      9 -0.105024D+00  0.151549D+00  0.138947D+00  0.250365D+00
     10 -0.207213D-01 -0.250231D+00 -0.113680D-01 -0.758165D-01  0.571341D+00
     11 -0.168193D-01 -0.686252D-01 -0.141273D+00 -0.554038D-01 -0.504702D-01
     12 -0.651804D-02 -0.975546D-01 -0.332804D-01 -0.115513D+00  0.147868D+00
     13  0.728007D-02 -0.503459D-01 -0.718046D-02 -0.252216D-01 -0.234819D+00
     14 -0.838421D-02  0.342130D-01  0.547212D-01  0.310054D-01  0.656856D-01
     15 -0.798918D-02 -0.950627D-02  0.150115D-01  0.990011D-02 -0.406102D-01
     16 -0.950621D-02 -0.191925D-01 -0.261440D-01 -0.143931D-01  0.360492D-01
     17  0.150114D-01 -0.261439D-01 -0.361121D-01 -0.209149D-01  0.606265D-01
     18  0.990014D-02 -0.143931D-01 -0.209148D-01 -0.211325D-01  0.339016D-01
     19  0.578264D-03 -0.145770D-02  0.482982D-02 -0.150863D-02 -0.162195D-01
     20  0.115757D-03  0.403413D-02 -0.116874D-02 -0.161566D-02  0.170680D-01
     21 -0.461696D-03 -0.181070D-02 -0.130820D-02  0.599616D-02 -0.945158D-03
     22 -0.301399D-03 -0.226922D+00  0.135000D+00 -0.223343D-01 -0.161003D-01
     23  0.340312D-02  0.135001D+00 -0.160162D+00  0.520327D-02 -0.914917D-02
     24  0.417196D-02 -0.223340D-01  0.520300D-02 -0.431263D-01 -0.108528D-01
     25 -0.109111D+00  0.221983D-02  0.118272D-02  0.148635D-03  0.250966D-02
     26 -0.449923D-01 -0.260583D-01 -0.431576D-02 -0.128451D-01  0.141199D-02
     27 -0.957041D-01 -0.101936D-01 -0.231950D-02 -0.182204D-02 -0.127328D-02
     28 -0.427137D-02  0.318490D-02 -0.257631D-01 -0.970889D-02 -0.577283D-01
     29 -0.236826D-02  0.147851D-02 -0.535919D-02 -0.260152D-02 -0.107586D-01
     30  0.464287D-02  0.633651D-03 -0.131274D-01 -0.174128D-02 -0.122978D-01
     31  0.100912D-01 -0.290624D-02  0.359134D-02 -0.253864D-02 -0.121168D-02
     32 -0.765681D-02  0.438707D-02  0.399537D-03 -0.883951D-03  0.159934D-03
     33  0.398856D-02 -0.223655D-02 -0.119145D-02  0.587620D-02 -0.125689D-03
     34 -0.449792D-02  0.185506D-04 -0.899895D-03 -0.527342D-04  0.233287D-02
     35 -0.286268D-02 -0.899888D-03 -0.469815D-03 -0.249229D-03 -0.922096D-03
     36  0.436765D-02 -0.527292D-04 -0.249212D-03 -0.844181D-03 -0.222789D-02
               11            12            13            14            15 
     11  0.659402D+00
     12  0.178053D+00  0.263790D+00
     13  0.122948D+00 -0.188702D-01  0.641965D+00
     14 -0.191213D+00 -0.224713D-01 -0.288977D-01  0.582918D+00
     15 -0.345889D-03 -0.809976D-01  0.183354D+00  0.157358D+00  0.269624D+00
     16  0.192268D-01  0.181839D-01 -0.123792D+00  0.272996D-01 -0.122845D-01
     17 -0.388394D-01  0.568796D-02 -0.299625D-01 -0.278213D+00 -0.924588D-01
     18 -0.103084D-01  0.170655D-01 -0.340245D-01 -0.703334D-01 -0.105024D+00
     19 -0.101731D-01 -0.112874D-01 -0.250399D+00 -0.696648D-01 -0.109111D+00
     20  0.101332D-01  0.930405D-02 -0.696648D-01 -0.840713D-01 -0.449924D-01
     21 -0.122153D-02  0.216831D-02 -0.109111D+00 -0.449924D-01 -0.957042D-01
     22  0.180925D-01 -0.510341D-03 -0.218520D-02 -0.230347D-02 -0.449795D-02
     23  0.975259D-02 -0.970635D-03 -0.150797D-02  0.118698D-02 -0.286267D-02
     24  0.955525D-02  0.243211D-02 -0.419592D-02 -0.317005D-02  0.436762D-02
     25  0.616305D-03 -0.157540D-02  0.189491D-03  0.588261D-03  0.578258D-03
     26 -0.427755D-02 -0.380909D-02  0.588276D-03 -0.102288D-02  0.115756D-03
     27 -0.411653D-02  0.513761D-02  0.578247D-03  0.115785D-03 -0.461684D-03
     28 -0.107579D-01 -0.122976D-01  0.574515D-02  0.237824D-01  0.100913D-01
     29 -0.292741D+00 -0.101452D+00 -0.345897D-02 -0.136510D-01 -0.765684D-02
     30 -0.101452D+00 -0.797408D-01 -0.251126D-03  0.286888D-02  0.398856D-02
     31  0.159944D-03 -0.125703D-03 -0.345717D-02 -0.412204D-03 -0.427135D-02
     32  0.494198D-03  0.526263D-03 -0.120772D-02  0.218366D-02 -0.236824D-02
     33  0.526255D-03 -0.577961D-03 -0.457337D-02 -0.206087D-02  0.464291D-02
     34 -0.126379D-03 -0.192575D-02  0.489774D-02 -0.272892D-02 -0.301403D-03
     35 -0.370581D-02 -0.449401D-02  0.245124D-01 -0.129870D-01  0.340307D-02
     36 -0.418654D-02  0.474243D-02  0.100410D-01 -0.712266D-02  0.417193D-02
               16            17            18            19            20 
     16  0.633377D+00
     17 -0.103912D+00  0.610791D+00
     18  0.151547D+00  0.138948D+00  0.250364D+00
     19  0.221983D-02  0.118270D-02  0.148629D-03  0.263551D+00
     20 -0.260583D-01 -0.431579D-02 -0.128451D-01  0.743915D-01  0.838743D-01
     21 -0.101936D-01 -0.231943D-02 -0.182202D-02  0.120200D+00  0.508830D-01
     22  0.185505D-04 -0.899882D-03 -0.527269D-04 -0.866081D-03  0.926915D-03
     23 -0.899886D-03 -0.469801D-03 -0.249227D-03 -0.507184D-03  0.331278D-03
     24 -0.527308D-04 -0.249246D-03 -0.844195D-03 -0.617008D-03  0.395686D-03
     25 -0.145768D-02  0.482983D-02 -0.150863D-02 -0.174608D-03 -0.216248D-03
     26  0.403414D-02 -0.116874D-02 -0.161564D-02 -0.216247D-03 -0.332617D-04
     27 -0.181074D-02 -0.130821D-02  0.599614D-02  0.330782D-03  0.375800D-03
     28 -0.290626D-02  0.359133D-02 -0.253864D-02  0.430747D-03 -0.113308D-02
     29  0.438707D-02  0.399539D-03 -0.883990D-03 -0.280467D-03  0.364729D-03
     30 -0.223652D-02 -0.119142D-02  0.587621D-02  0.159966D-02  0.121356D-02
     31  0.318490D-02 -0.257632D-01 -0.970885D-02  0.000000D+00 -0.125319D-02
     32  0.147853D-02 -0.535921D-02 -0.260151D-02  0.180908D-03 -0.347280D-03
     33  0.633598D-03 -0.131273D-01 -0.174127D-02 -0.211708D-04 -0.704300D-03
     34 -0.226923D+00  0.135000D+00 -0.223336D-01  0.215641D-03 -0.951502D-04
     35  0.135001D+00 -0.160161D+00  0.520277D-02 -0.947763D-03  0.533288D-03
     36 -0.223334D-01  0.520254D-02 -0.431261D-01  0.126320D-02  0.167860D-02
               21            22            23            24            25 
     21  0.913230D-01
     22 -0.725335D-04  0.238184D+00
     23 -0.158433D-03 -0.146738D+00  0.166084D+00
     24  0.144244D-03  0.264419D-01 -0.335060D-02  0.345140D-01
     25  0.330783D-03  0.215635D-03 -0.947761D-03  0.126321D-02  0.263551D+00
     26  0.375797D-03 -0.951523D-04  0.533294D-03  0.167859D-02  0.743916D-01
     27 -0.972694D-03  0.158691D-02  0.134915D-02 -0.285951D-02  0.120200D+00
     28  0.127596D-02  0.460511D-03 -0.203045D-04  0.170968D-02  0.000000D+00
     29  0.154300D-02 -0.872761D-03  0.268020D-03  0.127717D-02  0.180907D-03
     30 -0.290605D-02  0.138604D-02  0.160654D-02 -0.283871D-02 -0.211703D-04
     31 -0.565643D-03  0.120101D-03  0.122840D-02  0.422984D-03  0.430747D-03
     32 -0.150187D-03 -0.205723D-03 -0.736625D-03 -0.447382D-03 -0.280463D-03
     33 -0.431547D-04 -0.121492D-03  0.106745D-03  0.225975D-03  0.159967D-02
     34  0.158690D-02 -0.155399D-03 -0.492285D-04  0.401582D-03 -0.866081D-03
     35  0.134916D-02 -0.492310D-04 -0.953447D-04  0.416733D-03 -0.507184D-03
     36 -0.285951D-02  0.401587D-03  0.416731D-03 -0.929718D-03 -0.617000D-03
               26            27            28            29            30 
     26  0.838744D-01
     27  0.508830D-01  0.913230D-01
     28 -0.125319D-02 -0.565632D-03  0.553794D-01
     29 -0.347276D-03 -0.150186D-03  0.107459D-01  0.309329D+00
     30 -0.704311D-03 -0.431541D-04  0.155981D-01  0.111884D+00  0.740739D-01
     31 -0.113307D-02  0.127596D-02 -0.173591D-04 -0.168150D-03  0.409771D-03
     32  0.364737D-03  0.154299D-02 -0.168149D-03 -0.203512D-03  0.329714D-03
     33  0.121355D-02 -0.290606D-02  0.409774D-03  0.329719D-03 -0.959590D-03
     34  0.926920D-03 -0.725394D-04  0.120101D-03 -0.205723D-03 -0.121491D-03
     35  0.331283D-03 -0.158440D-03  0.122840D-02 -0.736624D-03  0.106745D-03
     36  0.395680D-03  0.144239D-03  0.422984D-03 -0.447383D-03  0.225974D-03
               31            32            33            34            35 
     31  0.553795D-01
     32  0.107462D-01  0.309329D+00
     33  0.155982D-01  0.111883D+00  0.740733D-01
     34  0.460520D-03 -0.872750D-03  0.138603D-02  0.238185D+00
     35 -0.203031D-04  0.268024D-03  0.160655D-02 -0.146738D+00  0.166084D+00
     36  0.170967D-02  0.127716D-02 -0.283872D-02  0.264413D-01 -0.335006D-02
               36 
     36  0.345139D-01
 FormGI is forming the generalized inverse of G from B-inverse, IUseBI=4.
 Leave Link  716 at Sun Apr  3 21:20:37 2022, MaxMem=  1073741824 cpu:               0.2 elap:               0.1
 (Enter /home/saurabh/g16/l103.exe)

 GradGradGradGradGradGradGradGradGradGradGradGradGradGradGradGradGradGrad
 Berny optimization.
 Red2BG is reusing G-inverse.
 Internal  Forces:  Max     0.007823661 RMS     0.002609968
 Search for a local minimum.
 Step number   1 out of a maximum of  100
 All quantities printed in internal units (Hartrees-Bohrs-Radians)
 RMS Force = .26100D-02 SwitMx=.10000D-02 MixMth= 1
 Mixed Optimization -- RFO/linear search
 Second derivative matrix not updated -- analytic derivatives used.
 ITU=  0
     Eigenvalues ---    0.01686   0.01686   0.01800   0.02344   0.02344
     Eigenvalues ---    0.02611   0.02828   0.02828   0.02890   0.10544
     Eigenvalues ---    0.11106   0.11106   0.12056   0.12544   0.12545
     Eigenvalues ---    0.19173   0.19173   0.19439   0.25966   0.35166
     Eigenvalues ---    0.35167   0.35580   0.35602   0.35604   0.35780
     Eigenvalues ---    0.39556   0.39558   0.44492   0.44495   0.48850
 RFO step:  Lambda=-7.52189948D-04 EMin= 1.68622050D-02
 Linear search not attempted -- first point.
 Iteration  1 RMS(Cart)=  0.00766958 RMS(Int)=  0.00000001
 Iteration  2 RMS(Cart)=  0.00000001 RMS(Int)=  0.00000000
 ITry= 1 IFail=0 DXMaxC= 1.53D-02 DCOld= 1.00D+10 DXMaxT= 3.00D-01 DXLimC= 3.00D+00 Rises=F
 ClnCor:  largest displacement from symmetrization is 5.62D-09 for atom    11.
 Variable       Old X    -DE/DX   Delta X   Delta X   Delta X     New X
                                 (Linear)    (Quad)   (Total)
    R1        2.64381  -0.00782   0.00000  -0.01600  -0.01600   2.62781
    R2        2.64381  -0.00782   0.00000  -0.01601  -0.01601   2.62780
    R3        2.04532  -0.00036   0.00000  -0.00053  -0.00053   2.04480
    R4        2.64381  -0.00782   0.00000  -0.01600  -0.01600   2.62781
    R5        2.04532  -0.00036   0.00000  -0.00053  -0.00053   2.04480
    R6        2.64381  -0.00782   0.00000  -0.01601  -0.01601   2.62780
    R7        2.04532  -0.00036   0.00000  -0.00053  -0.00053   2.04480
    R8        2.64381  -0.00782   0.00000  -0.01600  -0.01600   2.62781
    R9        2.04532  -0.00036   0.00000  -0.00053  -0.00053   2.04480
   R10        2.64381  -0.00782   0.00000  -0.01600  -0.01600   2.62781
   R11        2.04532  -0.00036   0.00000  -0.00053  -0.00053   2.04480
   R12        2.04532  -0.00036   0.00000  -0.00053  -0.00053   2.04480
    A1        2.09440  -0.00000   0.00000  -0.00000  -0.00000   2.09439
    A2        2.09439   0.00000   0.00000  -0.00000  -0.00000   2.09439
    A3        2.09440   0.00000   0.00000   0.00000   0.00000   2.09440
    A4        2.09439   0.00000   0.00000   0.00000   0.00000   2.09440
    A5        2.09440  -0.00000   0.00000  -0.00000  -0.00000   2.09439
    A6        2.09440  -0.00000   0.00000  -0.00000  -0.00000   2.09439
    A7        2.09440  -0.00000   0.00000  -0.00000  -0.00000   2.09439
    A8        2.09439   0.00000   0.00000  -0.00000  -0.00000   2.09439
    A9        2.09440   0.00000   0.00000   0.00000   0.00000   2.09440
   A10        2.09440  -0.00000   0.00000  -0.00000  -0.00000   2.09439
   A11        2.09440   0.00000   0.00000   0.00000   0.00000   2.09440
   A12        2.09439   0.00000   0.00000  -0.00000  -0.00000   2.09439
   A13        2.09439   0.00000   0.00000   0.00000   0.00000   2.09440
   A14        2.09440  -0.00000   0.00000  -0.00000  -0.00000   2.09439
   A15        2.09440  -0.00000   0.00000  -0.00000  -0.00000   2.09439
   A16        2.09440  -0.00000   0.00000  -0.00000  -0.00000   2.09439
   A17        2.09440   0.00000   0.00000   0.00000   0.00000   2.09440
   A18        2.09439   0.00000   0.00000  -0.00000  -0.00000   2.09439
    D1       -0.00000   0.00000   0.00000   0.00000   0.00000  -0.00000
    D2        3.14159   0.00000   0.00000   0.00000   0.00000   3.14159
    D3        3.14159   0.00000   0.00000   0.00000   0.00000   3.14159
    D4       -0.00000   0.00000   0.00000   0.00000   0.00000  -0.00000
    D5        0.00000  -0.00000   0.00000  -0.00000  -0.00000   0.00000
    D6       -3.14159  -0.00000   0.00000  -0.00000  -0.00000  -3.14159
    D7       -3.14159  -0.00000   0.00000  -0.00000  -0.00000  -3.14159
    D8        0.00000  -0.00000   0.00000  -0.00000  -0.00000   0.00000
    D9       -0.00000   0.00000   0.00000   0.00000   0.00000  -0.00000
   D10        3.14159   0.00000   0.00000   0.00000   0.00000   3.14159
   D11        3.14159   0.00000   0.00000   0.00000   0.00000   3.14159
   D12       -0.00000   0.00000   0.00000   0.00000   0.00000  -0.00000
   D13        0.00000  -0.00000   0.00000  -0.00000  -0.00000   0.00000
   D14       -3.14159  -0.00000   0.00000  -0.00000  -0.00000  -3.14159
   D15       -3.14159  -0.00000   0.00000  -0.00000  -0.00000  -3.14159
   D16        0.00000  -0.00000   0.00000  -0.00000  -0.00000   0.00000
   D17       -0.00000   0.00000   0.00000   0.00000   0.00000  -0.00000
   D18        3.14159   0.00000   0.00000   0.00000   0.00000   3.14159
   D19        3.14159   0.00000   0.00000   0.00000   0.00000   3.14159
   D20       -0.00000   0.00000   0.00000   0.00000   0.00000  -0.00000
   D21       -0.00000   0.00000   0.00000   0.00000   0.00000  -0.00000
   D22        3.14159   0.00000   0.00000   0.00000   0.00000   3.14159
   D23        3.14159   0.00000   0.00000   0.00000   0.00000   3.14159
   D24       -0.00000   0.00000   0.00000   0.00000   0.00000  -0.00000
         Item               Value     Threshold  Converged?
 Maximum Force            0.007824     0.000450     NO 
 RMS     Force            0.002610     0.000300     NO 
 Maximum Displacement     0.015319     0.001800     NO 
 RMS     Displacement     0.007670     0.001200     NO 
 Predicted change in Energy=-3.766744D-04
 Lowest energy point so far.  Saving SCF results.
 GradGradGradGradGradGradGradGradGradGradGradGradGradGradGradGradGradGrad

 Leave Link  103 at Sun Apr  3 21:20:37 2022, MaxMem=  1073741824 cpu:               0.2 elap:               0.0
 (Enter /home/saurabh/g16/l202.exe)
                          Input orientation:                          
 ---------------------------------------------------------------------
 Center     Atomic      Atomic             Coordinates (Angstroms)
 Number     Number       Type             X           Y           Z
 ---------------------------------------------------------------------
      1          6           0       -0.102346    0.144417   -0.633869
      2          6           0       -1.196618    0.996721   -0.733099
      3          6           0       -1.123433    2.285335   -0.215589
      4          6           0        0.044024    2.721646    0.401151
      5          6           0        1.138296    1.869342    0.500380
      6          6           0        1.065111    0.580727   -0.017129
      7          1           0        2.046741    2.208853    0.980290
      8          1           0       -1.974930    2.948542   -0.292806
      9          1           0       -2.105062    0.657210   -1.213008
     10          1           0        0.100977    3.724365    0.803846
     11          1           0       -0.159298   -0.858303   -1.036564
     12          1           0        1.916609   -0.082480    0.060088
 ---------------------------------------------------------------------
                    Distance matrix (angstroms):
                    1          2          3          4          5
     1  C    0.000000
     2  C    1.390575   0.000000
     3  C    2.408549   1.390575   0.000000
     4  C    2.781151   2.408543   1.390572   0.000000
     5  C    2.408543   2.781144   2.408543   1.390575   0.000000
     6  C    1.390572   2.408543   2.781151   2.408549   1.390575
     7  H    3.389097   3.863203   3.389097   2.146913   1.082060
     8  H    3.389103   2.146913   1.082060   2.146913   3.389100
     9  H    2.146913   1.082060   2.146913   3.389097   3.863203
    10  H    3.863211   3.389100   2.146913   1.082060   2.146913
    11  H    1.082060   2.146913   3.389103   3.863211   3.389100
    12  H    2.146913   3.389100   3.863211   3.389103   2.146913
                    6          7          8          9         10
     6  C    0.000000
     7  H    2.146913   0.000000
     8  H    3.863211   4.282727   0.000000
     9  H    3.389097   4.945263   2.472632   0.000000
    10  H    3.389103   2.472632   2.472638   4.282727   0.000000
    11  H    2.146913   4.282727   4.282729   2.472632   4.945271
    12  H    1.082060   2.472632   4.945271   4.282727   4.282729
                   11         12
    11  H    0.000000
    12  H    2.472638   0.000000
 Stoichiometry    C6H6
 Framework group  D2[C2(HC.CH),X(C4H4)]
 Deg. of freedom     8
 Full point group                 D2      NOp   4
 Omega: Change in point group or standard orientation.

 Old FWG=D02  [C2'(H1C1.C1H1),X(C4H4)]
 New FWG=D02  [C2(H1C1.C1H1),X(C4H4)]
 RotChk:  IX=0 Diff= 2.00D+00
 Largest Abelian subgroup         D2      NOp   4
 Largest concise Abelian subgroup D2      NOp   4
                         Standard orientation:                         
 ---------------------------------------------------------------------
 Center     Atomic      Atomic             Coordinates (Angstroms)
 Number     Number       Type             X           Y           Z
 ---------------------------------------------------------------------
      1          6           0        1.204275    0.000000    0.695286
      2          6           0        0.000000   -0.000000    1.390572
      3          6           0       -1.204275   -0.000000    0.695286
      4          6           0       -1.204275    0.000000   -0.695286
      5          6           0       -0.000000   -0.000000   -1.390572
      6          6           0        1.204275   -0.000000   -0.695286
      7          1           0       -0.000000    0.000000   -2.472631
      8          1           0       -2.141364   -0.000000    1.236319
      9          1           0        0.000000    0.000000    2.472631
     10          1           0       -2.141364    0.000000   -1.236319
     11          1           0        2.141364    0.000000    1.236319
     12          1           0        2.141364   -0.000000   -1.236319
 ---------------------------------------------------------------------
 Rotational constants (GHZ):           5.7365479           5.7365154           2.8682658
 Leave Link  202 at Sun Apr  3 21:20:37 2022, MaxMem=  1073741824 cpu:               0.1 elap:               0.0
 (Enter /home/saurabh/g16/l301.exe)
 Standard basis: CC-pVTZ (5D, 7F)
 Ernie: Thresh=  0.10000D-02 Tol=  0.10000D-05 Strict=F.
 Ernie:  18 primitive shells out of 204 were deleted.
 There are    78 symmetry adapted cartesian basis functions of A   symmetry.
 There are    78 symmetry adapted cartesian basis functions of B1  symmetry.
 There are    72 symmetry adapted cartesian basis functions of B2  symmetry.
 There are    72 symmetry adapted cartesian basis functions of B3  symmetry.
 There are    68 symmetry adapted basis functions of A   symmetry.
 There are    68 symmetry adapted basis functions of B1  symmetry.
 There are    64 symmetry adapted basis functions of B2  symmetry.
 There are    64 symmetry adapted basis functions of B3  symmetry.
   264 basis functions,   414 primitive gaussians,   300 cartesian basis functions
    21 alpha electrons       21 beta electrons
       nuclear repulsion energy       204.0766309375 Hartrees.
 IExCor=  402 DFT=T Ex+Corr=B3LYP ExCW=0 ScaHFX=  0.200000
 ScaDFX=  0.800000  0.720000  1.000000  0.810000 ScalE2=  1.000000  1.000000
 IRadAn=      5 IRanWt=     -1 IRanGd=            0 ICorTp=0 IEmpDi=  4
 NAtoms=   12 NActive=   12 NUniq=    4 SFac= 4.00D+00 NAtFMM=   60 NAOKFM=F Big=F
 Integral buffers will be    131072 words long.
 Raffenetti 2 integral format.
 Two-electron integral symmetry is turned on.
 Leave Link  301 at Sun Apr  3 21:20:37 2022, MaxMem=  1073741824 cpu:               0.4 elap:               0.1
 (Enter /home/saurabh/g16/l302.exe)
 NPDir=0 NMtPBC=     1 NCelOv=     1 NCel=       1 NClECP=     1 NCelD=      1
         NCelK=      1 NCelE2=     1 NClLst=     1 CellRange=     0.0.
 One-electron integrals computed using PRISM.
 One-electron integral symmetry used in STVInt
 NBasis=   264 RedAO= T EigKep=  3.69D-05  NBF=    68    68    64    64
 NBsUse=   264 1.00D-06 EigRej= -1.00D+00 NBFU=    68    68    64    64
 Precomputing XC quadrature grid using
 IXCGrd= 4 IRadAn=           5 IRanWt=          -1 IRanGd=           0 AccXCQ= 0.00D+00.
 Generated NRdTot=       0 NPtTot=           0 NUsed=           0 NTot=          32
 NSgBfM=   300   300   300   300   300 MxSgAt=    12 MxSgA2=    12.
 Leave Link  302 at Sun Apr  3 21:20:38 2022, MaxMem=  1073741824 cpu:               1.6 elap:               0.2
 (Enter /home/saurabh/g16/l303.exe)
 DipDrv:  MaxL=1.
 Leave Link  303 at Sun Apr  3 21:20:38 2022, MaxMem=  1073741824 cpu:               0.3 elap:               0.1
 (Enter /home/saurabh/g16/l401.exe)
 Initial guess from the checkpoint file:  "Mol_05.chk"
 B after Tr=    -0.000000   -0.000000    0.000000
         Rot=    0.707107    0.707107   -0.000000   -0.000000 Ang=  90.00 deg.
 Guess basis will be translated and rotated to current coordinates.
 JPrj=2 DoOrth=T DoCkMO=T.
 Initial guess orbital symmetries:
       Occupied  (A) (B1) (B3) (A) (B2) (B1) (A) (B3) (B1) (A)
                 (B2) (A) (B1) (B3) (B3) (B1) (B2) (A) (B2) (B3)
                 (B1)
       Virtual   (B2) (A) (A) (B3) (B1) (A) (B2) (B1) (B3) (A)
                 (B2) (B3) (A) (B3) (B1) (B2) (B3) (B1) (A) (B1)
                 (B3) (B1) (B2) (A) (B2) (A) (B1) (B3) (B2) (B3)
                 (B2) (A) (B2) (A) (B1) (A) (B2) (B3) (B1) (B1)
                 (B3) (B1) (B2) (B1) (B3) (B1) (B2) (A) (A) (A)
                 (B2) (B3) (B2) (B1) (B2) (A) (B2) (A) (B3) (B3)
                 (B1) (A) (B1) (B3) (B1) (B3) (B1) (B3) (B2) (B3)
                 (B3) (B1) (A) (B2) (B2) (A) (A) (B2) (B1) (B1)
                 (B3) (A) (A) (B2) (B3) (A) (B1) (B2) (A) (B2)
                 (B1) (B2) (B3) (B1) (A) (B3) (B1) (B3) (B3) (B1)
                 (B2) (A) (B1) (A) (A) (B2) (B1) (B3) (B2) (B3)
                 (B2) (A) (B3) (B2) (A) (B3) (B1) (B2) (B3) (B1)
                 (B1) (B3) (A) (B1) (B2) (A) (B2) (B3) (B1) (B2)
                 (A) (B1) (B3) (A) (B3) (A) (B2) (B2) (A) (B1)
                 (B3) (A) (B1) (B2) (A) (B1) (B2) (B3) (B2) (A)
                 (A) (B3) (B1) (A) (B2) (B1) (B3) (B3) (B1) (B1)
                 (B2) (A) (B3) (B1) (B3) (A) (B3) (B1) (B2) (B3)
                 (B1) (A) (B2) (A) (B2) (B1) (B2) (A) (B3) (B1)
                 (B3) (B1) (B1) (B2) (A) (A) (B2) (B2) (A) (B3)
                 (B3) (A) (B2) (B1) (B2) (A) (B1) (B3) (B1) (B3)
                 (A) (B2) (A) (A) (B2) (B1) (B3) (B2) (B3) (B3)
                 (B1) (B1) (B3) (A) (B3) (A) (B2) (B1) (A) (B2)
                 (A) (B2) (B1) (B3) (B3) (B1) (B3) (B2) (A) (B1)
                 (B2) (A) (B2) (B3) (B1) (B1) (B2) (A) (B3) (B1)
                 (A) (B2) (B1)
 The electronic state of the initial guess is 1-A.
 Leave Link  401 at Sun Apr  3 21:20:38 2022, MaxMem=  1073741824 cpu:               1.6 elap:               0.2
 (Enter /home/saurabh/g16/l502.exe)
 Keep R1 ints in memory in symmetry-blocked form, NReq=764870419.
 FoFCou: FMM=F IPFlag=           0 FMFlag=           0 FMFlg1=           0
         NFxFlg=           0 DoJE=F BraDBF=F KetDBF=F FulRan=T
         wScrn=  0.000000 ICntrl=       600 IOpCl=  0 I1Cent=           0 NGrid=           0
         NMat0=    1 NMatS0=  34980 NMatT0=    0 NMatD0=    1 NMtDS0=    0 NMtDT0=    0
 Petite list used in FoFCou.
 Closed shell SCF:
 Using DIIS extrapolation, IDIIS=  1040.
 NGot=  1073741824 LenX=   920505656 LenY=   920415215
 Requested convergence on RMS density matrix=1.00D-08 within1000 cycles.
 Requested convergence on MAX density matrix=1.00D-06.
 Requested convergence on             energy=1.00D-06.
 No special actions if energy rises.

 Cycle   1  Pass 1  IDiag  1:
 E= -232.333276188016    
 DIIS: error= 9.70D-04 at cycle   1 NSaved=   1.
 NSaved= 1 IEnMin= 1 EnMin= -232.333276188016     IErMin= 1 ErrMin= 9.70D-04
 ErrMax= 9.70D-04  0.00D+00 EMaxC= 1.00D-01 BMatC= 1.26D-04 BMatP= 1.26D-04
 IDIUse=3 WtCom= 9.90D-01 WtEn= 9.70D-03
 Coeff-Com:  0.100D+01
 Coeff-En:   0.100D+01
 Coeff:      0.100D+01
 Gap=     0.247 Goal=   None    Shift=    0.000
 RMSDP=5.27D-05 MaxDP=9.70D-04              OVMax= 3.09D-03

 Cycle   2  Pass 1  IDiag  1:
 E= -232.333343808115     Delta-E=       -0.000067620099 Rises=F Damp=F
 DIIS: error= 5.74D-04 at cycle   2 NSaved=   2.
 NSaved= 2 IEnMin= 2 EnMin= -232.333343808115     IErMin= 2 ErrMin= 5.74D-04
 ErrMax= 5.74D-04  0.00D+00 EMaxC= 1.00D-01 BMatC= 2.56D-05 BMatP= 1.26D-04
 IDIUse=3 WtCom= 9.94D-01 WtEn= 5.74D-03
 Coeff-Com:  0.246D+00 0.754D+00
 Coeff-En:   0.000D+00 0.100D+01
 Coeff:      0.244D+00 0.756D+00
 Gap=     0.246 Goal=   None    Shift=    0.000
 RMSDP=1.84D-05 MaxDP=3.47D-04 DE=-6.76D-05 OVMax= 1.64D-03

 Cycle   3  Pass 1  IDiag  1:
 E= -232.333357117186     Delta-E=       -0.000013309072 Rises=F Damp=F
 DIIS: error= 4.12D-04 at cycle   3 NSaved=   3.
 NSaved= 3 IEnMin= 3 EnMin= -232.333357117186     IErMin= 3 ErrMin= 4.12D-04
 ErrMax= 4.12D-04  0.00D+00 EMaxC= 1.00D-01 BMatC= 1.07D-05 BMatP= 2.56D-05
 IDIUse=3 WtCom= 9.96D-01 WtEn= 4.12D-03
 Coeff-Com:  0.172D-02 0.392D+00 0.606D+00
 Coeff-En:   0.000D+00 0.323D+00 0.677D+00
 Coeff:      0.171D-02 0.392D+00 0.606D+00
 Gap=     0.246 Goal=   None    Shift=    0.000
 RMSDP=8.32D-06 MaxDP=1.63D-04 DE=-1.33D-05 OVMax= 7.33D-04

 Cycle   4  Pass 1  IDiag  1:
 E= -232.333368364724     Delta-E=       -0.000011247537 Rises=F Damp=F
 DIIS: error= 2.18D-05 at cycle   4 NSaved=   4.
 NSaved= 4 IEnMin= 4 EnMin= -232.333368364724     IErMin= 4 ErrMin= 2.18D-05
 ErrMax= 2.18D-05  0.00D+00 EMaxC= 1.00D-01 BMatC= 2.71D-08 BMatP= 1.07D-05
 IDIUse=1 WtCom= 1.00D+00 WtEn= 0.00D+00
 Coeff-Com: -0.192D-02 0.253D-01 0.809D-01 0.896D+00
 Coeff:     -0.192D-02 0.253D-01 0.809D-01 0.896D+00
 Gap=     0.246 Goal=   None    Shift=    0.000
 RMSDP=4.61D-07 MaxDP=8.83D-06 DE=-1.12D-05 OVMax= 3.56D-05

 Cycle   5  Pass 1  IDiag  1:
 E= -232.333368392526     Delta-E=       -0.000000027802 Rises=F Damp=F
 DIIS: error= 2.58D-06 at cycle   5 NSaved=   5.
 NSaved= 5 IEnMin= 5 EnMin= -232.333368392526     IErMin= 5 ErrMin= 2.58D-06
 ErrMax= 2.58D-06  0.00D+00 EMaxC= 1.00D-01 BMatC= 7.07D-10 BMatP= 2.71D-08
 IDIUse=1 WtCom= 1.00D+00 WtEn= 0.00D+00
 Coeff-Com: -0.527D-03 0.191D-02 0.155D-01 0.256D+00 0.728D+00
 Coeff:     -0.527D-03 0.191D-02 0.155D-01 0.256D+00 0.728D+00
 Gap=     0.246 Goal=   None    Shift=    0.000
 RMSDP=7.36D-08 MaxDP=1.45D-06 DE=-2.78D-08 OVMax= 5.29D-06

 Cycle   6  Pass 1  IDiag  1:
 E= -232.333368393168     Delta-E=       -0.000000000642 Rises=F Damp=F
 DIIS: error= 2.08D-07 at cycle   6 NSaved=   6.
 NSaved= 6 IEnMin= 6 EnMin= -232.333368393168     IErMin= 6 ErrMin= 2.08D-07
 ErrMax= 2.08D-07  0.00D+00 EMaxC= 1.00D-01 BMatC= 5.18D-12 BMatP= 7.07D-10
 IDIUse=1 WtCom= 1.00D+00 WtEn= 0.00D+00
 Coeff-Com: -0.152D-04-0.510D-03-0.946D-03 0.269D-02 0.675D-01 0.931D+00
 Coeff:     -0.152D-04-0.510D-03-0.946D-03 0.269D-02 0.675D-01 0.931D+00
 Gap=     0.246 Goal=   None    Shift=    0.000
 RMSDP=7.76D-09 MaxDP=1.79D-07 DE=-6.42D-10 OVMax= 5.26D-07

 SCF Done:  E(RB3LYP) =  -232.333368393     A.U. after    6 cycles
            NFock=  6  Conv=0.78D-08     -V/T= 2.0069
 KE= 2.307435582542D+02 PE=-9.462683020470D+02 EE= 2.791147444621D+02
 Leave Link  502 at Sun Apr  3 21:20:45 2022, MaxMem=  1073741824 cpu:              54.2 elap:               7.3
 (Enter /home/saurabh/g16/l701.exe)
 ... and contract with generalized density number  0.
 Compute integral first derivatives.
 Leave Link  701 at Sun Apr  3 21:20:45 2022, MaxMem=  1073741824 cpu:               1.3 elap:               0.2
 (Enter /home/saurabh/g16/l702.exe)
 L702 exits ... SP integral derivatives will be done elsewhere.
 Leave Link  702 at Sun Apr  3 21:20:46 2022, MaxMem=  1073741824 cpu:               0.2 elap:               0.0
 (Enter /home/saurabh/g16/l703.exe)
 Integral derivatives from FoFJK, PRISM(SPDF).
 Compute integral first derivatives, UseDBF=F ICtDFT=           0.
 Calling FoFJK, ICntrl=      2127 FMM=F ISym2X=1 I1Cent= 0 IOpClX= 0 NMat=1 NMatS=1 NMatT=0.
 FoFJK:  IHMeth= 1 ICntrl=    2127 DoSepK=F KAlg= 0 I1Cent=           0 FoldK=F
 IRaf=         0 NMat=       1 IRICut=       1 DoRegI=T DoRafI=F ISym2E= 1 IDoP0=0 IntGTp=1.
 FoFCou: FMM=F IPFlag=           0 FMFlag=      100000 FMFlg1=         800
         NFxFlg=           0 DoJE=F BraDBF=F KetDBF=F FulRan=T
         wScrn=  0.000000 ICntrl=      2127 IOpCl=  0 I1Cent=           0 NGrid=           0
         NMat0=    1 NMatS0=      1 NMatT0=    0 NMatD0=    1 NMtDS0=    0 NMtDT0=    0
 Petite list used in FoFCou.
 Leave Link  703 at Sun Apr  3 21:20:49 2022, MaxMem=  1073741824 cpu:              27.5 elap:               3.5
 (Enter /home/saurabh/g16/l716.exe)
 Dipole        =-1.77635684D-15 6.28212044D-17-6.66133815D-15
 ***** Axes restored to original set *****
 -------------------------------------------------------------------
 Center     Atomic                   Forces (Hartrees/Bohr)
 Number     Number              X              Y              Z
 -------------------------------------------------------------------
      1        6          -0.000008799   -0.000153804   -0.000061791
      2        6          -0.000139276   -0.000052051   -0.000073576
      3        6          -0.000130652    0.000101688   -0.000011877
[...]
   A13        2.09440   0.00000   0.00000   0.00000   0.00000   2.09440
   A14        2.09439  -0.00000   0.00000  -0.00000  -0.00000   2.09439
   A15        2.09439  -0.00000   0.00000  -0.00000  -0.00000   2.09439
   A16        2.09439  -0.00000   0.00000  -0.00000  -0.00000   2.09439
   A17        2.09440  -0.00000   0.00000  -0.00000  -0.00000   2.09440
   A18        2.09439   0.00000   0.00000   0.00000   0.00000   2.09439
    D1       -0.00000   0.00000   0.00000   0.00000   0.00000   0.00000
    D2        3.14159   0.00000   0.00000   0.00000   0.00000   3.14159
    D3        3.14159   0.00000   0.00000   0.00000   0.00000   3.14159
    D4       -0.00000   0.00000   0.00000   0.00000   0.00000   0.00000
    D5        0.00000  -0.00000   0.00000  -0.00000  -0.00000   0.00000
    D6       -3.14159  -0.00000   0.00000  -0.00000  -0.00000  -3.14159
    D7       -3.14159  -0.00000   0.00000  -0.00000  -0.00000   3.14159
    D8        0.00000  -0.00000   0.00000  -0.00000  -0.00000   0.00000
    D9       -0.00000   0.00000   0.00000   0.00000   0.00000   0.00000
   D10        3.14159   0.00000   0.00000   0.00000   0.00000   3.14159
   D11        3.14159   0.00000   0.00000   0.00000   0.00000   3.14159
   D12       -0.00000   0.00000   0.00000   0.00000   0.00000   0.00000
   D13        0.00000  -0.00000   0.00000  -0.00000  -0.00000   0.00000
   D14       -3.14159  -0.00000   0.00000  -0.00000  -0.00000   3.14159
   D15       -3.14159  -0.00000   0.00000  -0.00000  -0.00000   3.14159
   D16        0.00000  -0.00000   0.00000  -0.00000  -0.00000   0.00000
   D17       -0.00000   0.00000   0.00000   0.00000   0.00000   0.00000
   D18        3.14159   0.00000   0.00000   0.00000   0.00000   3.14159
   D19        3.14159   0.00000   0.00000   0.00000   0.00000   3.14159
   D20       -0.00000   0.00000   0.00000   0.00000   0.00000   0.00000
   D21       -0.00000   0.00000   0.00000   0.00000   0.00000   0.00000
   D22        3.14159   0.00000   0.00000   0.00000   0.00000   3.14159
   D23        3.14159   0.00000   0.00000   0.00000   0.00000   3.14159
   D24       -0.00000   0.00000   0.00000   0.00000   0.00000   0.00000
         Item               Value     Threshold  Converged?
 Maximum Force            0.000169     0.000450     YES
 RMS     Force            0.000056     0.000300     YES
 Maximum Displacement     0.000307     0.001800     YES
 RMS     Displacement     0.000156     0.001200     YES
 Predicted change in Energy=-1.682124D-07
 Optimization completed.
    -- Stationary point found.
                           ----------------------------
                           !   Optimized Parameters   !
                           ! (Angstroms and Degrees)  !
 --------------------------                            --------------------------
 ! Name  Definition              Value          Derivative Info.                !
 --------------------------------------------------------------------------------
 ! R1    R(1,2)                  1.3906         -DE/DX =    0.0002              !
 ! R2    R(1,6)                  1.3906         -DE/DX =    0.0002              !
 ! R3    R(1,11)                 1.0821         -DE/DX =    0.0                 !
 ! R4    R(2,3)                  1.3906         -DE/DX =    0.0002              !
 ! R5    R(2,9)                  1.0821         -DE/DX =    0.0                 !
 ! R6    R(3,4)                  1.3906         -DE/DX =    0.0002              !
 ! R7    R(3,8)                  1.0821         -DE/DX =    0.0                 !
 ! R8    R(4,5)                  1.3906         -DE/DX =    0.0002              !
 ! R9    R(4,10)                 1.0821         -DE/DX =    0.0                 !
 ! R10   R(5,6)                  1.3906         -DE/DX =    0.0002              !
 ! R11   R(5,7)                  1.0821         -DE/DX =    0.0                 !
 ! R12   R(6,12)                 1.0821         -DE/DX =    0.0                 !
 ! A1    A(2,1,6)              119.9999         -DE/DX =    0.0                 !
 ! A2    A(2,1,11)             119.9999         -DE/DX =    0.0                 !
 ! A3    A(6,1,11)             120.0002         -DE/DX =    0.0                 !
 ! A4    A(1,2,3)              120.0002         -DE/DX =    0.0                 !
 ! A5    A(1,2,9)              119.9999         -DE/DX =    0.0                 !
 ! A6    A(3,2,9)              119.9999         -DE/DX =    0.0                 !
 ! A7    A(2,3,4)              119.9999         -DE/DX =    0.0                 !
 ! A8    A(2,3,8)              119.9999         -DE/DX =    0.0                 !
 ! A9    A(4,3,8)              120.0002         -DE/DX =    0.0                 !
 ! A10   A(3,4,5)              119.9999         -DE/DX =    0.0                 !
 ! A11   A(3,4,10)             120.0002         -DE/DX =    0.0                 !
 ! A12   A(5,4,10)             119.9999         -DE/DX =    0.0                 !
 ! A13   A(4,5,6)              120.0002         -DE/DX =    0.0                 !
 ! A14   A(4,5,7)              119.9999         -DE/DX =    0.0                 !
 ! A15   A(6,5,7)              119.9999         -DE/DX =    0.0                 !
 ! A16   A(1,6,5)              119.9999         -DE/DX =    0.0                 !
 ! A17   A(1,6,12)             120.0002         -DE/DX =    0.0                 !
 ! A18   A(5,6,12)             119.9999         -DE/DX =    0.0                 !
 ! D1    D(6,1,2,3)              0.0            -DE/DX =    0.0                 !
 ! D2    D(6,1,2,9)            180.0            -DE/DX =    0.0                 !
 ! D3    D(11,1,2,3)           180.0            -DE/DX =    0.0                 !
 ! D4    D(11,1,2,9)             0.0            -DE/DX =    0.0                 !
 ! D5    D(2,1,6,5)              0.0            -DE/DX =    0.0                 !
 ! D6    D(2,1,6,12)          -180.0            -DE/DX =    0.0                 !
 ! D7    D(11,1,6,5)           180.0            -DE/DX =    0.0                 !
 ! D8    D(11,1,6,12)            0.0            -DE/DX =    0.0                 !
 ! D9    D(1,2,3,4)              0.0            -DE/DX =    0.0                 !
 ! D10   D(1,2,3,8)            180.0            -DE/DX =    0.0                 !
 ! D11   D(9,2,3,4)            180.0            -DE/DX =    0.0                 !
 ! D12   D(9,2,3,8)              0.0            -DE/DX =    0.0                 !
 ! D13   D(2,3,4,5)              0.0            -DE/DX =    0.0                 !
 ! D14   D(2,3,4,10)           180.0            -DE/DX =    0.0                 !
 ! D15   D(8,3,4,5)            180.0            -DE/DX =    0.0                 !
 ! D16   D(8,3,4,10)             0.0            -DE/DX =    0.0                 !
 ! D17   D(3,4,5,6)              0.0            -DE/DX =    0.0                 !
 ! D18   D(3,4,5,7)            180.0            -DE/DX =    0.0                 !
 ! D19   D(10,4,5,6)           180.0            -DE/DX =    0.0                 !
 ! D20   D(10,4,5,7)             0.0            -DE/DX =    0.0                 !
 ! D21   D(4,5,6,1)              0.0            -DE/DX =    0.0                 !
 ! D22   D(4,5,6,12)           180.0            -DE/DX =    0.0                 !
 ! D23   D(7,5,6,1)            180.0            -DE/DX =    0.0                 !
 ! D24   D(7,5,6,12)             0.0            -DE/DX =    0.0                 !
 --------------------------------------------------------------------------------
 GradGradGradGradGradGradGradGradGradGradGradGradGradGradGradGradGradGrad

 Leave Link  103 at Sun Apr  3 21:22:30 2022, MaxMem=  1073741824 cpu:               0.1 elap:               0.0
 (Enter /home/saurabh/g16/l9999.exe)
 Dipole is zero, so no output in dipole orientation.

 ----------------------------------------------------------------------

 Electric dipole moment (input orientation):
 (Debye = 10**-18 statcoulomb cm , SI units = C m)
                  (au)            (Debye)         (10**-30 SI)
   Tot        0.000000D+00      0.000000D+00      0.000000D+00
   x          0.000000D+00      0.000000D+00      0.000000D+00
   y          0.000000D+00      0.000000D+00      0.000000D+00
   z          0.000000D+00      0.000000D+00      0.000000D+00

 Dipole polarizability, Alpha (input orientation).
 (esu units = cm**3 , SI units = C**2 m**2 J**-1)
 Alpha(0;0):
               (au)            (10**-24 esu)      (10**-40 SI)
   iso        0.627755D+02      0.930236D+01      0.103503D+02
   aniso      0.434572D+02      0.643970D+01      0.716513D+01
   xx         0.722453D+02      0.107057D+02      0.119116D+02
   yx        -0.492846D+01     -0.730323D+00     -0.812594D+00
   yy         0.724181D+02      0.107313D+02      0.119401D+02
   zx         0.129821D+02      0.192375D+01      0.214047D+01
   zy         0.127558D+02      0.189022D+01      0.210315D+01
   zz         0.436630D+02      0.647018D+01      0.719905D+01

 ----------------------------------------------------------------------
 Unable to Open any file for archive entry.
 1\1\GINC-HEL02\Freq\RB3LYP\CC-pVTZ\C6H6\SAURABH\03-Apr-2022\0\\#P Geom
 =AllCheck Guess=TCheck SCRF=Check GenChk RB3LYP/CC-pVTZ Freq\\Mol_05\\
 0,1\C,-0.1023455057,0.1444166565,-0.6338687299\C,-1.1966176244,0.99672
 06153,-0.7330986189\C,-1.1234326966,2.2853352478,-0.2155888373\C,0.044
 0238907,2.7216457436,0.4011506227\C,1.1382960196,1.8693417949,0.500380
 4852\C,1.065111102,0.5807271724,-0.017129323\H,2.0467408469,2.20885250
 81,0.9802901874\H,-1.9749303803,2.9485420641,-0.29280583\H,-2.10506245
 17,0.657209902,-1.2130083212\H,0.1009765891,3.7243653249,0.8038463912\
 H,-0.1592982441,-0.8583029641,-1.0365643951\H,1.9166088257,-0.08247960
 47,0.0600875664\\Version=EM64L-G16RevC.01\State=1-A\HF=-232.3333684\RM
 SD=1.462e-09\RMSF=6.776e-05\ZeroPoint=0.1003912\Thermal=0.1047696\ETot
 =-232.2285988\HTot=-232.2276546\GTot=-232.2591151\Dipole=0.,0.,0.\Dipo
 leDeriv=-0.0729194,0.0016705,0.0220325,0.0016814,0.0803524,0.079866,0.
 0220367,0.0798618,-0.089465,0.0525803,0.0400638,0.0851043,0.0400639,-0
 .0555942,0.0430873,0.0851043,0.0430873,-0.0790683,0.037284,-0.0932576,
 0.0285736,-0.0932685,-0.0060026,0.0103932,0.0285695,0.0103974,-0.11331
 35,-0.0729194,0.0016705,0.0220325,0.0016814,0.0803523,0.079866,0.02203
 67,0.0798618,-0.089465,0.0525803,0.0400639,0.0851043,0.0400639,-0.0555
 942,0.0430872,0.0851043,0.0430872,-0.0790683,0.0372841,-0.0932577,0.02
 85736,-0.0932685,-0.0060026,0.0103932,0.0285695,0.0103975,-0.1133135,-
 0.0518056,-0.039099,-0.084435,-0.039099,0.0545369,-0.0431123,-0.084435
 ,-0.0431123,0.079308,-0.0367551,0.0919899,-0.0288524,0.0919928,0.00581
 33,-0.0109598,-0.0288513,-0.0109609,0.1129953,-0.0518056,-0.039099,-0.
 084435,-0.039099,0.0545369,-0.0431123,-0.084435,-0.0431123,0.079308,0.
 0716157,-0.0013675,-0.022423,-0.0013704,-0.0791057,-0.0792743,-0.02242
 41,-0.0792732,0.0895434,0.0716157,-0.0013675,-0.022423,-0.0013704,-0.0
 791057,-0.0792743,-0.0224241,-0.0792732,0.0895435,-0.0367551,0.0919899
 ,-0.0288524,0.0919928,0.0058133,-0.0109598,-0.0288513,-0.010961,0.1129
 953\Polar=72.245327,-4.9284648,72.4181005,12.9821413,12.7558403,43.662
 9601\Quadrupole=1.2029517,1.2249728,-2.4279245,-0.6261152,1.6491307,1.
 6204109\PG=D02 [C2(H1C1.C1H1),X(C4H4)]\NImag=0\\0.59778808,-0.05514678
 ,0.66850299,0.15718188,0.18055553,0.26608596,-0.24651926,0.13251893,-0
 .02000542,0.65407515,0.07538872,-0.19804361,-0.02155896,-0.03795850,0.
 60753228,-0.04169533,0.00051546,-0.08044800,0.18546498,0.16405755,0.27
 072786,0.03642749,0.01972629,0.01827742,-0.12316869,0.02625380,-0.0126
 8861,0.64724350,0.06158397,-0.03966252,0.00550743,-0.03087642,-0.29470
 064,-0.09931505,-0.09775210,0.62974989,0.03416900,-0.01066586,0.017659
 96,-0.03437852,-0.07724064,-0.10714155,0.16011545,0.14938047,0.2553836
 4,-0.06232354,0.01037399,-0.01708327,0.02573227,-0.07350876,-0.0212504
 2,-0.26365207,-0.01670841,-0.08327680,0.59778807,0.01037399,-0.0031489
 9,0.00581878,-0.03165755,-0.00500513,-0.01736001,-0.07383335,-0.142563
 36,-0.05814933,-0.05514680,0.66850296,-0.01708327,0.00581878,-0.012309
 11,-0.00536130,-0.03353081,-0.00630018,-0.10496471,-0.03607695,-0.1187
 9692,0.15718188,0.18055556,0.26608600,0.02573226,-0.03165755,-0.005361
 30,-0.01359593,0.02528081,0.00739925,-0.05134950,-0.00710368,-0.025822
 69,-0.24651926,0.13251893,-0.02000542,0.65407516,-0.07350876,-0.005005
 13,-0.03353081,0.02528081,-0.05592272,-0.00846197,0.03474753,0.0553958
 4,0.03122977,0.07538872,-0.19804361,-0.02155896,-0.03795851,0.60753227
 ,-0.02125042,-0.01736001,-0.00630018,0.00739925,-0.00846197,-0.0082589
 6,-0.00993357,0.01505898,0.01038062,-0.04169533,0.00051546,-0.08044800
 ,0.18546497,0.16405757,0.27072787,-0.26365208,-0.07383336,-0.10496470,
 -0.05134951,0.03474753,-0.00993357,-0.01954154,-0.02648222,-0.01454556
 ,0.03642749,0.01972629,0.01827742,-0.12316869,0.02625380,-0.01268861,0
 .64724353,-0.01670841,-0.14256336,-0.03607695,-0.00710368,0.05539584,0
 .01505898,-0.02648222,-0.03667280,-0.02114957,0.06158397,-0.03966252,0
 .00550743,-0.03087642,-0.29470063,-0.09931506,-0.09775209,0.62974988,-
 0.08327679,-0.05814933,-0.11879690,-0.02582269,0.03122977,0.01038062,-
 0.01454556,-0.02114957,-0.02156731,0.03416900,-0.01066586,0.01765996,-
 0.03437852,-0.07724064,-0.10714155,0.16011542,0.14938049,0.25538362,0.
 00255556,0.00058269,-0.00161028,0.00019407,0.00059758,0.00059648,-0.00
 148792,0.00487564,-0.00154279,-0.01659037,-0.01026539,-0.01153707,-0.2
 5032269,-0.06951665,-0.10881661,0.00213923,0.00116522,0.00003953,0.263
 88302,0.00139222,-0.00428941,-0.00386041,0.00059758,-0.00104256,0.0001
 2457,0.00406611,-0.00112096,-0.00162433,0.01730057,0.01020455,0.009350
 95,-0.06951666,-0.08438384,-0.04484885,-0.02640074,-0.00447189,-0.0131
 0672,0.07435006,0.08424155,-0.00130294,-0.00417321,0.00520781,0.000596
 48,0.00012457,-0.00048472,-0.00185013,-0.00131154,0.00608284,-0.001071
 45,-0.00130020,0.00227422,-0.10881660,-0.04484885,-0.09607566,-0.01042
 609,-0.00245557,-0.00177894,0.12024827,0.05094359,0.09153017,0.0023855
 3,-0.00008721,-0.00193041,0.00486328,-0.00266907,-0.00036328,-0.226901
 64,0.13466902,-0.02224317,-0.01646527,0.01837606,-0.00061497,-0.002219
 20,-0.00230466,-0.00455141,0.00001970,-0.00092045,-0.00004717,-0.00087
 395,0.00092183,-0.00007700,0.23852078,-0.00089677,-0.00373955,-0.00453
 618,0.02489712,-0.01329262,0.00336565,0.13466968,-0.16029514,0.0052291
 7,-0.00919043,0.00980503,-0.00103670,-0.00149529,0.00124711,-0.0028741
 4,-0.00092048,-0.00047838,-0.00024774,-0.00050109,0.00031749,-0.000160
 82,-0.14673638,0.16643434,-0.00223777,-0.00422338,0.00482780,0.0101024
 3,-0.00728559,0.00431833,-0.02224292,0.00522891,-0.04362066,-0.0110807
 9,0.00961466,0.00255108,-0.00424412,-0.00318687,0.00444587,-0.00004718
 ,-0.00024774,-0.00087492,-0.00061723,0.00038898,0.00014031,0.02650837,
 -0.00327953,0.03473220,-0.01659037,-0.01026539,-0.01153707,-0.25032269
 ,-0.06951666,-0.10881661,0.00213923,0.00116522,0.00003953,0.00255556,0
 .00058269,-0.00161028,0.00019407,0.00059758,0.00059648,-0.00148792,0.0
 0487564,-0.00154279,-0.00017826,-0.00021797,0.00033384,0.00024288,-0.0
 0094079,0.00130576,0.26388302,0.01730057,0.01020455,0.00935095,-0.0695
 1666,-0.08438384,-0.04484885,-0.02640074,-0.00447189,-0.01310672,0.001
 39222,-0.00428941,-0.00386041,0.00059758,-0.00104256,0.00012457,0.0040
 6611,-0.00112096,-0.00162433,-0.00021797,-0.00003603,0.00037911,-0.000
 12978,0.00055083,0.00170074,0.07435006,0.08424155,-0.00107145,-0.00130
 020,0.00227422,-0.10881661,-0.04484885,-0.09607565,-0.01042609,-0.0024
 5557,-0.00177894,-0.00130294,-0.00417320,0.00520781,0.00059648,0.00012
 457,-0.00048472,-0.00185013,-0.00131154,0.00608284,0.00033384,0.000379
 11,-0.00098351,0.00161366,0.00138737,-0.00291069,0.12024827,0.05094358
 ,0.09153017,-0.00123523,0.00016063,-0.00012162,-0.00344243,-0.00044149
 ,-0.00431668,0.00315239,-0.02609082,-0.00991713,-0.05810317,-0.0107483
 1,-0.01223025,0.00575293,0.02413070,0.01015520,-0.00288095,0.00364025,
 -0.00255016,0.00045066,-0.00111979,0.00131808,0.00047942,-0.00005747,0
 .00173227,-0.00001224,-0.00124344,-0.00056611,0.05575129,0.00016066,0.
 00050498,0.00054333,-0.00125086,0.00220563,-0.00241579,0.00147567,-0.0
 0556728,-0.00275166,-0.01074896,-0.29256495,-0.10117605,-0.00343549,-0
 .01398974,-0.00784640,0.00444981,0.00038724,-0.00090357,-0.00030877,0.
 00038801,0.00156976,-0.00086834,0.00029458,0.00131785,0.00017948,-0.00
 035774,-0.00015422,0.01071750,0.30965179,-0.00012161,0.00054332,-0.000
 60335,-0.00462397,-0.00210305,0.00471058,0.00054870,-0.01340301,-0.001
 69426,-0.01223050,-0.10117580,-0.08014932,-0.00031051,0.00280485,0.004
 12581,-0.00224280,-0.00121637,0.00596749,0.00162599,0.00125640,-0.0029
 5565,0.00142442,0.00163116,-0.00289064,-0.00002589,-0.00070402,-0.0000
 4617,0.01566699,0.11193231,0.07428425,-0.05810317,-0.01074832,-0.01223
 026,0.00575293,0.02413070,0.01015520,-0.00288095,0.00364025,-0.0025501
 6,-0.00123524,0.00016063,-0.00012162,-0.00344243,-0.00044149,-0.004316
 68,0.00315239,-0.02609082,-0.00991713,-0.00001224,-0.00124344,-0.00056
 611,0.00010740,0.00122182,0.00041609,0.00045066,-0.00111979,0.00131808
 ,-0.00002005,-0.00016958,0.00041333,0.05575129,-0.01074897,-0.29256497
 ,-0.10117603,-0.00343550,-0.01398974,-0.00784639,0.00444981,0.00038724
 ,-0.00090357,0.00016066,0.00050498,0.00054333,-0.00125086,0.00220563,-
 0.00241579,0.00147567,-0.00556728,-0.00275166,0.00017948,-0.00035774,-
 0.00015422,-0.00020110,-0.00074518,-0.00044834,-0.00030877,0.00038801,
 0.00156976,-0.00016958,-0.00020734,0.00033276,0.01071751,0.30965181,-0
 .01223050,-0.10117577,-0.08014930,-0.00031051,0.00280485,0.00412581,-0
 .00224281,-0.00121637,0.00596749,-0.00012161,0.00054332,-0.00060335,-0
 .00462397,-0.00210305,0.00471058,0.00054870,-0.01340301,-0.00169426,-0
 .00002589,-0.00070402,-0.00004617,-0.00012413,0.00010146,0.00022162,0.
 00162599,0.00125640,-0.00295565,0.00041333,0.00033276,-0.00097035,0.01
 566699,0.11193229,0.07428422,-0.01646527,0.01837606,-0.00061497,-0.002
 21920,-0.00230466,-0.00455141,0.00001970,-0.00092045,-0.00004717,0.002
 38553,-0.00008721,-0.00193041,0.00486328,-0.00266907,-0.00036328,-0.22
 690165,0.13466902,-0.02224315,0.00024288,-0.00012978,0.00161366,-0.000
 15894,-0.00004992,0.00040509,-0.00087395,0.00092183,-0.00007700,0.0001
 0740,-0.00020110,-0.00012413,0.00047942,-0.00086834,0.00142442,0.23852
 080,-0.00919043,0.00980503,-0.00103670,-0.00149529,0.00124711,-0.00287
 414,-0.00092048,-0.00047839,-0.00024774,-0.00089677,-0.00373955,-0.004
 53618,0.02489712,-0.01329262,0.00336565,0.13466967,-0.16029513,0.00522
 915,-0.00094079,0.00055083,0.00138737,-0.00004992,-0.00009850,0.000420
 31,-0.00050109,0.00031749,-0.00016082,0.00122182,-0.00074518,0.0001014
 6,-0.00005747,0.00029458,0.00163116,-0.14673638,0.16643433,-0.01108079
 ,0.00961466,0.00255108,-0.00424412,-0.00318687,0.00444587,-0.00004718,
 -0.00024773,-0.00087492,-0.00223777,-0.00422338,0.00482780,0.01010243,
 -0.00728559,0.00431833,-0.02224290,0.00522890,-0.04362065,0.00130576,0
 .00170074,-0.00291069,0.00040509,0.00042031,-0.00094030,-0.00061723,0.
 00038898,0.00014031,0.00041609,-0.00044834,0.00022162,0.00173227,0.001
 31785,-0.00289064,0.02650835,-0.00327951,0.03473219\\0.00000887,0.0001
 5376,0.00006180,0.00013931,0.00005206,0.00007359,0.00013066,-0.0001016
 1,0.00001191,-0.00000887,-0.00015376,-0.00006180,-0.00013931,-0.000052
 06,-0.00007359,-0.00013067,0.00010161,-0.00001191,-0.00000267,-0.00000
 100,-0.00000141,0.00000256,-0.00000199,0.00000023,0.00000267,0.0000010
 0,0.00000141,-0.00000017,-0.00000301,-0.00000121,0.00000017,0.00000301
 ,0.00000121,-0.00000255,0.00000199,-0.00000023\\\@
 The archive entry for this job was punched.


 ROSE IS A RED
 TY COBB IS BLUE
 'CAUSE PETE JUST HIT
 NO. 4592.
 Job cpu time:       0 days  0 hours 13 minutes 18.6 seconds.
 Elapsed time:       0 days  0 hours  1 minutes 40.5 seconds.
 File lengths (MBytes):  RWF=     44 Int=      0 D2E=      0 Chk=      7 Scr=      1
 Normal termination of Gaussian 16 at Sun Apr  3 21:22:30 2022.
