 Entering Gaussian System, Link 0=g16
 Input=Mol_04.com
 Output=Mol_04.log
 Initial command:
 /home/saurabh/g16/l1.exe "/scratch/saurabh/PBS_8053888.helios/Gau-42334.inp" -scrdir="/scratch/saurabh/PBS_8053888.helios/"
 Entering Link 1 = /home/saurabh/g16/l1.exe PID=     42335.
  
 Copyright (c) 1988-2019, Gaussian, Inc.  All Rights Reserved.
  
 This is part of the Gaussian(R) 16 program.  It is based on
 the Gaussian(R) 09 system (copyright 2009, Gaussian, Inc.),
 the Gaussian(R) 03 system (copyright 2003, Gaussian, Inc.),
 the Gaussian(R) 98 system (copyright 1998, Gaussian, Inc.),
 the Gaussian(R) 94 system (copyright 1995, Gaussian, Inc.),
 the Gaussian 92(TM) system (copyright 1992, Gaussian, Inc.),
 the Gaussian 90(TM) system (copyright 1990, Gaussian, Inc.),
 the Gaussian 88(TM) system (copyright 1988, Gaussian, Inc.),
 the Gaussian 86(TM) system (copyright 1986, Carnegie Mellon
 University), and the Gaussian 82(TM) system (copyright 1983,
 Carnegie Mellon University). Gaussian is a federally registered
 trademark of Gaussian, Inc.
  
 This software contains proprietary and confidential information,
 including trade secrets, belonging to Gaussian, Inc.
  
 This software is provided under written license and may be
 used, copied, transmitted, or stored only in accord with that
 written license.
  
 The following legend is applicable only to US Government
 contracts under FAR:
  
                    RESTRICTED RIGHTS LEGEND
  
 Use, reproduction and disclosure by the US Government is
 subject to restrictions as set forth in subparagraphs (a)
 and (c) of the Commercial Computer Software - Restricted
 Rights clause in FAR 52.227-19.
  
 Gaussian, Inc.
 340 Quinnipiac St., Bldg. 40, Wallingford CT 06492
  
  
 ---------------------------------------------------------------
 Warning -- This program may not be used in any manner that
 competes with the business of Gaussian, Inc. or will provide
 assistance to any competitor of Gaussian, Inc.  The licensee
 of this program is prohibited from giving any competitor of
 Gaussian, Inc. access to this program.  By using this program,
 the user acknowledges that Gaussian, Inc. is engaged in the
 business of creating and licensing software in the field of
 computational chemistry and represents and warrants to the
 licensee that it is not a competitor of Gaussian, Inc. and that
 it will not use this program in any manner prohibited above.
 ---------------------------------------------------------------
  

 Cite this work as:
 Gaussian 16, Revision C.01,
 M. J. Frisch, G. W. Trucks, H. B. Schlegel, G. E. Scuseria, 
 M. A. Robb, J. R. Cheeseman, G. Scalmani, V. Barone, 
 G. A. Petersson, H. Nakatsuji, X. Li, M. Caricato, A. V. Marenich, 
 J. Bloino, B. G. Janesko, R. Gomperts, B. Mennucci, H. P. Hratchian, 
 J. V. Ortiz, A. F. Izmaylov, J. L. Sonnenberg, D. Williams-Young, 
 F. Ding, F. Lipparini, F. Egidi, J. Goings, B. Peng, A. Petrone, 
 T. Henderson, D. Ranasinghe, V. G. Zakrzewski, J. Gao, N. Rega, 
 G. Zheng, W. Liang, M. Hada, M. Ehara, K. Toyota, R. Fukuda, 
 J. Hasegawa, M. Ishida, T. Nakajima, Y. Honda, O. Kitao, H. Nakai, 
 T. Vreven, K. Throssell, J. A. Montgomery, Jr., J. E. Peralta, 
 F. Ogliaro, M. J. Bearpark, J. J. Heyd, E. N. Brothers, K. N. Kudin, 
 V. N. Staroverov, T. A. Keith, R. Kobayashi, J. Normand, 
 K. Raghavachari, A. P. Rendell, J. C. Burant, S. S. Iyengar, 
 J. Tomasi, M. Cossi, J. M. Millam, M. Klene, C. Adamo, R. Cammi, 
 J. W. Ochterski, R. L. Martin, K. Morokuma, O. Farkas, 
 J. B. Foresman, and D. J. Fox, Gaussian, Inc., Wallingford CT, 2019.
 
 ******************************************
 Gaussian 16:  EM64L-G16RevC.01  3-Jul-2019
                 3-Apr-2022 
 ******************************************
 %mem=8gb
 %nproc=8
 Will use up to    8 processors via shared memory.
 %chk=Mol_04.chk
 ----------------------------------------------------------------------
 #p B3LYP/cc-PVTZ scf(verytight, maxcycles=1000) opt(calcfc, maxcyc=100
 0) freq(hpmodes) int(grid=ultrafine)
 ----------------------------------------------------------------------
 1/6=1000,10=4,18=20,19=15,26=4,38=1/1,3;
 2/9=110,12=2,17=6,18=5,40=1/2;
 3/5=16,6=1,11=2,25=1,30=1,71=2,74=-5,75=-5,140=1/1,2,3;
 4//1;
 5/5=2,7=1000,17=3,38=5/2;
 8/6=4,10=90,11=11/1;
 11/6=1,8=1,9=11,15=111,16=1/1,2,10;
 10/6=1,13=1/2;
 6/7=2,8=2,9=2,10=2,28=1/1;
 7/10=1,25=1/1,2,3,16;
 1/6=1000,10=4,18=20,19=15,26=4/3(2);
 2/9=110/2;
 99//99;
 2/9=110/2;
 3/5=16,6=1,11=2,25=1,30=1,71=1,74=-5,75=-5/1,2,3;
 4/5=5,16=3,69=1/1;
 5/5=2,7=1000,17=3,38=5/2;
 7//1,2,3,16;
 1/6=1000,18=20,19=15,26=4/3(-5);
 2/9=110/2;
 6/7=2,8=2,9=2,10=2,19=2,28=1/1;
 99/9=1/99;
 Leave Link    1 at Sun Apr  3 21:19:55 2022, MaxMem=  1073741824 cpu:               0.5 elap:               0.1
 (Enter /home/saurabh/g16/l101.exe)
 ------
 Mol_04
 ------
 Symbolic Z-matrix:
 Charge =  0 Multiplicity = 1
 C                    -0.0276    0.17643  -0.67925 
 C                    -1.21958   1.05564  -0.70716 
 C                    -1.17339   2.30905  -0.22674 
 C                     0.09527   2.88384   0.34807 
 C                     1.29881   1.99613   0.37623 
 C                     1.14132   0.60174  -0.17254 
 H                    -2.06866   2.92226  -0.24533 
 H                    -2.15023   0.6722   -1.11334 
 O                     1.07587   2.92118  -0.65956 
 H                     0.0884    3.88105   0.83459 
 H                     2.23852   2.29518   0.88486 
 H                     1.99149  -0.07249  -0.15027 
 H                    -0.1071   -0.83481  -1.06547 
 
 ITRead=  0  0  0  0  0  0  0  0  0  0  0  0  0
 MicOpt= -1 -1 -1 -1 -1 -1 -1 -1 -1 -1 -1 -1 -1
 NAtoms=     13 NQM=       13 NQMF=       0 NMMI=      0 NMMIF=      0
                NMic=       0 NMicF=      0.
                    Isotopes and Nuclear Properties:
 (Nuclear quadrupole moments (NQMom) in fm**2, nuclear magnetic moments (NMagM)
  in nuclear magnetons)

  Atom         1           2           3           4           5           6           7           8           9          10
 IAtWgt=          12          12          12          12          12          12           1           1          16           1
 AtmWgt=  12.0000000  12.0000000  12.0000000  12.0000000  12.0000000  12.0000000   1.0078250   1.0078250  15.9949146   1.0078250
 NucSpn=           0           0           0           0           0           0           1           1           0           1
 AtZEff=  -0.0000000  -0.0000000  -0.0000000  -0.0000000  -0.0000000  -0.0000000  -0.0000000  -0.0000000  -0.0000000  -0.0000000
 NQMom=    0.0000000   0.0000000   0.0000000   0.0000000   0.0000000   0.0000000   0.0000000   0.0000000   0.0000000   0.0000000
 NMagM=    0.0000000   0.0000000   0.0000000   0.0000000   0.0000000   0.0000000   2.7928460   2.7928460   0.0000000   2.7928460
 AtZNuc=   6.0000000   6.0000000   6.0000000   6.0000000   6.0000000   6.0000000   1.0000000   1.0000000   8.0000000   1.0000000

  Atom        11          12          13
 IAtWgt=           1           1           1
 AtmWgt=   1.0078250   1.0078250   1.0078250
 NucSpn=           1           1           1
 AtZEff=  -0.0000000  -0.0000000  -0.0000000
 NQMom=    0.0000000   0.0000000   0.0000000
 NMagM=    2.7928460   2.7928460   2.7928460
 AtZNuc=   1.0000000   1.0000000   1.0000000
 Leave Link  101 at Sun Apr  3 21:19:56 2022, MaxMem=  1073741824 cpu:               1.9 elap:               0.3
 (Enter /home/saurabh/g16/l103.exe)

 GradGradGradGradGradGradGradGradGradGradGradGradGradGradGradGradGradGrad
 Berny optimization.
 Initialization pass.
                           ----------------------------
                           !    Initial Parameters    !
                           ! (Angstroms and Degrees)  !
 --------------------------                            --------------------------
 ! Name  Definition              Value          Derivative Info.                !
 --------------------------------------------------------------------------------
 ! R1    R(1,2)                  1.4814         calculate D2E/DX2 analytically  !
 ! R2    R(1,6)                  1.3431         calculate D2E/DX2 analytically  !
 ! R3    R(1,13)                 1.0854         calculate D2E/DX2 analytically  !
 ! R4    R(2,3)                  1.3431         calculate D2E/DX2 analytically  !
 ! R5    R(2,8)                  1.0854         calculate D2E/DX2 analytically  !
 ! R6    R(3,4)                  1.5067         calculate D2E/DX2 analytically  !
 ! R7    R(3,7)                  1.0853         calculate D2E/DX2 analytically  !
 ! R8    R(4,5)                  1.4958         calculate D2E/DX2 analytically  !
 ! R9    R(4,9)                  1.4065         calculate D2E/DX2 analytically  !
 ! R10   R(4,10)                 1.1096         calculate D2E/DX2 analytically  !
 ! R11   R(5,6)                  1.5067         calculate D2E/DX2 analytically  !
 ! R12   R(5,9)                  1.4065         calculate D2E/DX2 analytically  !
 ! R13   R(5,11)                 1.1096         calculate D2E/DX2 analytically  !
 ! R14   R(6,12)                 1.0853         calculate D2E/DX2 analytically  !
 ! A1    A(2,1,6)              121.2942         calculate D2E/DX2 analytically  !
 ! A2    A(2,1,13)             119.1629         calculate D2E/DX2 analytically  !
 ! A3    A(6,1,13)             119.5386         calculate D2E/DX2 analytically  !
 ! A4    A(1,2,3)              121.2941         calculate D2E/DX2 analytically  !
 ! A5    A(1,2,8)              119.1629         calculate D2E/DX2 analytically  !
 ! A6    A(3,2,8)              119.5387         calculate D2E/DX2 analytically  !
 ! A7    A(2,3,4)              121.4269         calculate D2E/DX2 analytically  !
 ! A8    A(2,3,7)              119.523          calculate D2E/DX2 analytically  !
 ! A9    A(4,3,7)              119.049          calculate D2E/DX2 analytically  !
 ! A10   A(3,4,5)              117.2757         calculate D2E/DX2 analytically  !
 ! A11   A(3,4,9)              108.8957         calculate D2E/DX2 analytically  !
 ! A12   A(3,4,10)             120.3244         calculate D2E/DX2 analytically  !
 ! A13   A(5,4,10)             122.0125         calculate D2E/DX2 analytically  !
 ! A14   A(9,4,10)             107.1328         calculate D2E/DX2 analytically  !
 ! A15   A(4,5,6)              117.275          calculate D2E/DX2 analytically  !
 ! A16   A(4,5,11)             122.0137         calculate D2E/DX2 analytically  !
 ! A17   A(6,5,9)              108.8968         calculate D2E/DX2 analytically  !
 ! A18   A(6,5,11)             120.3239         calculate D2E/DX2 analytically  !
 ! A19   A(9,5,11)             107.1316         calculate D2E/DX2 analytically  !
 ! A20   A(1,6,5)              121.4272         calculate D2E/DX2 analytically  !
 ! A21   A(1,6,12)             119.5229         calculate D2E/DX2 analytically  !
 ! A22   A(5,6,12)             119.0488         calculate D2E/DX2 analytically  !
 ! D1    D(6,1,2,3)             -0.0005         calculate D2E/DX2 analytically  !
 ! D2    D(6,1,2,8)           -179.2398         calculate D2E/DX2 analytically  !
 ! D3    D(13,1,2,3)           179.2372         calculate D2E/DX2 analytically  !
 ! D4    D(13,1,2,8)            -0.0021         calculate D2E/DX2 analytically  !
 ! D5    D(2,1,6,5)             -0.6959         calculate D2E/DX2 analytically  !
 ! D6    D(2,1,6,12)           178.9089         calculate D2E/DX2 analytically  !
 ! D7    D(13,1,6,5)          -179.9308         calculate D2E/DX2 analytically  !
 ! D8    D(13,1,6,12)           -0.326          calculate D2E/DX2 analytically  !
 ! D9    D(1,2,3,4)              0.6956         calculate D2E/DX2 analytically  !
 ! D10   D(1,2,3,7)           -178.909          calculate D2E/DX2 analytically  !
 ! D11   D(8,2,3,4)            179.9322         calculate D2E/DX2 analytically  !
 ! D12   D(8,2,3,7)              0.3276         calculate D2E/DX2 analytically  !
 ! D13   D(2,3,4,5)             -0.6676         calculate D2E/DX2 analytically  !
 ! D14   D(2,3,4,9)             62.2135         calculate D2E/DX2 analytically  !
 ! D15   D(2,3,4,10)          -173.666          calculate D2E/DX2 analytically  !
 ! D16   D(7,3,4,5)            178.9388         calculate D2E/DX2 analytically  !
 ! D17   D(7,3,4,9)           -118.18           calculate D2E/DX2 analytically  !
 ! D18   D(7,3,4,10)             5.9405         calculate D2E/DX2 analytically  !
 ! D19   D(3,4,5,6)             -0.0018         calculate D2E/DX2 analytically  !
 ! D20   D(3,4,5,11)          -172.874          calculate D2E/DX2 analytically  !
 ! D21   D(10,4,5,6)           172.87           calculate D2E/DX2 analytically  !
 ! D22   D(10,4,5,11)           -0.0022         calculate D2E/DX2 analytically  !
 ! D23   D(4,5,6,1)              0.6702         calculate D2E/DX2 analytically  !
 ! D24   D(4,5,6,12)          -178.9364         calculate D2E/DX2 analytically  !
 ! D25   D(9,5,6,1)            -62.2114         calculate D2E/DX2 analytically  !
 ! D26   D(9,5,6,12)           118.1819         calculate D2E/DX2 analytically  !
 ! D27   D(11,5,6,1)           173.6691         calculate D2E/DX2 analytically  !
 ! D28   D(11,5,6,12)           -5.9376         calculate D2E/DX2 analytically  !
 --------------------------------------------------------------------------------
 Trust Radius=3.00D-01 FncErr=1.00D-07 GrdErr=1.00D-06 EigMax=2.50D+02 EigMin=1.00D-04
 Number of steps in this run=    100 maximum allowed number of steps=    100.
 GradGradGradGradGradGradGradGradGradGradGradGradGradGradGradGradGradGrad

 Leave Link  103 at Sun Apr  3 21:19:56 2022, MaxMem=  1073741824 cpu:               0.1 elap:               0.0
 (Enter /home/saurabh/g16/l202.exe)
                          Input orientation:                          
 ---------------------------------------------------------------------
 Center     Atomic      Atomic             Coordinates (Angstroms)
 Number     Number       Type             X           Y           Z
 ---------------------------------------------------------------------
      1          6           0       -0.027597    0.176432   -0.679252
      2          6           0       -1.219584    1.055636   -0.707163
      3          6           0       -1.173388    2.309052   -0.226735
      4          6           0        0.095274    2.883839    0.348068
      5          6           0        1.298811    1.996135    0.376227
      6          6           0        1.141316    0.601743   -0.172544
      7          1           0       -2.068661    2.922262   -0.245326
      8          1           0       -2.150232    0.672204   -1.113338
      9          8           0        1.075866    2.921179   -0.659563
     10          1           0        0.088398    3.881047    0.834594
     11          1           0        2.238516    2.295175    0.884862
     12          1           0        1.991494   -0.072487   -0.150265
     13          1           0       -0.107104   -0.834815   -1.065466
 ---------------------------------------------------------------------
                    Distance matrix (angstroms):
                    1          2          3          4          5
     1  C    0.000000
     2  C    1.481422   0.000000
     3  C    2.462859   1.343130   0.000000
     4  C    2.898368   2.486904   1.506746   0.000000
     5  C    2.486908   2.898376   2.563835   1.495765   0.000000
     6  C    1.343130   2.462861   2.876750   2.563826   1.506746
     7  H    3.448741   2.102027   1.085305   2.244150   3.547381
     8  H    2.222565   1.085405   2.102275   3.474095   3.983402
     9  O    2.958319   2.958312   2.370903   1.406511   1.406510
    10  H    4.003668   3.474303   2.278090   1.109585   2.286503
    11  H    3.474304   4.003680   3.588443   2.286516   1.109585
    12  H    2.102027   3.448741   3.961572   3.547372   2.244148
    13  H    1.085405   2.222565   3.424080   3.983393   3.474097
                    6          7          8          9         10
     6  C    0.000000
     7  H    3.961572   0.000000
     8  H    3.424082   2.413060   0.000000
     9  O    2.370919   3.171694   3.958725   0.000000
    10  H    3.588426   2.595843   4.370650   2.031980   0.000000
    11  H    2.278084   4.496925   5.088020   2.031965   2.672176
    12  H    1.085304   5.046030   4.316939   3.171718   4.496905
    13  H    2.102275   4.316938   2.539245   3.958745   5.088006
                   11         12         13
    11  H    0.000000
    12  H    2.595830   0.000000
    13  H    4.370646   2.413058   0.000000
 Stoichiometry    C6H6O
 Framework group  C1[X(C6H6O)]
 Deg. of freedom    33
 Full point group                 C1      NOp   1
 Largest Abelian subgroup         C1      NOp   1
 Largest concise Abelian subgroup C1      NOp   1
                         Standard orientation:                         
 ---------------------------------------------------------------------
 Center     Atomic      Atomic             Coordinates (Angstroms)
 Number     Number       Type             X           Y           Z
 ---------------------------------------------------------------------
      1          6           0       -1.442969    0.740712    0.066796
      2          6           0       -1.442970   -0.740710    0.066801
      3          6           0       -0.313582   -1.438374   -0.137517
      4          6           0        1.006931   -0.747879   -0.360552
      5          6           0        1.006940    0.747887   -0.360531
      6          6           0       -0.313580    1.438376   -0.137516
      7          1           0       -0.349704   -2.523014   -0.149253
      8          1           0       -2.377804   -1.269621    0.223138
      9          8           0        1.329292   -0.000013    0.786207
     10          1           0        1.908024   -1.336075   -0.631168
     11          1           0        1.908040    1.336100   -0.631091
     12          1           0       -0.349703    2.523016   -0.149259
     13          1           0       -2.377808    1.269624    0.223096
 ---------------------------------------------------------------------
 Rotational constants (GHZ):           4.5807704           3.6519774           2.2981541
 Leave Link  202 at Sun Apr  3 21:19:56 2022, MaxMem=  1073741824 cpu:               0.1 elap:               0.0
 (Enter /home/saurabh/g16/l301.exe)
 Standard basis: CC-pVTZ (5D, 7F)
 Ernie: Thresh=  0.10000D-02 Tol=  0.10000D-05 Strict=F.
 Ernie:  21 primitive shells out of 230 were deleted.
 There are   335 symmetry adapted cartesian basis functions of A   symmetry.
 There are   294 symmetry adapted basis functions of A   symmetry.
   294 basis functions,   466 primitive gaussians,   335 cartesian basis functions
    25 alpha electrons       25 beta electrons
       nuclear repulsion energy       281.0615961486 Hartrees.
 IExCor=  402 DFT=T Ex+Corr=B3LYP ExCW=0 ScaHFX=  0.200000
 ScaDFX=  0.800000  0.720000  1.000000  0.810000 ScalE2=  1.000000  1.000000
 IRadAn=      5 IRanWt=     -1 IRanGd=            0 ICorTp=0 IEmpDi=  4
 NAtoms=   13 NActive=   13 NUniq=   13 SFac= 1.00D+00 NAtFMM=   60 NAOKFM=F Big=F
 Integral buffers will be    131072 words long.
 Raffenetti 2 integral format.
 Two-electron integral symmetry is turned on.
 Leave Link  301 at Sun Apr  3 21:19:56 2022, MaxMem=  1073741824 cpu:               0.5 elap:               0.1
 (Enter /home/saurabh/g16/l302.exe)
 NPDir=0 NMtPBC=     1 NCelOv=     1 NCel=       1 NClECP=     1 NCelD=      1
         NCelK=      1 NCelE2=     1 NClLst=     1 CellRange=     0.0.
 One-electron integrals computed using PRISM.
 One-electron integral symmetry used in STVInt
 NBasis=   294 RedAO= T EigKep=  4.18D-05  NBF=   294
 NBsUse=   294 1.00D-06 EigRej= -1.00D+00 NBFU=   294
 Precomputing XC quadrature grid using
 IXCGrd= 4 IRadAn=           5 IRanWt=          -1 IRanGd=           0 AccXCQ= 0.00D+00.
 Generated NRdTot=       0 NPtTot=           0 NUsed=           0 NTot=          32
 NSgBfM=   335   335   335   335   335 MxSgAt=    13 MxSgA2=    13.
 Leave Link  302 at Sun Apr  3 21:19:56 2022, MaxMem=  1073741824 cpu:               2.3 elap:               0.3
 (Enter /home/saurabh/g16/l303.exe)
 DipDrv:  MaxL=1.
 Leave Link  303 at Sun Apr  3 21:19:56 2022, MaxMem=  1073741824 cpu:               0.3 elap:               0.1
 (Enter /home/saurabh/g16/l401.exe)
 ExpMin= 1.03D-01 ExpMax= 1.53D+04 ExpMxC= 5.22D+02 IAcc=3 IRadAn=         5 AccDes= 0.00D+00
 Harris functional with IExCor=  402 and IRadAn=       5 diagonalized for initial guess.
 HarFok:  IExCor=  402 AccDes= 0.00D+00 IRadAn=         5 IDoV= 1 UseB2=F ITyADJ=14
 ICtDFT=  3500011 ScaDFX=  1.000000  1.000000  1.000000  1.000000
 FoFCou: FMM=F IPFlag=           0 FMFlag=      100000 FMFlg1=           0
         NFxFlg=           0 DoJE=T BraDBF=F KetDBF=T FulRan=T
         wScrn=  0.000000 ICntrl=       500 IOpCl=  0 I1Cent=   200000004 NGrid=           0
         NMat0=    1 NMatS0=      1 NMatT0=    0 NMatD0=    1 NMtDS0=    0 NMtDT0=    0
 Petite list used in FoFCou.
 Harris En= -307.508504678397    
 JPrj=0 DoOrth=F DoCkMO=F.
 Leave Link  401 at Sun Apr  3 21:19:58 2022, MaxMem=  1073741824 cpu:              13.7 elap:               1.7
 (Enter /home/saurabh/g16/l502.exe)
 Integral symmetry usage will be decided dynamically.
 Closed shell SCF:
 Using DIIS extrapolation, IDIIS=  1040.
 NGot=  1073741824 LenX=  1073511416 LenY=  1073398750
 Requested convergence on RMS density matrix=1.00D-08 within1000 cycles.
 Requested convergence on MAX density matrix=1.00D-06.
 Requested convergence on             energy=1.00D-06.
 No special actions if energy rises.
 Fock matrices will be formed incrementally for  20 cycles.
 Integral accuracy reduced to 1.0D-05 until final iterations.

 Cycle   1  Pass 0  IDiag  1:
 FoFJK:  IHMeth= 1 ICntrl=       0 DoSepK=F KAlg= 0 I1Cent=           0 FoldK=F
 IRaf= 980000000 NMat=       1 IRICut=       1 DoRegI=T DoRafI=F ISym2E= 0 IDoP0=0 IntGTp=1.
 FoFCou: FMM=F IPFlag=           0 FMFlag=      100000 FMFlg1=           0
         NFxFlg=           0 DoJE=F BraDBF=F KetDBF=F FulRan=T
         wScrn=  0.000000 ICntrl=         0 IOpCl=  0 I1Cent=           0 NGrid=           0
         NMat0=    1 NMatS0=      1 NMatT0=    0 NMatD0=    1 NMtDS0=    0 NMtDT0=    0
 Symmetry not used in FoFCou.
 E= -307.333299402748    
 DIIS: error= 2.51D-02 at cycle   1 NSaved=   1.
 NSaved= 1 IEnMin= 1 EnMin= -307.333299402748     IErMin= 1 ErrMin= 2.51D-02
 ErrMax= 2.51D-02  0.00D+00 EMaxC= 1.00D-01 BMatC= 1.73D-01 BMatP= 1.73D-01
 IDIUse=3 WtCom= 7.49D-01 WtEn= 2.51D-01
 Coeff-Com:  0.100D+01
 Coeff-En:   0.100D+01
 Coeff:      0.100D+01
 Gap=     0.183 Goal=   None    Shift=    0.000
 GapD=    0.183 DampG=1.000 DampE=0.500 DampFc=0.5000 IDamp=-1.
 Damping current iteration by 5.00D-01
 RMSDP=2.19D-03 MaxDP=7.57D-02              OVMax= 1.62D-01

 Cycle   2  Pass 0  IDiag  1:
 RMSU=  1.09D-03    CP:  9.90D-01
 E= -307.399687656760     Delta-E=       -0.066388254012 Rises=F Damp=T
 DIIS: error= 6.41D-03 at cycle   2 NSaved=   2.
 NSaved= 2 IEnMin= 2 EnMin= -307.399687656760     IErMin= 2 ErrMin= 6.41D-03
 ErrMax= 6.41D-03  0.00D+00 EMaxC= 1.00D-01 BMatC= 1.34D-02 BMatP= 1.73D-01
 IDIUse=3 WtCom= 9.36D-01 WtEn= 6.41D-02
 Coeff-Com:  0.619D-01 0.938D+00
 Coeff-En:   0.134D+00 0.866D+00
 Coeff:      0.665D-01 0.933D+00
 Gap=     0.194 Goal=   None    Shift=    0.000
 RMSDP=5.19D-04 MaxDP=1.16D-02 DE=-6.64D-02 OVMax= 9.82D-02

 Cycle   3  Pass 0  IDiag  1:
 RMSU=  4.38D-04    CP:  9.92D-01  7.46D-01
 E= -307.483327578522     Delta-E=       -0.083639921762 Rises=F Damp=F
 DIIS: error= 5.06D-03 at cycle   3 NSaved=   3.
 NSaved= 3 IEnMin= 3 EnMin= -307.483327578522     IErMin= 3 ErrMin= 5.06D-03
 ErrMax= 5.06D-03  0.00D+00 EMaxC= 1.00D-01 BMatC= 9.57D-03 BMatP= 1.34D-02
 IDIUse=3 WtCom= 9.49D-01 WtEn= 5.06D-02
 Coeff-Com: -0.457D-01 0.456D+00 0.590D+00
 Coeff-En:   0.000D+00 0.000D+00 0.100D+01
 Coeff:     -0.434D-01 0.432D+00 0.611D+00
 Gap=     0.190 Goal=   None    Shift=    0.000
 RMSDP=2.46D-04 MaxDP=1.03D-02 DE=-8.36D-02 OVMax= 2.94D-02

 Cycle   4  Pass 0  IDiag  1:
 RMSU=  1.80D-04    CP:  9.92D-01  8.27D-01  6.72D-01
 E= -307.488456760159     Delta-E=       -0.005129181638 Rises=F Damp=F
 DIIS: error= 2.87D-03 at cycle   4 NSaved=   4.
 NSaved= 4 IEnMin= 4 EnMin= -307.488456760159     IErMin= 4 ErrMin= 2.87D-03
 ErrMax= 2.87D-03  0.00D+00 EMaxC= 1.00D-01 BMatC= 2.69D-03 BMatP= 9.57D-03
 IDIUse=3 WtCom= 9.71D-01 WtEn= 2.87D-02
 Coeff-Com: -0.327D-01 0.165D+00 0.385D+00 0.482D+00
 Coeff-En:   0.000D+00 0.000D+00 0.222D+00 0.778D+00
 Coeff:     -0.318D-01 0.161D+00 0.380D+00 0.491D+00
 Gap=     0.190 Goal=   None    Shift=    0.000
 RMSDP=1.00D-04 MaxDP=3.74D-03 DE=-5.13D-03 OVMax= 1.13D-02

 Cycle   5  Pass 0  IDiag  1:
 RMSU=  5.61D-05    CP:  9.91D-01  8.29D-01  7.35D-01  5.66D-01
 E= -307.490479662511     Delta-E=       -0.002022902351 Rises=F Damp=F
 DIIS: error= 5.66D-04 at cycle   5 NSaved=   5.
 NSaved= 5 IEnMin= 5 EnMin= -307.490479662511     IErMin= 5 ErrMin= 5.66D-04
 ErrMax= 5.66D-04  0.00D+00 EMaxC= 1.00D-01 BMatC= 9.05D-05 BMatP= 2.69D-03
 IDIUse=3 WtCom= 9.94D-01 WtEn= 5.66D-03
 Coeff-Com: -0.995D-02 0.214D-01 0.963D-01 0.214D+00 0.678D+00
 Coeff-En:   0.000D+00 0.000D+00 0.000D+00 0.000D+00 0.100D+01
 Coeff:     -0.990D-02 0.213D-01 0.958D-01 0.213D+00 0.680D+00
 Gap=     0.190 Goal=   None    Shift=    0.000
 RMSDP=1.95D-05 MaxDP=6.14D-04 DE=-2.02D-03 OVMax= 1.62D-03

 Cycle   6  Pass 0  IDiag  1:
 RMSU=  9.48D-06    CP:  9.91D-01  8.30D-01  7.48D-01  6.16D-01  7.65D-01
 E= -307.490546485642     Delta-E=       -0.000066823131 Rises=F Damp=F
 DIIS: error= 1.01D-04 at cycle   6 NSaved=   6.
 NSaved= 6 IEnMin= 6 EnMin= -307.490546485642     IErMin= 6 ErrMin= 1.01D-04
 ErrMax= 1.01D-04  0.00D+00 EMaxC= 1.00D-01 BMatC= 2.32D-06 BMatP= 9.05D-05
 IDIUse=3 WtCom= 9.99D-01 WtEn= 1.01D-03
 Coeff-Com: -0.392D-02 0.690D-02 0.376D-01 0.897D-01 0.308D+00 0.562D+00
 Coeff-En:   0.000D+00 0.000D+00 0.000D+00 0.000D+00 0.000D+00 0.100D+01
 Coeff:     -0.391D-02 0.689D-02 0.376D-01 0.897D-01 0.308D+00 0.562D+00
 Gap=     0.190 Goal=   None    Shift=    0.000
 RMSDP=4.67D-06 MaxDP=2.04D-04 DE=-6.68D-05 OVMax= 8.51D-04

 Initial convergence to 1.0D-05 achieved.  Increase integral accuracy.
 Cycle   7  Pass 1  IDiag  1:
 E= -307.490556540354     Delta-E=       -0.000010054712 Rises=F Damp=F
 DIIS: error= 6.73D-05 at cycle   1 NSaved=   1.
 NSaved= 1 IEnMin= 1 EnMin= -307.490556540354     IErMin= 1 ErrMin= 6.73D-05
 ErrMax= 6.73D-05  0.00D+00 EMaxC= 1.00D-01 BMatC= 1.10D-06 BMatP= 1.10D-06
 IDIUse=1 WtCom= 1.00D+00 WtEn= 0.00D+00
 Coeff-Com:  0.100D+01
 Coeff:      0.100D+01
 Gap=     0.190 Goal=   None    Shift=    0.000
 RMSDP=4.67D-06 MaxDP=2.04D-04 DE=-1.01D-05 OVMax= 1.16D-03

 Cycle   8  Pass 1  IDiag  1:
 RMSU=  1.63D-05    CP:  1.00D+00
 E= -307.490553500316     Delta-E=        0.000003040038 Rises=F Damp=F
 DIIS: error= 1.35D-04 at cycle   2 NSaved=   2.
 NSaved= 2 IEnMin= 1 EnMin= -307.490556540354     IErMin= 1 ErrMin= 6.73D-05
 ErrMax= 1.35D-04  0.00D+00 EMaxC= 1.00D-01 BMatC= 3.92D-06 BMatP= 1.10D-06
 IDIUse=3 WtCom= 4.62D-01 WtEn= 5.38D-01
 Coeff-Com:  0.660D+00 0.340D+00
 Coeff-En:   0.753D+00 0.247D+00
 Coeff:      0.710D+00 0.290D+00
 Gap=     0.190 Goal=   None    Shift=    0.000
 RMSDP=3.56D-06 MaxDP=1.53D-04 DE= 3.04D-06 OVMax= 6.80D-04

 Cycle   9  Pass 1  IDiag  1:
 RMSU=  3.33D-06    CP:  1.00D+00  9.23D-01
 E= -307.490557494228     Delta-E=       -0.000003993911 Rises=F Damp=F
 DIIS: error= 1.57D-05 at cycle   3 NSaved=   3.
 NSaved= 3 IEnMin= 3 EnMin= -307.490557494228     IErMin= 3 ErrMin= 1.57D-05
 ErrMax= 1.57D-05  0.00D+00 EMaxC= 1.00D-01 BMatC= 4.83D-08 BMatP= 1.10D-06
 IDIUse=1 WtCom= 1.00D+00 WtEn= 0.00D+00
 Coeff-Com:  0.360D-01-0.974D-01 0.106D+01
 Coeff:      0.360D-01-0.974D-01 0.106D+01
 Gap=     0.190 Goal=   None    Shift=    0.000
 RMSDP=5.15D-07 MaxDP=2.07D-05 DE=-3.99D-06 OVMax= 8.37D-05

 Cycle  10  Pass 1  IDiag  1:
 RMSU=  2.47D-07    CP:  1.00D+00  9.26D-01  1.13D+00
 E= -307.490557541357     Delta-E=       -0.000000047129 Rises=F Damp=F
 DIIS: error= 2.87D-06 at cycle   4 NSaved=   4.
 NSaved= 4 IEnMin= 4 EnMin= -307.490557541357     IErMin= 4 ErrMin= 2.87D-06
 ErrMax= 2.87D-06  0.00D+00 EMaxC= 1.00D-01 BMatC= 3.81D-09 BMatP= 4.83D-08
 IDIUse=1 WtCom= 1.00D+00 WtEn= 0.00D+00
 Coeff-Com:  0.455D-02-0.656D-01 0.624D+00 0.437D+00
 Coeff:      0.455D-02-0.656D-01 0.624D+00 0.437D+00
 Gap=     0.190 Goal=   None    Shift=    0.000
 RMSDP=1.38D-07 MaxDP=6.51D-06 DE=-4.71D-08 OVMax= 1.49D-05

 Cycle  11  Pass 1  IDiag  1:
 RMSU=  7.52D-08    CP:  1.00D+00  9.26D-01  1.14D+00  5.39D-01
 E= -307.490557544028     Delta-E=       -0.000000002671 Rises=F Damp=F
 DIIS: error= 8.15D-07 at cycle   5 NSaved=   5.
 NSaved= 5 IEnMin= 5 EnMin= -307.490557544028     IErMin= 5 ErrMin= 8.15D-07
 ErrMax= 8.15D-07  0.00D+00 EMaxC= 1.00D-01 BMatC= 2.20D-10 BMatP= 3.81D-09
 IDIUse=1 WtCom= 1.00D+00 WtEn= 0.00D+00
 Coeff-Com: -0.802D-03-0.289D-01 0.263D+00 0.251D+00 0.516D+00
 Coeff:     -0.802D-03-0.289D-01 0.263D+00 0.251D+00 0.516D+00
 Gap=     0.190 Goal=   None    Shift=    0.000
 RMSDP=2.80D-08 MaxDP=1.12D-06 DE=-2.67D-09 OVMax= 3.42D-06

 Cycle  12  Pass 1  IDiag  1:
 RMSU=  2.00D-08    CP:  1.00D+00  9.27D-01  1.14D+00  5.71D-01  7.78D-01
 E= -307.490557544170     Delta-E=       -0.000000000142 Rises=F Damp=F
 DIIS: error= 1.72D-07 at cycle   6 NSaved=   6.
 NSaved= 6 IEnMin= 6 EnMin= -307.490557544170     IErMin= 6 ErrMin= 1.72D-07
 ErrMax= 1.72D-07  0.00D+00 EMaxC= 1.00D-01 BMatC= 8.39D-12 BMatP= 2.20D-10
 IDIUse=1 WtCom= 1.00D+00 WtEn= 0.00D+00
 Coeff-Com: -0.620D-03-0.119D-01 0.108D+00 0.110D+00 0.265D+00 0.529D+00
 Coeff:     -0.620D-03-0.119D-01 0.108D+00 0.110D+00 0.265D+00 0.529D+00
 Gap=     0.190 Goal=   None    Shift=    0.000
 RMSDP=7.07D-09 MaxDP=2.41D-07 DE=-1.42D-10 OVMax= 6.43D-07

 SCF Done:  E(RB3LYP) =  -307.490557544     A.U. after   12 cycles
            NFock= 12  Conv=0.71D-08     -V/T= 2.0070
 KE= 3.053499091293D+02 PE=-1.277856358259D+03 EE= 3.839542954373D+02
 Leave Link  502 at Sun Apr  3 21:20:53 2022, MaxMem=  1073741824 cpu:             438.5 elap:              54.8
 (Enter /home/saurabh/g16/l801.exe)
 DoSCS=F DFT=T ScalE2(SS,OS)=  1.000000  1.000000
 Range of M.O.s used for correlation:     1   294
 NBasis=   294 NAE=    25 NBE=    25 NFC=     0 NFV=     0
 NROrb=    294 NOA=    25 NOB=    25 NVA=   269 NVB=   269

 **** Warning!!: The largest alpha MO coefficient is  0.30736127D+02

 Leave Link  801 at Sun Apr  3 21:20:53 2022, MaxMem=  1073741824 cpu:               0.2 elap:               0.1
 (Enter /home/saurabh/g16/l1101.exe)
 Using compressed storage, NAtomX=    13.
 Will process     14 centers per pass.
 Leave Link 1101 at Sun Apr  3 21:20:53 2022, MaxMem=  1073741824 cpu:               2.3 elap:               0.3
 (Enter /home/saurabh/g16/l1102.exe)
 Symmetrizing basis deriv contribution to polar:
 IMax=3 JMax=2 DiffMx= 0.00D+00
 Leave Link 1102 at Sun Apr  3 21:20:53 2022, MaxMem=  1073741824 cpu:               0.3 elap:               0.1
 (Enter /home/saurabh/g16/l1110.exe)
 Forming Gx(P) for the SCF density, NAtomX=    13.
 Integral derivatives from FoFJK, PRISM(SPDF).
 Do as many integral derivatives as possible in FoFJK.
 G2DrvN: MDV=    1073740349.
 G2DrvN: will do    14 centers at a time, making    1 passes.
 Calling FoFCou, ICntrl=  3107 FMM=F I1Cent=   0 AccDes= 0.00D+00.
 FoFJK:  IHMeth= 1 ICntrl=    3107 DoSepK=F KAlg= 0 I1Cent=           0 FoldK=F
 IRaf=         0 NMat=       1 IRICut=       1 DoRegI=T DoRafI=F ISym2E= 0 IDoP0=0 IntGTp=1.
 FoFCou: FMM=F IPFlag=           0 FMFlag=      100000 FMFlg1=           0
         NFxFlg=           0 DoJE=F BraDBF=F KetDBF=F FulRan=T
         wScrn=  0.000000 ICntrl=      3107 IOpCl=  0 I1Cent=           0 NGrid=           0
         NMat0=    1 NMatS0=      1 NMatT0=    0 NMatD0=    1 NMtDS0=    0 NMtDT0=    0
 Symmetry not used in FoFCou.
 End of G2Drv F.D. properties file   721 does not exist.
 End of G2Drv F.D. properties file   722 does not exist.
 End of G2Drv F.D. properties file   788 does not exist.
 Leave Link 1110 at Sun Apr  3 21:22:32 2022, MaxMem=  1073741824 cpu:             791.1 elap:              98.8
 (Enter /home/saurabh/g16/l1002.exe)
 Minotr:  Closed shell wavefunction.
          IDoAtm=1111111111111
          Direct CPHF calculation.
          Differentiating once with respect to nuclear coordinates.
          Requested convergence is 1.0D-08 RMS, and 1.0D-07 maximum.
          Secondary convergence is 1.0D-12 RMS, and 1.0D-12 maximum.
          NewPWx=T KeepS1=F KeepF1=F KeepIn=T MapXYZ=F SortEE=F KeepMc=T.
         3840 words used for storage of precomputed grid.
 Keep R1 ints in memory in canonical form, NReq=959257527.
 FoFCou: FMM=F IPFlag=           0 FMFlag=           0 FMFlg1=           0
         NFxFlg=           0 DoJE=F BraDBF=F KetDBF=F FulRan=T
         wScrn=  0.000000 ICntrl=       600 IOpCl=  0 I1Cent=           0 NGrid=           0
         NMat0=    1 NMatS0=  43365 NMatT0=    0 NMatD0=    1 NMtDS0=    0 NMtDT0=    0
 Symmetry not used in FoFCou.
 Two-electron integral symmetry not used.
          MDV=    1073741824 using IRadAn=       1.
          Solving linear equations simultaneously, MaxMat=       0.
          There are    42 degrees of freedom in the 1st order CPHF.  IDoFFX=6 NUNeed=     0.
     36 vectors produced by pass  0 Test12= 1.60D-14 2.38D-09 XBig12= 1.22D-01 1.19D-01.
 AX will form    36 AO Fock derivatives at one time.
     36 vectors produced by pass  1 Test12= 1.60D-14 2.38D-09 XBig12= 2.68D-02 7.25D-02.
     36 vectors produced by pass  2 Test12= 1.60D-14 2.38D-09 XBig12= 3.11D-04 3.61D-03.
     36 vectors produced by pass  3 Test12= 1.60D-14 2.38D-09 XBig12= 1.64D-06 2.04D-04.
     36 vectors produced by pass  4 Test12= 1.60D-14 2.38D-09 XBig12= 3.30D-09 8.87D-06.
     35 vectors produced by pass  5 Test12= 1.60D-14 2.38D-09 XBig12= 6.45D-12 4.06D-07.
     13 vectors produced by pass  6 Test12= 1.60D-14 2.38D-09 XBig12= 1.14D-14 1.44D-08.
 InvSVY:  IOpt=1 It=  1 EMax= 2.22D-15
 Solved reduced A of dimension   228 with    36 vectors.
 End of Minotr F.D. properties file   721 does not exist.
 End of Minotr F.D. properties file   722 does not exist.
 End of Minotr F.D. properties file   788 does not exist.
 Leave Link 1002 at Sun Apr  3 21:24:16 2022, MaxMem=  1073741824 cpu:             833.9 elap:             104.2
 (Enter /home/saurabh/g16/l601.exe)
 Copying SCF densities to generalized density rwf, IOpCl= 0 IROHF=0.

 **********************************************************************

            Population analysis using the SCF Density.

 **********************************************************************

 Orbital symmetries:
       Occupied  (A) (A) (A) (A) (A) (A) (A) (A) (A) (A) (A) (A)
                 (A) (A) (A) (A) (A) (A) (A) (A) (A) (A) (A) (A)
                 (A)
       Virtual   (A) (A) (A) (A) (A) (A) (A) (A) (A) (A) (A) (A)
                 (A) (A) (A) (A) (A) (A) (A) (A) (A) (A) (A) (A)
                 (A) (A) (A) (A) (A) (A) (A) (A) (A) (A) (A) (A)
                 (A) (A) (A) (A) (A) (A) (A) (A) (A) (A) (A) (A)
                 (A) (A) (A) (A) (A) (A) (A) (A) (A) (A) (A) (A)
                 (A) (A) (A) (A) (A) (A) (A) (A) (A) (A) (A) (A)
                 (A) (A) (A) (A) (A) (A) (A) (A) (A) (A) (A) (A)
                 (A) (A) (A) (A) (A) (A) (A) (A) (A) (A) (A) (A)
                 (A) (A) (A) (A) (A) (A) (A) (A) (A) (A) (A) (A)
                 (A) (A) (A) (A) (A) (A) (A) (A) (A) (A) (A) (A)
                 (A) (A) (A) (A) (A) (A) (A) (A) (A) (A) (A) (A)
                 (A) (A) (A) (A) (A) (A) (A) (A) (A) (A) (A) (A)
                 (A) (A) (A) (A) (A) (A) (A) (A) (A) (A) (A) (A)
                 (A) (A) (A) (A) (A) (A) (A) (A) (A) (A) (A) (A)
                 (A) (A) (A) (A) (A) (A) (A) (A) (A) (A) (A) (A)
                 (A) (A) (A) (A) (A) (A) (A) (A) (A) (A) (A) (A)
                 (A) (A) (A) (A) (A) (A) (A) (A) (A) (A) (A) (A)
                 (A) (A) (A) (A) (A) (A) (A) (A) (A) (A) (A) (A)
                 (A) (A) (A) (A) (A) (A) (A) (A) (A) (A) (A) (A)
                 (A) (A) (A) (A) (A) (A) (A) (A) (A) (A) (A) (A)
                 (A) (A) (A) (A) (A) (A) (A) (A) (A) (A) (A) (A)
                 (A) (A) (A) (A) (A) (A) (A) (A) (A) (A) (A) (A)
                 (A) (A) (A) (A) (A)
 The electronic state is 1-A.
 Alpha  occ. eigenvalues --  -19.13264 -10.24527 -10.24500 -10.18688 -10.18673
 Alpha  occ. eigenvalues --  -10.18604 -10.18590  -1.09580  -0.82295  -0.75972
 Alpha  occ. eigenvalues --   -0.68208  -0.63928  -0.60012  -0.54294  -0.49725
 Alpha  occ. eigenvalues --   -0.48061  -0.46035  -0.43670  -0.39820  -0.37523
 Alpha  occ. eigenvalues --   -0.36515  -0.35721  -0.29959  -0.26477  -0.23809
 Alpha virt. eigenvalues --   -0.04851   0.03290   0.03510   0.06475   0.06481
 Alpha virt. eigenvalues --    0.09006   0.09432   0.11915   0.13882   0.14982
 Alpha virt. eigenvalues --    0.20441   0.21273   0.22293   0.24671   0.25362
 Alpha virt. eigenvalues --    0.27133   0.29302   0.30037   0.33173   0.33671
 Alpha virt. eigenvalues --    0.35965   0.36437   0.36564   0.37151   0.39337
 Alpha virt. eigenvalues --    0.40473   0.40912   0.42411   0.43057   0.45254
 Alpha virt. eigenvalues --    0.45816   0.46017   0.46586   0.47605   0.50512
 Alpha virt. eigenvalues --    0.51652   0.53126   0.53578   0.55888   0.56491
 Alpha virt. eigenvalues --    0.58938   0.62594   0.65325   0.67034   0.68653
 Alpha virt. eigenvalues --    0.69341   0.70849   0.73021   0.73431   0.75475
 Alpha virt. eigenvalues --    0.79028   0.83684   0.84842   0.86555   0.88457
 Alpha virt. eigenvalues --    0.91961   0.96528   0.96744   0.99776   1.00392
 Alpha virt. eigenvalues --    1.00767   1.02094   1.06220   1.06566   1.08784
 Alpha virt. eigenvalues --    1.09382   1.10929   1.11523   1.15633   1.16101
 Alpha virt. eigenvalues --    1.18293   1.18881   1.21011   1.22254   1.24483
 Alpha virt. eigenvalues --    1.25350   1.27112   1.29482   1.30464   1.31752
 Alpha virt. eigenvalues --    1.36287   1.36906   1.37738   1.42369   1.42649
 Alpha virt. eigenvalues --    1.46307   1.47711   1.48004   1.51017   1.53533
 Alpha virt. eigenvalues --    1.55345   1.64889   1.77183   1.77582   1.83524
 Alpha virt. eigenvalues --    1.87899   1.91943   1.92543   1.96622   1.97540
 Alpha virt. eigenvalues --    2.01471   2.02362   2.02816   2.04835   2.10927
 Alpha virt. eigenvalues --    2.13658   2.14689   2.16122   2.18223   2.26646
 Alpha virt. eigenvalues --    2.29302   2.31939   2.35035   2.40448   2.42604
 Alpha virt. eigenvalues --    2.43004   2.46166   2.48918   2.50533   2.51725
 Alpha virt. eigenvalues --    2.54781   2.58610   2.64191   2.64583   2.65927
 Alpha virt. eigenvalues --    2.66840   2.69794   2.71444   2.71897   2.74522
 Alpha virt. eigenvalues --    2.77547   2.78304   2.80715   2.84864   2.86659
 Alpha virt. eigenvalues --    2.87886   2.90099   2.91616   2.91963   2.92806
 Alpha virt. eigenvalues --    2.93494   2.95093   2.98191   3.00343   3.00882
 Alpha virt. eigenvalues --    3.04098   3.04431   3.05220   3.05238   3.10396
 Alpha virt. eigenvalues --    3.11364   3.11688   3.13295   3.15856   3.17643
 Alpha virt. eigenvalues --    3.21130   3.21707   3.24693   3.25392   3.26074
 Alpha virt. eigenvalues --    3.29034   3.29711   3.33467   3.34898   3.35021
 Alpha virt. eigenvalues --    3.37131   3.38162   3.42509   3.43991   3.47852
 Alpha virt. eigenvalues --    3.49582   3.49847   3.51340   3.56222   3.63427
 Alpha virt. eigenvalues --    3.63761   3.65279   3.66277   3.69580   3.69625
 Alpha virt. eigenvalues --    3.70772   3.73108   3.73513   3.77743   3.78256
 Alpha virt. eigenvalues --    3.80178   3.82338   3.82430   3.87194   3.89399
 Alpha virt. eigenvalues --    3.90059   3.93032   3.95918   3.97069   3.97603
 Alpha virt. eigenvalues --    4.02268   4.04211   4.06392   4.07454   4.07802
 Alpha virt. eigenvalues --    4.10752   4.13935   4.14830   4.17362   4.17963
 Alpha virt. eigenvalues --    4.19635   4.22231   4.23043   4.24903   4.29527
 Alpha virt. eigenvalues --    4.31347   4.36404   4.37072   4.38324   4.41058
 Alpha virt. eigenvalues --    4.53653   4.56367   4.58135   4.59792   4.64698
 Alpha virt. eigenvalues --    4.65519   4.66225   4.70937   4.73935   4.74293
 Alpha virt. eigenvalues --    4.78355   4.83204   4.84641   4.90314   4.90878
 Alpha virt. eigenvalues --    4.96374   4.98699   5.01029   5.03217   5.08123
 Alpha virt. eigenvalues --    5.09208   5.15042   5.22485   5.27494   5.28332
 Alpha virt. eigenvalues --    5.40643   5.44746   5.49663   5.53024   5.61261
 Alpha virt. eigenvalues --    5.63338   5.69331   5.79707   5.83549   5.87660
 Alpha virt. eigenvalues --    5.88944   5.96191   6.00929   6.03068   6.21242
 Alpha virt. eigenvalues --    6.44914   6.66476   6.70093   6.88361   6.89442
 Alpha virt. eigenvalues --    6.99358   7.27869   8.97587  10.65779  11.33551
 Alpha virt. eigenvalues --   11.52289  12.25483  13.24846  14.77495
          Condensed to atoms (all electrons):
               1          2          3          4          5          6
     1  C    4.887774   0.396785  -0.051367  -0.020218  -0.038906   0.582415
     2  C    0.396785   4.887770   0.582419  -0.038905  -0.020214  -0.051366
     3  C   -0.051367   0.582419   4.963362   0.370870  -0.022508  -0.019052
     4  C   -0.020218  -0.038905   0.370870   4.744967   0.328783  -0.022508
     5  C   -0.038906  -0.020214  -0.022508   0.328783   4.744963   0.370864
     6  C    0.582415  -0.051366  -0.019052  -0.022508   0.370864   4.963381
     7  H    0.007821  -0.047828   0.423529  -0.039629   0.004251  -0.001056
     8  H   -0.042303   0.425404  -0.048157   0.007551  -0.000527   0.006167
     9  O    0.000294   0.000290  -0.045368   0.198099   0.198105  -0.045371
    10  H   -0.000502   0.005859  -0.047920   0.437877  -0.024412   0.001890
    11  H    0.005859  -0.000503   0.001890  -0.024411   0.437880  -0.047921
    12  H   -0.047828   0.007821  -0.001056   0.004251  -0.039628   0.423528
    13  H    0.425404  -0.042303   0.006167  -0.000527   0.007550  -0.048157
               7          8          9         10         11         12
     1  C    0.007821  -0.042303   0.000294  -0.000502   0.005859  -0.047828
     2  C   -0.047828   0.425404   0.000290   0.005859  -0.000503   0.007821
     3  C    0.423529  -0.048157  -0.045368  -0.047920   0.001890  -0.001056
     4  C   -0.039629   0.007551   0.198099   0.437877  -0.024411   0.004251
     5  C    0.004251  -0.000527   0.198105  -0.024412   0.437880  -0.039628
     6  C   -0.001056   0.006167  -0.045371   0.001890  -0.047921   0.423528
     7  H    0.549633  -0.009845   0.002994  -0.003091  -0.000020   0.000084
     8  H   -0.009845   0.557575  -0.000415  -0.000261   0.000033  -0.000339
     9  O    0.002994  -0.000415   8.047857  -0.031808  -0.031809   0.002994
    10  H   -0.003091  -0.000261  -0.031808   0.578451  -0.004633  -0.000020
    11  H   -0.000020   0.000033  -0.031809  -0.004633   0.578447  -0.003091
    12  H    0.000084  -0.000339   0.002994  -0.000020  -0.003091   0.549635
    13  H   -0.000339  -0.004809  -0.000415   0.000033  -0.000261  -0.009845
              13
     1  C    0.425404
     2  C   -0.042303
     3  C    0.006167
     4  C   -0.000527
     5  C    0.007550
     6  C   -0.048157
     7  H   -0.000339
     8  H   -0.004809
     9  O   -0.000415
    10  H    0.000033
    11  H   -0.000261
    12  H   -0.009845
    13  H    0.557574
 Mulliken charges:
               1
     1  C   -0.105229
     2  C   -0.105230
     3  C   -0.112809
     4  C    0.053800
     5  C    0.053800
     6  C   -0.112813
     7  H    0.113497
     8  H    0.109928
     9  O   -0.295447
    10  H    0.088538
    11  H    0.088540
    12  H    0.113496
    13  H    0.109929
 Sum of Mulliken charges =  -0.00000
 Mulliken charges with hydrogens summed into heavy atoms:
               1
     1  C    0.004699
     2  C    0.004699
     3  C    0.000688
     4  C    0.142338
     5  C    0.142340
     6  C    0.000683
     9  O   -0.295447
 APT charges:
               1
     1  C   -0.510642
     2  C   -0.510635
     3  C   -0.550233
     4  C   -0.450326
     5  C   -0.450336
     6  C   -0.550225
     7  H    0.531507
     8  H    0.546344
     9  O   -0.109581
    10  H    0.488136
    11  H    0.488140
    12  H    0.531506
    13  H    0.546345
 Sum of APT charges =  -0.00000
 APT charges with hydrogens summed into heavy atoms:
               1
     1  C    0.035703
     2  C    0.035709
     3  C   -0.018726
     4  C    0.037810
     5  C    0.037803
     6  C   -0.018719
     9  O   -0.109581
 Electronic spatial extent (au):  <R**2>=            576.6432
 Charge=             -0.0000 electrons
 Dipole moment (field-independent basis, Debye):
    X=             -0.4334    Y=              0.0000    Z=             -1.2351  Tot=              1.3089
 Quadrupole moment (field-independent basis, Debye-Ang):
   XX=            -37.9311   YY=            -35.9213   ZZ=            -45.2648
   XY=              0.0001   XZ=             -3.2852   YZ=              0.0000
 Traceless Quadrupole moment (field-independent basis, Debye-Ang):
   XX=              1.7746   YY=              3.7844   ZZ=             -5.5590
   XY=              0.0001   XZ=             -3.2852   YZ=              0.0000
 Octapole moment (field-independent basis, Debye-Ang**2):
  XXX=              1.2468  YYY=             -0.0001  ZZZ=              3.3670  XYY=              3.4914
  XXY=              0.0002  XXZ=             -1.1256  XZZ=              2.4788  YZZ=             -0.0001
  YYZ=              0.9126  XYZ=              0.0003
 Hexadecapole moment (field-independent basis, Debye-Ang**3):
 XXXX=           -352.4399 YYYY=           -295.7236 ZZZZ=            -83.4304 XXXY=              0.0002
 XXXZ=             -8.3145 YYYX=              0.0002 YYYZ=             -0.0002 ZZZX=              3.1017
 ZZZY=              0.0001 XXYY=           -105.6365 XXZZ=            -83.1527 YYZZ=            -72.3488
 XXYZ=              0.0000 YYXZ=             -1.6543 ZZXY=             -0.0001
 N-N= 2.810615961486D+02 E-N=-1.277856338187D+03  KE= 3.053499091293D+02
  Exact polarizability:       0.000       0.000       0.000       0.000       0.000       0.000
 Approx polarizability:     119.259       0.000     125.438      -4.788      -0.000      67.702
 No NMR shielding tensors so no spin-rotation constants.
 Leave Link  601 at Sun Apr  3 21:24:17 2022, MaxMem=  1073741824 cpu:               1.7 elap:               0.3
 (Enter /home/saurabh/g16/l701.exe)
 ... and contract with generalized density number  0.
 Compute integral second derivatives.
 Leave Link  701 at Sun Apr  3 21:24:17 2022, MaxMem=  1073741824 cpu:               1.9 elap:               0.3
 (Enter /home/saurabh/g16/l702.exe)
 L702 exits ... SP integral derivatives will be done elsewhere.
 Leave Link  702 at Sun Apr  3 21:24:17 2022, MaxMem=  1073741824 cpu:               0.2 elap:               0.0
 (Enter /home/saurabh/g16/l703.exe)
 Integral derivatives from FoFJK, PRISM(SPDF).
 Compute integral second derivatives, UseDBF=F ICtDFT=           0.
 Calling FoFJK, ICntrl=    100127 FMM=F ISym2X=0 I1Cent= 0 IOpClX= 0 NMat=1 NMatS=1 NMatT=0.
 FoFJK:  IHMeth= 1 ICntrl=  100127 DoSepK=F KAlg= 0 I1Cent=           0 FoldK=F
 IRaf=         0 NMat=       1 IRICut=       1 DoRegI=T DoRafI=F ISym2E= 0 IDoP0=0 IntGTp=1.
 FoFCou: FMM=F IPFlag=           0 FMFlag=      100000 FMFlg1=         800
         NFxFlg=           0 DoJE=F BraDBF=F KetDBF=F FulRan=T
         wScrn=  0.000000 ICntrl=    100127 IOpCl=  0 I1Cent=           0 NGrid=           0
         NMat0=    1 NMatS0=      1 NMatT0=    0 NMatD0=    1 NMtDS0=    0 NMtDT0=    0
 Symmetry not used in FoFCou.
 Leave Link  703 at Sun Apr  3 21:28:09 2022, MaxMem=  1073741824 cpu:            1854.6 elap:             231.7
 (Enter /home/saurabh/g16/l716.exe)
 Dipole        =-1.70501020D-01 4.27854074D-06-4.85927705D-01
 Polarizability= 0.00000000D+00 0.00000000D+00 0.00000000D+00
                 0.00000000D+00 0.00000000D+00 0.00000000D+00
 ***** Axes restored to original set *****
 -------------------------------------------------------------------
 Center     Atomic                   Forces (Hartrees/Bohr)
 Number     Number              X              Y              Z
 -------------------------------------------------------------------
      1        6          -0.011475523    0.011795912    0.000526274
      2        6           0.014633823   -0.007461569    0.001135519
      3        6           0.000142594    0.000240440    0.019689489
      4        6          -0.019976783    0.015841596   -0.016367546
      5        6           0.021514202   -0.014765980   -0.015399066
      6        6          -0.000407546    0.000648492    0.019673835
      7        1           0.002489869    0.000108801    0.003335981
      8        1           0.003311122    0.000144727   -0.000731913
      9        8           0.016065947    0.020909719   -0.027508818
     10        1          -0.007008779   -0.020525450    0.006731471
     11        1          -0.017742011   -0.012609834    0.006483840
     12        1          -0.000731366    0.002484256    0.003260596
     13        1          -0.000815548    0.003188892   -0.000829663
 -------------------------------------------------------------------
 Cartesian Forces:  Max     0.027508818 RMS     0.012084018
 Force constants in Cartesian coordinates: 
                1             2             3             4             5 
      1  0.631600D+00
      2  0.577330D-01  0.605099D+00
      3  0.168365D+00  0.190378D+00  0.249150D+00
      4 -0.161667D+00  0.571452D-01 -0.648292D-02  0.566541D+00
      5  0.240635D-01 -0.137402D+00 -0.219083D-01  0.367799D-01  0.671392D+00
      6 -0.222162D-01 -0.952893D-02 -0.742931D-01  0.141091D+00  0.208891D+00
      7  0.108703D-01  0.252894D-01  0.126579D-01 -0.112699D+00  0.362080D-02
      8  0.359763D-01 -0.296260D-01 -0.968603D-03 -0.224830D-01 -0.421535D+00
      9  0.142305D-01 -0.558644D-02  0.977831D-02 -0.271471D-01 -0.138219D+00
     10 -0.186204D-01  0.397787D-02 -0.819721D-02  0.121754D-01 -0.298761D-01
     11  0.419198D-02 -0.255990D-02  0.536897D-02 -0.317465D-01 -0.690605D-02
     12 -0.545957D-02  0.136525D-02 -0.807359D-02 -0.613314D-02 -0.871292D-02
     13  0.125373D-01 -0.316448D-01 -0.645626D-02 -0.657879D-02  0.831763D-02
     14 -0.295300D-01 -0.743330D-02 -0.165153D-01  0.804372D-02 -0.151529D-01
     15 -0.527972D-02 -0.937819D-02 -0.635424D-02  0.278169D-02 -0.440386D-02
     16 -0.381344D+00 -0.108917D+00 -0.137406D+00 -0.428910D-01  0.187159D-01
     17 -0.830104D-01 -0.147731D+00 -0.570567D-01  0.793186D-02  0.251567D-01
     18 -0.130400D+00 -0.693312D-01 -0.117278D+00 -0.113132D-01  0.121723D-01
     19  0.153623D-02  0.651127D-03 -0.233828D-02  0.394885D-02 -0.287494D-02
     20 -0.218927D-02 -0.248101D-02 -0.565179D-02  0.276376D-01 -0.148122D-01
     21 -0.818945D-03 -0.548950D-02  0.843522D-02  0.863242D-02 -0.583421D-02
     22 -0.151243D-01 -0.108169D-01 -0.891891D-02 -0.256233D+00 -0.808912D-01
     23  0.162585D-01  0.986076D-02  0.764622D-02 -0.785941D-01 -0.888457D-01
     24  0.164052D-02  0.530267D-04  0.174786D-02 -0.916948D-01 -0.415428D-01
     25 -0.368029D-02 -0.591519D-03  0.922094D-03 -0.444699D-03  0.205148D-02
     26  0.110586D-02 -0.837380D-04 -0.108150D-03  0.287754D-03 -0.319058D-02
     27  0.112812D-02 -0.248402D-02  0.422132D-02 -0.285553D-02  0.571227D-03
     28  0.423486D-03  0.135408D-02  0.448200D-03 -0.581412D-02  0.239282D-03
     29  0.448888D-03 -0.328026D-03  0.412890D-03 -0.157976D-02  0.130929D-02
     30 -0.400937D-03  0.799730D-03 -0.203447D-03 -0.220833D-02 -0.109351D-02
     31  0.109611D-02  0.605409D-03 -0.569488D-03 -0.804895D-03  0.900805D-04
     32  0.242959D-02 -0.567774D-02 -0.230105D-02  0.987378D-03  0.875443D-03
     33 -0.421647D-03 -0.228359D-02  0.306781D-03  0.842277D-03 -0.168092D-03
     34 -0.198860D-01  0.199634D-01 -0.132600D-02 -0.139431D-02 -0.322469D-02
     35 -0.104485D-01  0.940194D-02 -0.239206D-02 -0.347560D-03  0.613508D-03
     36 -0.868635D-02  0.706291D-02  0.600367D-02 -0.529528D-02 -0.232893D-02
     37 -0.577413D-01 -0.147493D-01 -0.106981D-01  0.586114D-02  0.229883D-01
     38 -0.170294D-01 -0.291040D+00 -0.969041D-01 -0.406248D-02 -0.115020D-01
     39 -0.116806D-01 -0.955771D-01 -0.734407D-01 -0.217305D-03  0.257713D-02
                6             7             8             9            10 
      6  0.247918D+00
      7 -0.139330D-01  0.553919D+00
      8 -0.142077D+00 -0.978273D-01  0.706847D+00
      9 -0.112119D+00  0.631768D-01  0.188891D+00  0.225699D+00
     10 -0.126492D-01 -0.141348D+00 -0.694569D-02 -0.398484D-01  0.494296D+00
     11 -0.120067D-01 -0.318682D-01 -0.117257D+00 -0.349454D-01 -0.410733D-01
     12 -0.651931D-02 -0.455677D-01 -0.276111D-01 -0.828010D-01 -0.214882D-01
     13  0.740930D-02 -0.254613D-01  0.779666D-02 -0.156106D-01 -0.151793D+00
     14 -0.584388D-02  0.687276D-02  0.186945D-01  0.446522D-02  0.926025D-01
     15 -0.752220D-02  0.698172D-02  0.163702D-01 -0.265398D-02 -0.537456D-01
     16 -0.667709D-02 -0.478636D-02 -0.128744D-01 -0.587644D-02  0.100249D-01
     17  0.117079D-01 -0.264049D-02 -0.991596D-02 -0.608403D-02  0.178882D-01
     18  0.875709D-02 -0.408877D-02 -0.764225D-02 -0.257870D-02  0.885802D-02
     19 -0.189307D-02 -0.241617D+00  0.131878D+00 -0.933283D-02 -0.132780D-01
     20 -0.670548D-03  0.127102D+00 -0.137553D+00 -0.582793D-02 -0.115299D-01
     21  0.638305D-02 -0.117622D-01 -0.738597D-02 -0.403134D-01 -0.349709D-02
     22 -0.932006D-01  0.214413D-02  0.146738D-02  0.123705D-03  0.153054D-02
     23 -0.409263D-01 -0.274701D-01 -0.770717D-02 -0.126578D-01  0.228073D-02
     24 -0.771434D-01 -0.114716D-01 -0.505544D-02 -0.127217D-02  0.756232D-03
     25 -0.562392D-03 -0.438746D-01 -0.185714D-01  0.315843D-01 -0.130076D+00
     26  0.102390D-02 -0.716702D-02  0.362519D-02  0.955655D-02 -0.272604D-01
     27  0.409141D-02  0.435522D-02 -0.233533D-02  0.732217D-02  0.129726D+00
     28 -0.222237D-02  0.609694D-02 -0.221994D-01 -0.103055D-01 -0.534130D-01
     29 -0.129529D-02  0.237193D-02 -0.528853D-02 -0.116282D-02 -0.297753D-02
     30  0.230017D-03  0.189436D-02 -0.662034D-02 -0.168722D-02 -0.164307D-01
     31  0.242134D-03  0.449240D-03  0.122089D-02 -0.687247D-03 -0.769749D-02
     32  0.556277D-03 -0.176835D-02 -0.883057D-03  0.496013D-03  0.674472D-02
     33 -0.178504D-03  0.975702D-03 -0.297782D-02  0.147453D-02  0.114647D-01
     34 -0.493783D-02  0.649022D-03  0.143824D-03  0.582812D-03 -0.634553D-03
     35 -0.374178D-02 -0.291598D-03  0.636779D-03  0.632890D-03 -0.370839D-02
     36  0.827137D-02 -0.187897D-02 -0.172684D-02 -0.249437D-02  0.403866D-02
     37  0.954917D-02 -0.434204D-02  0.241784D-02 -0.890066D-03 -0.116581D-02
     38 -0.608920D-02  0.377602D-02 -0.374701D-04  0.442603D-03 -0.122791D-03
     39  0.212518D-02 -0.133949D-02 -0.860161D-03  0.164573D-02  0.101301D-02
               11            12            13            14            15 
     11  0.519149D+00
     12  0.167474D+00  0.313239D+00
     13  0.740733D-01  0.926723D-03  0.529862D+00
     14 -0.101818D+00 -0.491311D-01 -0.239089D-01  0.474485D+00
     15 -0.924073D-02 -0.514930D-02  0.173499D+00  0.246634D-01  0.322335D+00
     16  0.196769D-01  0.135295D-01 -0.107342D+00  0.437740D-02 -0.137868D-01
     17 -0.175003D-01  0.123890D-01 -0.206215D-01 -0.152409D+00 -0.507828D-01
     18 -0.126708D-01 -0.194799D-02 -0.219248D-01 -0.467285D-01 -0.816553D-01
     19  0.158982D-01 -0.683962D-03 -0.450521D-03 -0.385048D-02 -0.222197D-02
     20  0.964400D-02 -0.131686D-02 -0.915553D-03 -0.202481D-02 -0.171475D-02
     21  0.600451D-02  0.506478D-02 -0.517547D-02  0.263120D-02  0.220646D-02
     22  0.108187D-02 -0.214663D-02  0.323040D-03  0.306791D-03  0.687099D-04
     23 -0.325031D-02 -0.531728D-02  0.296564D-03 -0.110121D-02 -0.398365D-03
     24 -0.471446D-02  0.822613D-02  0.479182D-03  0.125359D-02  0.362605D-03
     25  0.378550D-02  0.907417D-01 -0.356954D-01 -0.299355D-02 -0.239013D-01
     26 -0.369256D-01 -0.650132D-03  0.280481D-01 -0.124064D+00  0.868314D-01
     27 -0.287925D-01 -0.148748D+00 -0.629972D-01  0.114824D+00 -0.155992D+00
     28 -0.580338D-02 -0.122339D-01 -0.112989D-02  0.873432D-02  0.102388D-01
     29 -0.240791D+00 -0.937664D-01 -0.464260D-02 -0.700171D-02 -0.709407D-02
     30 -0.832121D-01 -0.796525D-01  0.614579D-02  0.144185D-01  0.389316D-02
     31 -0.718263D-02 -0.999113D-02 -0.217022D+00 -0.557869D-01 -0.889188D-01
     32 -0.868718D-04  0.798063D-02 -0.583838D-01 -0.740535D-01 -0.413194D-01
     33  0.100102D-01  0.354791D-02 -0.775345D-01 -0.421303D-01 -0.827794D-01
     34 -0.841433D-03 -0.105053D-02  0.624403D-02 -0.542074D-02 -0.899577D-03
     35 -0.208416D-02 -0.264700D-02  0.221468D-01 -0.100916D-01 -0.318351D-04
     36 -0.409766D-02  0.244964D-02  0.631040D-02 -0.139194D-02  0.527882D-02
     37 -0.192337D-03 -0.443091D-03 -0.349306D-02  0.553114D-03 -0.481640D-02
     38  0.386330D-03 -0.563628D-04 -0.561947D-03  0.196948D-02 -0.350096D-02
     39  0.822417D-03  0.363944D-03 -0.507194D-02 -0.514978D-03  0.802999D-02
               16            17            18            19            20 
     16  0.738398D+00
     17 -0.372225D-01  0.517084D+00
     18  0.178276D+00  0.108594D+00  0.230983D+00
     19  0.696729D-03 -0.200232D-03  0.534285D-03  0.251630D+00
     20  0.108321D-03  0.569833D-03  0.678995D-03 -0.139654D+00  0.147096D+00
     21 -0.100174D-02 -0.238126D-02 -0.247499D-02  0.109905D-01  0.956021D-02
     22 -0.216194D-02  0.450647D-02  0.469142D-03  0.656608D-03 -0.923458D-03
     23  0.309971D-02 -0.226508D-02 -0.538217D-03 -0.610886D-03  0.215794D-04
     24 -0.611913D-03 -0.131039D-02  0.169333D-02  0.218757D-02  0.253528D-02
     25  0.685843D-02  0.834510D-02 -0.386359D-03 -0.332465D-02 -0.142228D-02
     26 -0.401907D-02 -0.461477D-01  0.340872D-01 -0.563510D-03  0.269199D-05
     27 -0.344007D-02  0.491977D-02  0.636446D-02  0.178374D-02  0.106884D-02
     28 -0.536581D-03 -0.208261D-02  0.662480D-03  0.432428D-03  0.746198D-03
     29  0.836559D-03  0.168567D-03 -0.455705D-03 -0.752645D-03  0.201433D-03
     30 -0.321348D-02  0.178063D-04  0.140878D-02  0.117314D-03  0.264097D-03
     31  0.143780D-02  0.937142D-03  0.200297D-02 -0.209189D-03 -0.212453D-03
     32 -0.235099D-01 -0.729515D-03 -0.109275D-01  0.166210D-03  0.124722D-03
     33 -0.626593D-02 -0.140669D-03 -0.158770D-02  0.636874D-03  0.405734D-03
     34 -0.219242D+00  0.134026D+00 -0.112446D-01 -0.812354D-04  0.322228D-04
     35  0.138697D+00 -0.159863D+00 -0.375975D-02  0.395569D-04 -0.338276D-04
     36 -0.121208D-01 -0.668388D-02 -0.403781D-01  0.372937D-03  0.519454D-03
     37  0.888388D-03 -0.278572D-01 -0.114446D-01  0.589531D-04  0.122053D-02
     38  0.103116D-02 -0.641747D-02 -0.347879D-02 -0.126623D-03 -0.755604D-03
     39 -0.140464D-02 -0.131890D-01 -0.130619D-02 -0.153071D-03  0.149276D-03
               21            22            23            24            25 
     21  0.292055D-01
     22  0.183761D-02  0.268242D+00
     23  0.244817D-02  0.854309D-01  0.919291D-01
     24 -0.546921D-02  0.101421D+00  0.487093D-01  0.727981D-01
     25 -0.862099D-05  0.104721D-02  0.957618D-03 -0.293844D-02  0.217185D+00
     26  0.167599D-03  0.626535D-04  0.810924D-03 -0.163515D-03 -0.213400D-01
     27 -0.216714D-02  0.298349D-03  0.738099D-03  0.483849D-04 -0.835530D-01
     28  0.316258D-03 -0.118357D-03 -0.152378D-02 -0.473921D-04 -0.999309D-02
     29  0.284879D-04  0.115272D-03 -0.376062D-03 -0.931667D-04  0.675410D-02
     30 -0.119507D-03  0.735170D-04 -0.485986D-03 -0.213576D-03  0.194859D-01
     31 -0.515615D-03 -0.264291D-05 -0.911264D-04  0.488116D-04  0.124415D-02
     32  0.128205D-03 -0.117700D-03  0.131089D-03 -0.987913D-04  0.226256D-01
     33  0.303371D-03 -0.162107D-04  0.110160D-03 -0.122738D-03 -0.323353D-01
     34  0.418111D-03 -0.982002D-03  0.884937D-03  0.135344D-03  0.250785D-03
     35  0.486278D-03 -0.460359D-03  0.304431D-03 -0.120788D-03  0.491062D-03
     36 -0.114964D-02 -0.542488D-03  0.473455D-03  0.764582D-04  0.224924D-03
     37  0.584817D-03  0.678723D-03 -0.918916D-03  0.957534D-04  0.503285D-03
     38 -0.363722D-03  0.238268D-03  0.487569D-03  0.548150D-03 -0.916516D-04
     39  0.955518D-04  0.533149D-03  0.198491D-03 -0.731837D-03  0.726568D-03
               26            27            28            29            30 
     26  0.198548D+00
     27 -0.109917D+00  0.337045D+00
     28  0.208070D-01  0.197151D-01  0.634570D-01
     29  0.957280D-02 -0.912401D-04 -0.772925D-03  0.242263D+00
     30 -0.280921D-01 -0.241651D-01 -0.602002D-02  0.103931D+00  0.100628D+00
     31  0.943648D-02 -0.534670D-02  0.322630D-03  0.327934D-03  0.241000D-03
     32  0.138800D-03  0.189587D-01  0.317622D-03  0.506046D-03 -0.687384D-03
     33  0.100578D-01 -0.259708D-01 -0.716121D-03  0.187981D-04 -0.306903D-03
     34 -0.300221D-03  0.575255D-03  0.945125D-04 -0.961172D-04  0.195662D-03
     35 -0.354815D-02  0.206635D-02  0.248130D-03 -0.186759D-03  0.747141D-03
     36  0.633598D-04 -0.219206D-02  0.262749D-03 -0.446835D-03  0.311042D-03
     37  0.902340D-03  0.611046D-03  0.178005D-03 -0.331099D-04  0.119927D-03
     38  0.126135D-02  0.473531D-03 -0.645393D-04 -0.491963D-04  0.134823D-04
     39 -0.285647D-02  0.141757D-03 -0.982685D-04  0.148003D-04 -0.123110D-03
               31            32            33            34            35 
     31  0.220908D+00
     32  0.513130D-01  0.797749D-01
     33  0.103602D+00  0.270057D-01  0.105665D+00
     34  0.218459D-03  0.676851D-03  0.212924D-03  0.234367D+00
     35 -0.823615D-03  0.421372D-03  0.153203D-03 -0.144845D+00  0.164146D+00
     36 -0.374227D-04  0.319084D-03 -0.125401D-03  0.153605D-01  0.591674D-02
     37  0.600976D-04 -0.148129D-02 -0.444752D-03  0.395483D-03 -0.697698D-03
     38  0.165792D-03 -0.541732D-03 -0.611283D-04 -0.999540D-03  0.284019D-03
     39 -0.704545D-04 -0.110475D-03 -0.226354D-03  0.197794D-02  0.269061D-02
               36            37            38            39 
     36  0.294191D-01
     37  0.199118D-02  0.581182D-01
     38  0.232110D-02  0.178478D-01  0.305955D+00
     39 -0.547054D-02  0.157851D-01  0.106655D+00  0.688966D-01
 FormGI is forming the generalized inverse of G from B-inverse, IUseBI=4.
 Leave Link  716 at Sun Apr  3 21:28:09 2022, MaxMem=  1073741824 cpu:               0.3 elap:               0.1
 (Enter /home/saurabh/g16/l103.exe)

 GradGradGradGradGradGradGradGradGradGradGradGradGradGradGradGradGradGrad
 Berny optimization.
 Red2BG is reusing G-inverse.
 Internal  Forces:  Max     0.021514362 RMS     0.007502435
 Search for a local minimum.
 Step number   1 out of a maximum of  100
 All quantities printed in internal units (Hartrees-Bohrs-Radians)
 RMS Force = .75024D-02 SwitMx=.10000D-02 MixMth= 1
 Mixed Optimization -- RFO/linear search
 Second derivative matrix not updated -- analytic derivatives used.
 ITU=  0
     Eigenvalues ---    0.00782   0.00908   0.01614   0.01763   0.01985
     Eigenvalues ---    0.02137   0.02545   0.03021   0.03326   0.09299
     Eigenvalues ---    0.09711   0.10691   0.10913   0.11944   0.12066
     Eigenvalues ---    0.14340   0.16062   0.17783   0.17839   0.21718
     Eigenvalues ---    0.22608   0.27388   0.28306   0.29555   0.29954
     Eigenvalues ---    0.31207   0.32665   0.34945   0.34949   0.34992
     Eigenvalues ---    0.35058   0.53909   0.54490
 RFO step:  Lambda=-2.42885675D-02 EMin= 7.81596806D-03
 Linear search not attempted -- first point.
 Iteration  1 RMS(Cart)=  0.05759104 RMS(Int)=  0.00453682
 Iteration  2 RMS(Cart)=  0.00425585 RMS(Int)=  0.00239938
 Iteration  3 RMS(Cart)=  0.00001526 RMS(Int)=  0.00239932
 Iteration  4 RMS(Cart)=  0.00000004 RMS(Int)=  0.00239932
 ITry= 1 IFail=0 DXMaxC= 1.63D-01 DCOld= 1.00D+10 DXMaxT= 3.00D-01 DXLimC= 3.00D+00 Rises=F
 Variable       Old X    -DE/DX   Delta X   Delta X   Delta X     New X
                                 (Linear)    (Quad)   (Total)
    R1        2.79948  -0.01711   0.00000  -0.06282  -0.06450   2.73498
    R2        2.53815  -0.00282   0.00000   0.00205   0.00117   2.53932
    R3        2.05112  -0.00262   0.00000  -0.00584  -0.00584   2.04528
    R4        2.53815  -0.00282   0.00000   0.00206   0.00117   2.53932
    R5        2.05112  -0.00262   0.00000  -0.00584  -0.00584   2.04528
    R6        2.84734  -0.01576   0.00000  -0.07273  -0.07195   2.77538
    R7        2.05093  -0.00205   0.00000  -0.00595  -0.00595   2.04497
    R8        2.82659   0.00422   0.00000   0.00544   0.00617   2.83275
    R9        2.65792   0.02151   0.00000   0.05531   0.05581   2.71373
   R10        2.09681  -0.01545   0.00000  -0.04905  -0.04905   2.04776
   R11        2.84734  -0.01576   0.00000  -0.07273  -0.07195   2.77538
   R12        2.65792   0.02151   0.00000   0.05531   0.05581   2.71373
   R13        2.09681  -0.01545   0.00000  -0.04905  -0.04905   2.04776
   R14        2.05093  -0.00205   0.00000  -0.00595  -0.00595   2.04497
    A1        2.11698   0.00251   0.00000   0.00639   0.00472   2.12171
    A2        2.07978  -0.00284   0.00000  -0.01352  -0.01319   2.06660
    A3        2.08634   0.00028   0.00000   0.00655   0.00683   2.09317
    A4        2.11698   0.00251   0.00000   0.00640   0.00473   2.12171
    A5        2.07979  -0.00284   0.00000  -0.01352  -0.01319   2.06660
    A6        2.08634   0.00028   0.00000   0.00655   0.00683   2.09317
    A7        2.11930  -0.00279   0.00000  -0.01281  -0.01179   2.10751
    A8        2.08607   0.00420   0.00000   0.02122   0.02072   2.10679
    A9        2.07780  -0.00140   0.00000  -0.00841  -0.00893   2.06887
   A10        2.04685   0.00021   0.00000   0.00558   0.00344   2.05029
   A11        1.90059   0.00959   0.00000   0.09455   0.09416   1.99474
   A12        2.10006  -0.00401   0.00000  -0.01890  -0.02820   2.07185
   A13        2.12952   0.00226   0.00000  -0.01004  -0.01866   2.11086
   A14        1.86982  -0.00045   0.00000   0.06019   0.05869   1.92851
   A15        2.04684   0.00022   0.00000   0.00559   0.00345   2.05029
   A16        2.12954   0.00225   0.00000  -0.01006  -0.01868   2.11086
   A17        1.90061   0.00959   0.00000   0.09455   0.09415   1.99476
   A18        2.10005  -0.00401   0.00000  -0.01889  -0.02820   2.07185
   A19        1.86980  -0.00045   0.00000   0.06020   0.05869   1.92849
   A20        2.11930  -0.00279   0.00000  -0.01281  -0.01180   2.10751
   A21        2.08607   0.00420   0.00000   0.02122   0.02072   2.10679
   A22        2.07779  -0.00140   0.00000  -0.00841  -0.00892   2.06887
    D1       -0.00001   0.00000   0.00000   0.00000   0.00000  -0.00001
    D2       -3.12833   0.00327   0.00000   0.05046   0.04960  -3.07872
    D3        3.12828  -0.00327   0.00000  -0.05045  -0.04959   3.07869
    D4       -0.00004   0.00000   0.00000   0.00001   0.00001  -0.00003
    D5       -0.01215  -0.00655   0.00000  -0.08308  -0.08236  -0.09451
    D6        3.12255  -0.00613   0.00000  -0.08298  -0.08223   3.04032
    D7       -3.14039  -0.00325   0.00000  -0.03230  -0.03188   3.11092
    D8       -0.00569  -0.00283   0.00000  -0.03220  -0.03175  -0.03744
    D9        0.01214   0.00655   0.00000   0.08308   0.08237   0.09451
   D10       -3.12255   0.00613   0.00000   0.08298   0.08222  -3.04033
   D11        3.14041   0.00325   0.00000   0.03229   0.03188  -3.11090
   D12        0.00572   0.00283   0.00000   0.03218   0.03173   0.03745
   D13       -0.01165  -0.00629   0.00000  -0.07987  -0.07909  -0.09074
   D14        1.08583   0.00231   0.00000  -0.02759  -0.02904   1.05679
   D15       -3.03104   0.00742   0.00000   0.13093   0.13026  -2.90079
   D16        3.12307  -0.00584   0.00000  -0.07965  -0.07883   3.04424
   D17       -2.06263   0.00275   0.00000  -0.02737  -0.02878  -2.09141
   D18        0.10368   0.00786   0.00000   0.13115   0.13051   0.23419
   D19       -0.00003   0.00000   0.00000   0.00001   0.00001  -0.00002
   D20       -3.01722   0.01443   0.00000   0.21527   0.21495  -2.80227
   D21        3.01715  -0.01443   0.00000  -0.21523  -0.21492   2.80223
   D22       -0.00004   0.00000   0.00000   0.00002   0.00002  -0.00002
   D23        0.01170   0.00628   0.00000   0.07985   0.07907   0.09076
   D24       -3.12303   0.00584   0.00000   0.07964   0.07882  -3.04421
   D25       -1.08579  -0.00231   0.00000   0.02757   0.02902  -1.05677
   D26        2.06266  -0.00275   0.00000   0.02736   0.02877   2.09144
   D27        3.03110  -0.00742   0.00000  -0.13095  -0.13028   2.90081
   D28       -0.10363  -0.00787   0.00000  -0.13116  -0.13053  -0.23416
         Item               Value     Threshold  Converged?
 Maximum Force            0.021514     0.000450     NO 
 RMS     Force            0.007502     0.000300     NO 
 Maximum Displacement     0.163095     0.001800     NO 
 RMS     Displacement     0.059473     0.001200     NO 
 Predicted change in Energy=-1.553023D-02
 Lowest energy point so far.  Saving SCF results.
 GradGradGradGradGradGradGradGradGradGradGradGradGradGradGradGradGradGrad

 Leave Link  103 at Sun Apr  3 21:28:09 2022, MaxMem=  1073741824 cpu:               0.2 elap:               0.1
 (Enter /home/saurabh/g16/l202.exe)
                          Input orientation:                          
 ---------------------------------------------------------------------
 Center     Atomic      Atomic             Coordinates (Angstroms)
 Number     Number       Type             X           Y           Z
 ---------------------------------------------------------------------
      1          6           0       -0.027840    0.204465   -0.691589
      2          6           0       -1.192364    1.063411   -0.718852
      3          6           0       -1.158234    2.310720   -0.220131
      4          6           0        0.100279    2.890781    0.266351
      5          6           0        1.306436    2.001133    0.294574
      6          6           0        1.138243    0.616855   -0.166373
      7          1           0       -2.058995    2.907678   -0.162428
      8          1           0       -2.121342    0.659429   -1.099911
      9          8           0        1.128934    2.990863   -0.730682
     10          1           0        0.060593    3.794741    0.862617
     11          1           0        2.163420    2.243732    0.911805
     12          1           0        1.972205   -0.065712   -0.068052
     13          1           0       -0.128226   -0.810694   -1.053228
 ---------------------------------------------------------------------
                    Distance matrix (angstroms):
                    1          2          3          4          5
     1  C    0.000000
     2  C    1.447289   0.000000
     3  C    2.436468   1.343751   0.000000
     4  C    2.854883   2.445574   1.468669   0.000000
     5  C    2.445573   2.854883   2.536802   1.499028   0.000000
     6  C    1.343751   2.436467   2.854098   2.536801   1.468669
     7  H    3.422420   2.112339   1.082154   2.201499   3.515223
     8  H    2.180933   1.082316   2.104365   3.432375   3.936295
     9  O    3.017229   3.017223   2.440163   1.436044   1.436044
    10  H    3.913241   3.395748   2.204586   1.083629   2.256507
    11  H    3.395749   3.913245   3.509865   2.256510   1.083629
    12  H    2.112339   3.422419   3.933218   3.515222   2.201499
    13  H    1.082316   2.180932   3.390899   3.936295   3.432375
                    6          7          8          9         10
     6  C    0.000000
     7  H    3.933219   0.000000
     8  H    3.390899   2.436674   0.000000
     9  O    2.440174   3.239247   4.016989   0.000000
    10  H    3.509859   2.515998   4.294477   2.079945   0.000000
    11  H    2.204584   4.407220   4.991613   2.079936   2.613414
    12  H    1.082154   5.010042   4.283420   3.239265   4.407210
    13  H    2.104365   4.283419   2.477085   4.017005   4.991607
                   11         12         13
    11  H    0.000000
    12  H    2.515992   0.000000
    13  H    4.294476   2.436674   0.000000
 Stoichiometry    C6H6O
 Framework group  C1[X(C6H6O)]
 Deg. of freedom    33
 Full point group                 C1      NOp   1
 RotChk:  IX=3 Diff= 4.90D-02
 Largest Abelian subgroup         C1      NOp   1
 Largest concise Abelian subgroup C1      NOp   1
                         Standard orientation:                         
 ---------------------------------------------------------------------
 Center     Atomic      Atomic             Coordinates (Angstroms)
 Number     Number       Type             X           Y           Z
 ---------------------------------------------------------------------
      1          6           0       -1.434423    0.723638    0.102186
      2          6           0       -1.434413   -0.723652    0.102187
      3          6           0       -0.320322   -1.427050   -0.161817
      4          6           0        0.969765   -0.749506   -0.345124
      5          6           0        0.969758    0.749522   -0.345111
      6          6           0       -0.320338    1.427049   -0.161815
      7          1           0       -0.355282   -2.505022   -0.250192
      8          1           0       -2.372710   -1.238556    0.263064
      9          8           0        1.411002   -0.000001    0.797580
     10          1           0        1.793933   -1.306690   -0.774712
     11          1           0        1.793927    1.306724   -0.774671
     12          1           0       -0.355313    2.505020   -0.250199
     13          1           0       -2.372730    1.238529    0.263037
 ---------------------------------------------------------------------
 Rotational constants (GHZ):           4.6220821           3.6182366           2.3124083
 Leave Link  202 at Sun Apr  3 21:28:09 2022, MaxMem=  1073741824 cpu:               0.1 elap:               0.0
 (Enter /home/saurabh/g16/l301.exe)
 Standard basis: CC-pVTZ (5D, 7F)
 Ernie: Thresh=  0.10000D-02 Tol=  0.10000D-05 Strict=F.
 Ernie:  21 primitive shells out of 230 were deleted.
 There are   335 symmetry adapted cartesian basis functions of A   symmetry.
 There are   294 symmetry adapted basis functions of A   symmetry.
   294 basis functions,   466 primitive gaussians,   335 cartesian basis functions
    25 alpha electrons       25 beta electrons
       nuclear repulsion energy       281.5947789888 Hartrees.
 IExCor=  402 DFT=T Ex+Corr=B3LYP ExCW=0 ScaHFX=  0.200000
 ScaDFX=  0.800000  0.720000  1.000000  0.810000 ScalE2=  1.000000  1.000000
 IRadAn=      5 IRanWt=     -1 IRanGd=            0 ICorTp=0 IEmpDi=  4
 NAtoms=   13 NActive=   13 NUniq=   13 SFac= 1.00D+00 NAtFMM=   60 NAOKFM=F Big=F
 Integral buffers will be    131072 words long.
 Raffenetti 2 integral format.
 Two-electron integral symmetry is turned on.
 Leave Link  301 at Sun Apr  3 21:28:09 2022, MaxMem=  1073741824 cpu:               0.4 elap:               0.1
 (Enter /home/saurabh/g16/l302.exe)
 NPDir=0 NMtPBC=     1 NCelOv=     1 NCel=       1 NClECP=     1 NCelD=      1
         NCelK=      1 NCelE2=     1 NClLst=     1 CellRange=     0.0.
 One-electron integrals computed using PRISM.
 One-electron integral symmetry used in STVInt
 NBasis=   294 RedAO= T EigKep=  4.08D-05  NBF=   294
 NBsUse=   294 1.00D-06 EigRej= -1.00D+00 NBFU=   294
 Precomputing XC quadrature grid using
 IXCGrd= 4 IRadAn=           5 IRanWt=          -1 IRanGd=           0 AccXCQ= 0.00D+00.
 Generated NRdTot=       0 NPtTot=           0 NUsed=           0 NTot=          32
 NSgBfM=   335   335   335   335   335 MxSgAt=    13 MxSgA2=    13.
 Leave Link  302 at Sun Apr  3 21:28:09 2022, MaxMem=  1073741824 cpu:               2.1 elap:               0.3
 (Enter /home/saurabh/g16/l303.exe)
 DipDrv:  MaxL=1.
 Leave Link  303 at Sun Apr  3 21:28:09 2022, MaxMem=  1073741824 cpu:               0.3 elap:               0.1
 (Enter /home/saurabh/g16/l401.exe)
 Initial guess from the checkpoint file:  "Mol_04.chk"
 B after Tr=    -0.000000   -0.000000    0.000000
         Rot=    0.999941    0.000001   -0.010872   -0.000003 Ang=   1.25 deg.
 Guess basis will be translated and rotated to current coordinates.
 JPrj=2 DoOrth=T DoCkMO=T.
 Generating alternative initial guess.
 ExpMin= 1.03D-01 ExpMax= 1.53D+04 ExpMxC= 5.22D+02 IAcc=3 IRadAn=         5 AccDes= 0.00D+00
 Harris functional with IExCor=  402 and IRadAn=       5 diagonalized for initial guess.
 HarFok:  IExCor=  402 AccDes= 0.00D+00 IRadAn=         5 IDoV= 1 UseB2=F ITyADJ=14
 ICtDFT=  3500011 ScaDFX=  1.000000  1.000000  1.000000  1.000000
 FoFCou: FMM=F IPFlag=           0 FMFlag=      100000 FMFlg1=           0
         NFxFlg=           0 DoJE=T BraDBF=F KetDBF=T FulRan=T
         wScrn=  0.000000 ICntrl=       500 IOpCl=  0 I1Cent=   200000004 NGrid=           0
         NMat0=    1 NMatS0=      1 NMatT0=    0 NMatD0=    1 NMtDS0=    0 NMtDT0=    0
 Petite list used in FoFCou.
 Harris En= -307.530407026803    
 Leave Link  401 at Sun Apr  3 21:28:11 2022, MaxMem=  1073741824 cpu:              14.4 elap:               1.8
 (Enter /home/saurabh/g16/l502.exe)
 Integral symmetry usage will be decided dynamically.
 Closed shell SCF:
 Using DIIS extrapolation, IDIIS=  1040.
 NGot=  1073741824 LenX=  1073511416 LenY=  1073398750
 Requested convergence on RMS density matrix=1.00D-08 within1000 cycles.
 Requested convergence on MAX density matrix=1.00D-06.
 Requested convergence on             energy=1.00D-06.
 No special actions if energy rises.
 Fock matrices will be formed incrementally for  20 cycles.
 Integral accuracy reduced to 1.0D-05 until final iterations.

 Cycle   1  Pass 0  IDiag  1:
 FoFJK:  IHMeth= 1 ICntrl=       0 DoSepK=F KAlg= 0 I1Cent=           0 FoldK=F
 IRaf= 980000000 NMat=       1 IRICut=       1 DoRegI=T DoRafI=F ISym2E= 0 IDoP0=0 IntGTp=1.
 FoFCou: FMM=F IPFlag=           0 FMFlag=      100000 FMFlg1=           0
         NFxFlg=           0 DoJE=F BraDBF=F KetDBF=F FulRan=T
         wScrn=  0.000000 ICntrl=         0 IOpCl=  0 I1Cent=           0 NGrid=           0
         NMat0=    1 NMatS0=      1 NMatT0=    0 NMatD0=    1 NMtDS0=    0 NMtDT0=    0
 Symmetry not used in FoFCou.
 E= -307.495487861359    
 DIIS: error= 4.39D-03 at cycle   1 NSaved=   1.
 NSaved= 1 IEnMin= 1 EnMin= -307.495487861359     IErMin= 1 ErrMin= 4.39D-03
 ErrMax= 4.39D-03  0.00D+00 EMaxC= 1.00D-01 BMatC= 8.25D-03 BMatP= 8.25D-03
 IDIUse=3 WtCom= 9.56D-01 WtEn= 4.39D-02
 Coeff-Com:  0.100D+01
 Coeff-En:   0.100D+01
 Coeff:      0.100D+01
 Gap=     0.816 Goal=   None    Shift=    0.000
 GapD=    0.816 DampG=2.000 DampE=1.000 DampFc=2.0000 IDamp=-1.
 RMSDP=7.48D-04 MaxDP=1.60D-02              OVMax= 3.80D-02

 Cycle   2  Pass 0  IDiag  1:
 RMSU=  7.47D-04    CP:  1.00D+00
 E= -307.505525144791     Delta-E=       -0.010037283432 Rises=F Damp=F
 DIIS: error= 1.01D-03 at cycle   2 NSaved=   2.
 NSaved= 2 IEnMin= 2 EnMin= -307.505525144791     IErMin= 2 ErrMin= 1.01D-03
 ErrMax= 1.01D-03  0.00D+00 EMaxC= 1.00D-01 BMatC= 4.89D-04 BMatP= 8.25D-03
 IDIUse=3 WtCom= 9.90D-01 WtEn= 1.01D-02
 Coeff-Com:  0.456D-01 0.954D+00
 Coeff-En:   0.000D+00 0.100D+01
 Coeff:      0.451D-01 0.955D+00
 Gap=     0.186 Goal=   None    Shift=    0.000
 RMSDP=1.24D-04 MaxDP=3.74D-03 DE=-1.00D-02 OVMax= 1.05D-02

 Cycle   3  Pass 0  IDiag  1:
 RMSU=  1.13D-04    CP:  1.00D+00  1.07D+00
 E= -307.505078927516     Delta-E=        0.000446217275 Rises=F Damp=F
 DIIS: error= 1.65D-03 at cycle   3 NSaved=   3.
 NSaved= 3 IEnMin= 2 EnMin= -307.505525144791     IErMin= 2 ErrMin= 1.01D-03
 ErrMax= 1.65D-03  0.00D+00 EMaxC= 1.00D-01 BMatC= 1.25D-03 BMatP= 4.89D-04
 IDIUse=3 WtCom= 1.98D-01 WtEn= 8.02D-01
 Coeff-Com: -0.252D-01 0.635D+00 0.390D+00
 Coeff-En:   0.000D+00 0.654D+00 0.346D+00
 Coeff:     -0.498D-02 0.650D+00 0.355D+00
 Gap=     0.186 Goal=   None    Shift=    0.000
[...]
 ! A5    A(1,2,8)              118.1933         -DE/DX =    0.0                 !
 ! A6    A(3,2,8)              119.9335         -DE/DX =    0.0                 !
 ! A7    A(2,3,4)              120.6139         -DE/DX =    0.0                 !
 ! A8    A(2,3,7)              120.9421         -DE/DX =    0.0                 !
 ! A9    A(4,3,7)              118.4231         -DE/DX =    0.0                 !
 ! A10   A(3,4,5)              117.229          -DE/DX =    0.0                 !
 ! A11   A(3,4,9)              117.2176         -DE/DX =    0.0                 !
 ! A12   A(3,4,10)             118.1144         -DE/DX =    0.0                 !
 ! A13   A(5,4,10)             118.7683         -DE/DX =    0.0                 !
 ! A14   A(9,4,10)             113.2761         -DE/DX =    0.0                 !
 ! A15   A(4,5,6)              117.229          -DE/DX =    0.0                 !
 ! A16   A(4,5,11)             118.7683         -DE/DX =    0.0                 !
 ! A17   A(6,5,9)              117.2176         -DE/DX =    0.0                 !
 ! A18   A(6,5,11)             118.1144         -DE/DX =    0.0                 !
 ! A19   A(9,5,11)             113.2761         -DE/DX =    0.0                 !
 ! A20   A(1,6,5)              120.6139         -DE/DX =    0.0                 !
 ! A21   A(1,6,12)             120.9421         -DE/DX =    0.0                 !
 ! A22   A(5,6,12)             118.4231         -DE/DX =    0.0                 !
 ! D1    D(6,1,2,3)              0.0            -DE/DX =    0.0                 !
 ! D2    D(6,1,2,8)           -173.1354         -DE/DX =    0.0                 !
 ! D3    D(13,1,2,3)           173.1354         -DE/DX =    0.0                 !
 ! D4    D(13,1,2,8)             0.0            -DE/DX =    0.0                 !
 ! D5    D(2,1,6,5)             -9.4284         -DE/DX =    0.0                 !
 ! D6    D(2,1,6,12)           168.8827         -DE/DX =    0.0                 !
 ! D7    D(13,1,6,5)           177.5536         -DE/DX =    0.0                 !
 ! D8    D(13,1,6,12)           -4.1353         -DE/DX =    0.0                 !
 ! D9    D(1,2,3,4)              9.4284         -DE/DX =    0.0                 !
 ! D10   D(1,2,3,7)           -168.8827         -DE/DX =    0.0                 !
 ! D11   D(8,2,3,4)           -177.5536         -DE/DX =    0.0                 !
 ! D12   D(8,2,3,7)              4.1353         -DE/DX =    0.0                 !
 ! D13   D(2,3,4,5)             -9.036          -DE/DX =    0.0                 !
 ! D14   D(2,3,4,9)             57.1372         -DE/DX =    0.0                 !
 ! D15   D(2,3,4,10)          -161.7307         -DE/DX =    0.0                 !
 ! D16   D(7,3,4,5)            169.317          -DE/DX =    0.0                 !
 ! D17   D(7,3,4,9)           -124.5098         -DE/DX =    0.0                 !
 ! D18   D(7,3,4,10)            16.6223         -DE/DX =    0.0                 !
 ! D19   D(3,4,5,6)              0.0            -DE/DX =    0.0                 !
 ! D20   D(3,4,5,11)          -152.5111         -DE/DX =    0.0                 !
 ! D21   D(10,4,5,6)           152.5111         -DE/DX =    0.0                 !
 ! D22   D(10,4,5,11)            0.0            -DE/DX =    0.0                 !
 ! D23   D(4,5,6,1)              9.036          -DE/DX =    0.0                 !
 ! D24   D(4,5,6,12)          -169.317          -DE/DX =    0.0                 !
 ! D25   D(9,5,6,1)            -57.1372         -DE/DX =    0.0                 !
 ! D26   D(9,5,6,12)           124.5098         -DE/DX =    0.0                 !
 ! D27   D(11,5,6,1)           161.7307         -DE/DX =    0.0                 !
 ! D28   D(11,5,6,12)          -16.6223         -DE/DX =    0.0                 !
 --------------------------------------------------------------------------------
 GradGradGradGradGradGradGradGradGradGradGradGradGradGradGradGradGradGrad

 Leave Link  103 at Sun Apr  3 21:41:08 2022, MaxMem=  1073741824 cpu:               0.1 elap:               0.0
 (Enter /home/saurabh/g16/l9999.exe)

 ----------------------------------------------------------------------

 Electric dipole moment (input orientation):
 (Debye = 10**-18 statcoulomb cm , SI units = C m)
                  (au)            (Debye)         (10**-30 SI)
   Tot        0.734827D+00      0.186774D+01      0.623012D+01
   x         -0.284163D+00     -0.722271D+00     -0.240924D+01
   y         -0.367182D+00     -0.933283D+00     -0.311310D+01
   z          0.569561D+00      0.144768D+01      0.482894D+01

 Dipole polarizability, Alpha (input orientation).
 (esu units = cm**3 , SI units = C**2 m**2 J**-1)
 Alpha(0;0):
               (au)            (10**-24 esu)      (10**-40 SI)
   iso        0.651404D+02      0.965281D+01      0.107402D+02
   aniso      0.364298D+02      0.539833D+01      0.600646D+01
   xx         0.756525D+02      0.112105D+02      0.124734D+02
   yx        -0.341384D+01     -0.505879D+00     -0.562867D+00
   yy         0.740213D+02      0.109688D+02      0.122045D+02
   zx         0.770614D+01      0.114193D+01      0.127057D+01
   zy         0.941297D+01      0.139486D+01      0.155199D+01
   zz         0.457473D+02      0.677906D+01      0.754272D+01

 ----------------------------------------------------------------------

 Dipole orientation:
     6         -0.60558875         -0.32557079         -1.24092243
     6         -2.81420729          1.28074590         -1.24092231
     6         -2.63852311          3.78442793         -1.66433114
     6         -0.25866521          4.90474594         -2.52073314
     6          2.05482767          3.22215479         -2.52073307
     6          1.72218984          0.61290430         -1.66433121
     1         -4.23258469          5.02137799         -1.33201223
     1         -4.60332962          0.46356342         -0.68039377
     8          0.80885079          3.94076216         -4.81203829
     1         -0.00777699          6.92684011         -2.29823578
     1          3.90127380          4.08380802         -2.29823545
     1          3.39007447         -0.52254217         -1.33201234
     1         -0.83182963         -2.27942878         -0.68039395

 Electric dipole moment (dipole orientation):
 (Debye = 10**-18 statcoulomb cm , SI units = C m)
                  (au)            (Debye)         (10**-30 SI)
   Tot        0.734827D+00      0.186774D+01      0.623012D+01
   x          0.000000D+00      0.000000D+00      0.000000D+00
   y          0.000000D+00      0.000000D+00      0.000000D+00
   z          0.734827D+00      0.186774D+01      0.623012D+01

 Dipole polarizability, Alpha (dipole orientation).
 (esu units = cm**3 , SI units = C**2 m**2 J**-1)
 Alpha(0;0):
               (au)            (10**-24 esu)      (10**-40 SI)
   iso        0.651404D+02      0.965281D+01      0.107402D+02
   aniso      0.364298D+02      0.539833D+01      0.600646D+01
   xx         0.765072D+02      0.113372D+02      0.126143D+02
   yx        -0.253511D+01     -0.375664D+00     -0.417983D+00
   yy         0.748653D+02      0.110939D+02      0.123436D+02
   zx        -0.592963D+01     -0.878681D+00     -0.977665D+00
   zy        -0.815300D+01     -0.120815D+01     -0.134425D+01
   zz         0.440487D+02      0.652735D+01      0.726266D+01

 ----------------------------------------------------------------------
 Unable to Open any file for archive entry.
 1\1\GINC-HEL01\Freq\RB3LYP\CC-pVTZ\C6H6O1\SAURABH\03-Apr-2022\0\\#P Ge
 om=AllCheck Guess=TCheck SCRF=Check GenChk RB3LYP/CC-pVTZ Freq\\Mol_04
 \\0,1\C,-0.0207734742,0.2149604922,-0.7189938583\C,-1.1835942368,1.072
 6489239,-0.7462135137\C,-1.156037134,2.3130195494,-0.2219007093\C,0.10
 79499817,2.9118367612,0.2100780974\C,1.3259862379,2.0134217282,0.23859
 0365\C,1.1398448331,0.6195930809,-0.1681579303\H,-2.0677730123,2.87946
 7327,-0.0847231577\H,-2.1182282623,0.6558867347,-1.0985067159\O,1.1496
 801862,3.0178485287,-0.7661749796\H,0.0675162515,3.7580848584,0.887364
 7729\H,2.1256014758,2.2400554527,0.9355412892\H,1.9454986607,-0.080693
 8406,0.0092208151\H,-0.1325623783,-0.8087264954,-1.0520256451\\Version
 =EM64L-G16RevC.01\State=1-A\HF=-307.5082454\RMSD=2.996e-09\RMSF=1.907e
 -05\ZeroPoint=0.1037878\Thermal=0.1089493\ETot=-307.3992961\HTot=-307.
 3983519\GTot=-307.4330641\Dipole=-0.2841632,-0.3671818,0.569561\Dipole
 Deriv=-0.0398707,-0.0815456,0.0298381,-0.0861909,0.1580433,0.0673014,-
 0.0626319,0.0637879,-0.1077181,0.1837398,-0.01312,0.064653,-0.0106518,
 -0.0697978,0.0472512,0.0885232,-0.0422404,-0.1034874,0.0490034,0.01476
 41,0.0081463,0.0484508,-0.1047142,0.0301191,0.0384617,-0.0232119,-0.20
 0093,0.1072994,0.066227,-0.0453488,0.126011,0.4236575,0.0983639,-0.167
 0315,0.0503251,0.3469211,0.3357506,0.2050895,0.1024636,0.1411715,0.185
 7637,-0.0063622,0.0938835,-0.1349289,0.3563636,-0.1090232,-0.0006293,0
 .0291589,-0.0352307,0.0543362,0.009933,-0.0299823,0.0241831,-0.2011167
 ,-0.0577019,0.068362,0.0032362,0.0680528,0.024113,-0.0414952,-0.002139
 4,-0.0185737,0.1232313,-0.0693761,-0.0442102,-0.066425,-0.0534153,0.04
 00296,-0.0438051,-0.0478326,-0.0361191,0.1060806,-0.4124133,-0.2494574
 ,0.0532435,-0.2449786,-0.5573304,0.0621045,0.1943685,0.2534362,-0.5448
 196,0.0345298,0.0060054,0.0224987,-0.0019609,-0.0772192,-0.1293798,0.0
 363286,-0.0888914,0.001066,-0.0617274,-0.0369988,-0.1313691,-0.0275017
 ,0.0257074,-0.0181478,-0.0969655,0.0067568,-0.0056033,-0.0195729,0.078
 4096,-0.0466993,0.0792931,-0.0123326,-0.0037417,-0.0232259,-0.002127,0
 .1215479,0.0593626,-0.0128965,-0.0233963,-0.0030493,-0.0902563,-0.0721
 41,-0.0217564,-0.0523969,0.1076277\Polar=75.6525084,-3.4138432,74.0212
 978,7.7061384,9.4129722,45.7473383\Quadrupole=1.4220065,0.5309968,-1.9
 530033,-1.6586431,2.092143,2.6889562\PG=C01 [X(C6H6O1)]\NImag=0\\0.650
 88116,0.03260235,0.64090425,0.17852949,0.17361499,0.24508218,-0.196934
 03,0.08683268,-0.00812697,0.61618604,0.04165513,-0.15796055,-0.0178539
 2,0.02016292,0.67813040,-0.01951595,-0.00839596,-0.06775762,0.12406133
 ,0.21290009,0.24255116,0.01518153,0.02520034,0.01439250,-0.12003559,0.
 00879185,-0.00486707,0.61342930,0.04395851,-0.03091927,-0.00232751,-0.
 02233519,-0.39730865,-0.14512818,-0.07380875,0.68394416,0.01578108,-0.
 00853706,0.00818718,-0.01933053,-0.14351818,-0.11874665,0.02582089,0.2
 2514568,0.23750027,-0.02886578,0.00703830,-0.01157496,0.01704187,-0.04
 146660,-0.01827650,-0.18320982,-0.02730568,-0.03195828,0.49770832,0.00
 703111,-0.00266932,0.00693654,-0.03360351,-0.00742690,-0.00963232,-0.0
 6326365,-0.12397580,-0.04262700,0.00889219,0.49592953,-0.00865320,0.00
 192605,-0.00931238,-0.00883695,-0.01541085,-0.00611663,-0.04811766,-0.
 03633275,-0.08894002,-0.01484582,0.22493802,0.36797024,0.01632322,-0.0
 3362047,-0.00238074,-0.00935188,0.01363897,0.00973842,-0.03617747,0.00
 408772,-0.01792423,-0.11582462,0.05202098,0.01261369,0.47767023,-0.041
 44210,-0.00704148,-0.02155281,0.01355962,-0.02296973,-0.00829431,0.013
 02226,0.02308635,0.00842213,0.07122772,-0.07914096,-0.05352558,0.01023
 740,0.50484668,-0.01051369,-0.01400285,-0.00578339,0.00408938,-0.00698
 135,-0.00852588,0.00921347,0.01735994,-0.00111670,-0.05935808,-0.00088
 930,-0.02067217,0.22246171,0.04958719,0.37909121,-0.36099585,-0.100627
 34,-0.14236584,-0.04576619,0.02436774,-0.00865267,-0.00721719,-0.01556
 377,-0.00757403,0.01227002,0.02005186,0.01383065,-0.10201914,-0.001889
 58,-0.02088211,0.70639842,-0.06979693,-0.15050151,-0.04898143,0.005465
 72,0.03124507,0.01271708,-0.00764323,-0.01482230,-0.00793909,0.0281024
 4,-0.02616926,0.01535297,-0.03765155,-0.20578513,-0.05526188,-0.038861
 25,0.58181087,-0.13724939,-0.06326375,-0.12459353,-0.01457422,0.012781
 00,0.00697056,-0.00532649,-0.00978227,-0.00245430,0.01311527,-0.013471
 35,-0.00030858,-0.03086555,-0.04059452,-0.08832139,0.22265494,0.082385
 54,0.24666446,0.00142458,-0.00017227,-0.00047580,0.00409392,-0.0026758
 1,-0.00120405,-0.25524803,0.12469819,0.02626517,-0.01554279,0.01528629
 ,0.00349237,-0.00170745,-0.00302169,-0.00128718,0.00066629,-0.00061406
 ,-0.00002271,0.26808012,-0.00231640,-0.00173740,-0.00628550,0.02716163
 ,-0.01380995,-0.00388840,0.12302285,-0.12517390,-0.02767610,-0.0131281
 3,0.00958713,0.00063144,-0.00046199,-0.00270483,-0.00150068,0.00059997
 ,0.00099855,0.00087140,-0.13289316,0.13324263,0.00017716,-0.00620797,0
 .00805994,0.01034857,-0.00273408,0.00579272,0.02332179,-0.03163173,-0.
 04489154,-0.00098451,0.00230581,0.00787618,-0.00657007,0.00550502,0.00
 324533,-0.00199791,-0.00332959,-0.00297513,-0.02818314,0.03267980,0.03
 255691,-0.01769798,-0.01221448,-0.00819995,-0.26391581,-0.08968762,-0.
 08131584,0.00265980,0.00104084,-0.00011172,0.00189234,0.00091867,-0.00
 169968,0.00018004,0.00056085,0.00035231,-0.00220206,0.00458676,0.00002
 983,0.00088724,-0.00084375,0.00116610,0.27781900,0.01784111,0.00948164
 ,0.00601405,-0.08998554,-0.09541508,-0.04065895,-0.02829631,-0.0088515
 3,-0.01009351,0.00243026,-0.00295903,-0.00621424,0.00029852,-0.0009741
 7,-0.00018863,0.00284021,-0.00178487,-0.00030303,0.00002609,-0.0001047
 7,0.00273624,0.09586747,0.09931509,0.00095938,0.00146548,0.00271813,-0
 .07863786,-0.04201496,-0.06983023,-0.01163197,-0.00347787,0.00105359,-
 0.00029586,-0.00517436,0.00805593,0.00086984,0.00081667,-0.00001144,-0
 .00018507,-0.00178377,0.00255942,0.00084006,0.00283803,-0.00527488,0.0
 8967336,0.04751822,0.06234653,-0.00432867,-0.00149464,-0.00022734,0.00
 060929,0.00343826,-0.00033825,-0.03171361,-0.01660060,0.02617405,-0.12
 126699,0.00004612,0.07025184,-0.02922462,-0.01720037,-0.01800478,0.003
 35402,0.01011641,0.00249485,-0.00295461,-0.00249669,0.00147288,0.00057
 048,0.00067642,-0.00230048,0.18724122,0.00204533,0.00114606,-0.0002214
 3,-0.00005763,-0.00362775,-0.00010359,-0.00083723,0.00135461,0.0111163
 3,-0.04143325,-0.03593125,-0.00059779,0.02430765,-0.12177543,0.0676277
 6,-0.00665286,-0.03314043,0.02905129,-0.00005766,0.00020240,0.00041291
 ,0.00008019,0.00073945,-0.00061883,-0.00209610,0.18127042,0.00380441,-
 0.00182389,0.00445920,-0.00298115,0.00338182,0.00429506,-0.00153270,-0
 .00200331,0.00930592,0.11376173,-0.03077419,-0.12514930,-0.06061191,0.
 09902807,-0.13134747,-0.00149412,-0.00080089,0.00873331,0.00018762,0.0
 0071939,-0.00323332,0.00023083,0.00065706,-0.00033468,-0.07176265,-0.0
 9437868,0.27893679,0.00051594,0.00122060,0.00029027,-0.00592048,-0.000
 28483,-0.00165729,0.00515999,-0.02294596,-0.01659595,-0.04970895,-0.00
 053550,-0.00162404,-0.00346920,0.00911356,0.01305067,-0.00061803,-0.00
 165230,0.00042641,0.00066656,0.00065588,0.00028882,-0.00019803,-0.0016
 3565,0.00021424,-0.00869910,0.01790049,0.01569348,0.06122729,0.0003994
 4,-0.00044409,0.00053070,-0.00227306,0.00171524,-0.00194680,0.00183215
 ,-0.00719808,-0.00473645,0.00174005,-0.22259548,-0.13897479,-0.0032930
 6,-0.01066382,-0.01115279,0.00141278,-0.00002557,-0.00076903,-0.000727
 73,0.00009119,0.00065823,0.00007092,-0.00052051,-0.00011502,0.00350227
 ,0.01260091,0.00771192,-0.00245858,0.22652721,-0.00032637,0.00097311,-
 0.00017490,-0.00207974,-0.00139666,0.00064240,0.00246178,-0.00602432,-
 0.00102171,-0.00742788,-0.13535002,-0.14231240,0.00366337,0.01256102,0
 .00587241,-0.00246423,-0.00005694,0.00154088,-0.00000319,0.00053094,-0
 .00038203,0.00013167,-0.00042023,-0.00016542,0.01442070,-0.01925520,-0
 .02049174,-0.00933968,0.14857195,0.15695320,0.00183415,0.00014441,-0.0
 0133874,-0.00086043,-0.00000238,0.00040083,-0.00000249,0.00165103,-0.0
 0094456,-0.01155360,-0.00637781,-0.01489568,-0.19997139,-0.04863322,-0
 .13300597,0.00001257,0.00017756,0.00039720,-0.00039527,-0.00015768,-0.
 00041886,-0.00000051,-0.00005193,0.00006595,0.00529530,0.00747134,0.00
 335527,0.00083597,-0.00019768,0.00082199,0.20470951,0.00213846,-0.0060
 7411,-0.00194460,0.00081781,0.00089819,0.00043518,-0.00145492,-0.00068
 177,0.00018568,0.00652891,-0.00208384,0.00955058,-0.05092704,-0.066522
 72,-0.04589566,-0.02419594,-0.00225526,-0.01796864,0.00017137,0.000125
 55,-0.00002482,-0.00012924,0.00009571,0.00000114,0.02101351,-0.0002363
 5,0.01746403,0.00040493,0.00089853,-0.00064629,0.04673926,0.07589063,-
 0.00073291,-0.00224613,0.00067714,0.00098725,-0.00004820,-0.00014081,0
 .00065839,-0.00227221,0.00158155,0.01024961,0.00720084,0.00537683,-0.1
 2777787,-0.05030101,-0.14812273,-0.00591136,0.00060406,-0.00081711,0.0
 0045263,0.00021556,0.00013635,-0.00001616,0.00005916,-0.00018072,-0.02
 234582,0.00786102,-0.02164887,-0.00083119,0.00055898,-0.00041933,0.145
 15524,0.03824656,0.16410755,-0.01885713,0.01960362,-0.00454731,-0.0003
 9374,-0.00307551,-0.00605455,0.00102308,0.00080344,0.00094284,-0.00181
 782,-0.00032566,-0.00120077,0.00673065,-0.00623102,-0.00032228,-0.2040
 0397,0.13676672,-0.04208672,-0.00001805,-0.00009661,0.00059198,-0.0008
 7236,0.00065276,0.00024029,0.00062615,-0.00141323,0.00078088,0.0000712
 1,0.00000186,0.00007045,0.00012914,0.00049708,0.00051277,0.21731931,-0
 .00991939,0.00959398,-0.00268671,-0.00091595,0.00036029,-0.00216927,-0
 .00058121,0.00063013,0.00013773,-0.00278931,-0.00291675,-0.00162080,0.
 02211390,-0.01265385,0.00465462,0.13825518,-0.17318982,0.02398110,0.00
 012041,0.00000973,0.00020951,-0.00044585,0.00022199,-0.00004840,0.0010
 4351,-0.00335706,0.00042651,0.00030390,-0.00034366,0.00051630,-0.00087
 516,0.00060945,0.00010525,-0.14613250,0.18038920,-0.00619217,0.0095915
 1,0.00533984,-0.00622142,-0.00158778,0.00778057,-0.00245847,-0.0029505
 4,-0.00296350,0.00710872,-0.00452315,0.00356761,0.00196476,0.00001134,
 0.00784372,-0.04503214,0.01995293,-0.04811968,0.00006026,0.00059663,-0
 .00125027,-0.00081274,0.00060345,0.00031127,0.00005378,0.00148972,-0.0
 0325462,0.00009108,-0.00039687,0.00013909,0.00057897,0.00046361,-0.000
 36287,0.04842241,-0.02501025,0.03617114,-0.05848115,-0.02451310,-0.013
 97463,0.00524703,0.02513787,0.00768160,-0.00384950,0.00232021,-0.00054
 472,-0.00112220,-0.00014110,-0.00031476,-0.00315836,0.00069657,-0.0057
 9347,0.00012111,-0.02899630,-0.00899341,0.00004749,0.00095408,0.000787
 20,0.00087786,-0.00066341,0.00018812,0.00049112,0.00074297,0.00056830,
 0.00013681,-0.00000937,0.00007115,-0.00003295,-0.00160420,-0.00040058,
 0.00006353,-0.00017752,0.00243698,0.05965922,-0.02419662,-0.30377819,-
 0.08524236,-0.00482950,-0.01383058,-0.00583458,0.00401584,-0.00008394,
 0.00011983,0.00016309,0.00035194,0.00027775,-0.00075104,0.00229909,-0.
 00335637,0.00026301,-0.00638034,-0.00291774,-0.00013996,-0.00072633,-0
 .00057933,0.00019525,0.00075609,0.00059366,0.00005189,0.00075442,0.000
 39216,-0.00008655,-0.00004187,-0.00000368,0.00011225,-0.00066401,0.000
 01612,-0.00105095,0.00064637,0.00175941,0.02625330,0.32069734,-0.01606
 784,-0.08309355,-0.06690180,0.00130231,0.00248305,0.00308534,-0.001934
 46,-0.00057493,0.00250593,0.00048654,0.00106048,-0.00003532,-0.0051814
 1,-0.00166321,0.00784851,0.00007389,-0.01285898,0.00112109,-0.00012202
 ,0.00026749,0.00033974,0.00057198,0.00029043,-0.00124749,0.00011120,-0
 .00238352,-0.00027028,-0.00000681,0.00005998,-0.00018045,-0.00017163,0
 .00013324,-0.00018700,0.00265001,0.00150440,-0.00520231,0.01828824,0.0
 9477514,0.05912406\\-0.00001981,0.00001201,-0.00000116,0.00001735,-0.0
 0001540,-0.00000028,-0.00003753,-0.00000503,0.00000592,0.00002725,-0.0
 0004375,-0.00000108,-0.00004977,0.00001307,-0.00000288,0.00000607,-0.0
 0003717,0.00000694,0.00000363,0.00000748,0.00000384,-0.00000258,0.0000
 0189,0.00000012,0.00003612,0.00004813,-0.00002695,-0.00000006,0.000011
 47,0.00000558,0.00001080,0.00000345,0.00000584,0.00000596,0.00000576,0
 .00000389,0.00000256,-0.00000190,0.00000024\\\@
 The archive entry for this job was punched.


 K N O W I N G  IS A BARRIER WHICH PREVENTS LEARNING

                     -- TEACHING OF THE BENE GESSERIT
 Job cpu time:       0 days  1 hours  2 minutes 18.3 seconds.
 Elapsed time:       0 days  0 hours  7 minutes 47.4 seconds.
 File lengths (MBytes):  RWF=    103 Int=      0 D2E=      0 Chk=      8 Scr=      1
 Normal termination of Gaussian 16 at Sun Apr  3 21:41:08 2022.
