 Entering Gaussian System, Link 0=g16
 Input=Mol_03.com
 Output=Mol_03.log
 Initial command:
 /home/saurabh/gaussian/g16/l1.exe "/home/saurabh/gaussian/gauss_scr/Gau-35226.inp" -scrdir="/home/saurabh/gaussian/gauss_scr/"
 Entering Link 1 = /home/saurabh/gaussian/g16/l1.exe PID=     35227.
  
 Copyright (c) 1988-2019, Gaussian, Inc.  All Rights Reserved.
  
 This is part of the Gaussian(R) 16 program.  It is based on
 the Gaussian(R) 09 system (copyright 2009, Gaussian, Inc.),
 the Gaussian(R) 03 system (copyright 2003, Gaussian, Inc.),
 the Gaussian(R) 98 system (copyright 1998, Gaussian, Inc.),
 the Gaussian(R) 94 system (copyright 1995, Gaussian, Inc.),
 the Gaussian 92(TM) system (copyright 1992, Gaussian, Inc.),
 the Gaussian 90(TM) system (copyright 1990, Gaussian, Inc.),
 the Gaussian 88(TM) system (copyright 1988, Gaussian, Inc.),
 the Gaussian 86(TM) system (copyright 1986, Carnegie Mellon
 University), and the Gaussian 82(TM) system (copyright 1983,
 Carnegie Mellon University). Gaussian is a federally registered
 trademark of Gaussian, Inc.
  
 This software contains proprietary and confidential information,
 including trade secrets, belonging to Gaussian, Inc.
  
 This software is provided under written license and may be
 used, copied, transmitted, or stored only in accord with that
 written license.
  
 The following legend is applicable only to US Government
 contracts under FAR:
  
                    RESTRICTED RIGHTS LEGEND
  
 Use, reproduction and disclosure by the US Government is
 subject to restrictions as set forth in subparagraphs (a)
 and (c) of the Commercial Computer Software - Restricted
 Rights clause in FAR 52.227-19.
  
 Gaussian, Inc.
 340 Quinnipiac St., Bldg. 40, Wallingford CT 06492
  
  
 ---------------------------------------------------------------
 Warning -- This program may not be used in any manner that
 competes with the business of Gaussian, Inc. or will provide
 assistance to any competitor of Gaussian, Inc.  The licensee
 of this program is prohibited from giving any competitor of
 Gaussian, Inc. access to this program.  By using this program,
 the user acknowledges that Gaussian, Inc. is engaged in the
 business of creating and licensing software in the field of
 computational chemistry and represents and warrants to the
 licensee that it is not a competitor of Gaussian, Inc. and that
 it will not use this program in any manner prohibited above.
 ---------------------------------------------------------------
  

 Cite this work as:
 Gaussian 16, Revision C.01,
 M. J. Frisch, G. W. Trucks, H. B. Schlegel, G. E. Scuseria, 
 M. A. Robb, J. R. Cheeseman, G. Scalmani, V. Barone, 
 G. A. Petersson, H. Nakatsuji, X. Li, M. Caricato, A. V. Marenich, 
 J. Bloino, B. G. Janesko, R. Gomperts, B. Mennucci, H. P. Hratchian, 
 J. V. Ortiz, A. F. Izmaylov, J. L. Sonnenberg, D. Williams-Young, 
 F. Ding, F. Lipparini, F. Egidi, J. Goings, B. Peng, A. Petrone, 
 T. Henderson, D. Ranasinghe, V. G. Zakrzewski, J. Gao, N. Rega, 
 G. Zheng, W. Liang, M. Hada, M. Ehara, K. Toyota, R. Fukuda, 
 J. Hasegawa, M. Ishida, T. Nakajima, Y. Honda, O. Kitao, H. Nakai, 
 T. Vreven, K. Throssell, J. A. Montgomery, Jr., J. E. Peralta, 
 F. Ogliaro, M. J. Bearpark, J. J. Heyd, E. N. Brothers, K. N. Kudin, 
 V. N. Staroverov, T. A. Keith, R. Kobayashi, J. Normand, 
 K. Raghavachari, A. P. Rendell, J. C. Burant, S. S. Iyengar, 
 J. Tomasi, M. Cossi, J. M. Millam, M. Klene, C. Adamo, R. Cammi, 
 J. W. Ochterski, R. L. Martin, K. Morokuma, O. Farkas, 
 J. B. Foresman, and D. J. Fox, Gaussian, Inc., Wallingford CT, 2019.
 
 ******************************************
 Gaussian 16:  ES64L-G16RevC.01  3-Jul-2019
                 6-Apr-2022 
 ******************************************
 %mem=8gb
 %nproc=8
 Will use up to    8 processors via shared memory.
 %chk=Mol_03.chk
 ----------------------------------------------------------------------
 #p B3LYP/cc-PVTZ scf(verytight, maxcycles=1000) opt(calcfc, maxcyc=100
 0) freq(hpmodes) int(grid=ultrafine)
 ----------------------------------------------------------------------
 1/6=1000,10=4,18=20,19=15,26=4,38=1/1,3;
 2/9=110,12=2,17=6,18=5,40=1/2;
 3/5=16,6=1,11=2,25=1,30=1,71=2,74=-5,75=-5,140=1/1,2,3;
 4//1;
 5/5=2,7=1000,17=3,38=5/2;
 8/6=4,10=90,11=11/1;
 11/6=1,8=1,9=11,15=111,16=1/1,2,10;
 10/6=1,13=1/2;
 6/7=2,8=2,9=2,10=2,28=1/1;
 7/10=1,25=1/1,2,3,16;
 1/6=1000,10=4,18=20,19=15,26=4/3(2);
 2/9=110/2;
 99//99;
 2/9=110/2;
 3/5=16,6=1,11=2,25=1,30=1,71=1,74=-5,75=-5/1,2,3;
 4/5=5,16=3,69=1/1;
 5/5=2,7=1000,17=3,38=5/2;
 7//1,2,3,16;
 1/6=1000,18=20,19=15,26=4/3(-5);
 2/9=110/2;
 6/7=2,8=2,9=2,10=2,19=2,28=1/1;
 99/9=1/99;
 Leave Link    1 at Wed Apr  6 23:00:30 2022, MaxMem=  1073741824 cpu:               0.5 elap:               0.1
 (Enter /home/saurabh/gaussian/g16/l101.exe)
 ------
 Mol_03
 ------
 Symbolic Z-matrix:
 Charge =  0 Multiplicity = 2
 C                     2.22843   0.3362   -0.22263 
 C                     1.74283  -1.04963  -0.07441 
 C                     0.46095  -1.32439   0.2127 
 C                    -0.58736  -0.25196   0.40316 
 C                    -0.04299   1.17936   0.25604 
 C                     1.40713   1.37888  -0.07009 
 H                    -0.70803   2.05808   0.38933 
 H                     0.15939  -2.36303   0.31267 
 H                     2.44588  -1.86705  -0.20057 
 O                    -1.60673  -0.46507  -0.54415 
 H                    -0.97076  -0.3816    1.44207 
 O                    -2.71311   0.05313  -0.04065 
 H                    -2.89915   0.84928  -0.60159 
 H                     3.2742    0.50829  -0.45723 
 H                     1.79192   2.38754  -0.1816 
 
 ITRead=  0  0  0  0  0  0  0  0  0  0  0  0  0  0  0
 MicOpt= -1 -1 -1 -1 -1 -1 -1 -1 -1 -1 -1 -1 -1 -1 -1
 NAtoms=     15 NQM=       15 NQMF=       0 NMMI=      0 NMMIF=      0
                NMic=       0 NMicF=      0.
                    Isotopes and Nuclear Properties:
 (Nuclear quadrupole moments (NQMom) in fm**2, nuclear magnetic moments (NMagM)
  in nuclear magnetons)

  Atom         1           2           3           4           5           6           7           8           9          10
 IAtWgt=          12          12          12          12          12          12           1           1           1          16
 AtmWgt=  12.0000000  12.0000000  12.0000000  12.0000000  12.0000000  12.0000000   1.0078250   1.0078250   1.0078250  15.9949146
 NucSpn=           0           0           0           0           0           0           1           1           1           0
 AtZEff=  -0.0000000  -0.0000000  -0.0000000  -0.0000000  -0.0000000  -0.0000000  -0.0000000  -0.0000000  -0.0000000  -0.0000000
 NQMom=    0.0000000   0.0000000   0.0000000   0.0000000   0.0000000   0.0000000   0.0000000   0.0000000   0.0000000   0.0000000
 NMagM=    0.0000000   0.0000000   0.0000000   0.0000000   0.0000000   0.0000000   2.7928460   2.7928460   2.7928460   0.0000000
 AtZNuc=   6.0000000   6.0000000   6.0000000   6.0000000   6.0000000   6.0000000   1.0000000   1.0000000   1.0000000   8.0000000

  Atom        11          12          13          14          15
 IAtWgt=           1          16           1           1           1
 AtmWgt=   1.0078250  15.9949146   1.0078250   1.0078250   1.0078250
 NucSpn=           1           0           1           1           1
 AtZEff=  -0.0000000  -0.0000000  -0.0000000  -0.0000000  -0.0000000
 NQMom=    0.0000000   0.0000000   0.0000000   0.0000000   0.0000000
 NMagM=    2.7928460   0.0000000   2.7928460   2.7928460   2.7928460
 AtZNuc=   1.0000000   8.0000000   1.0000000   1.0000000   1.0000000
 Leave Link  101 at Wed Apr  6 23:00:30 2022, MaxMem=  1073741824 cpu:               1.6 elap:               0.2
 (Enter /home/saurabh/gaussian/g16/l103.exe)

 GradGradGradGradGradGradGradGradGradGradGradGradGradGradGradGradGradGrad
 Berny optimization.
 Initialization pass.
                           ----------------------------
                           !    Initial Parameters    !
                           ! (Angstroms and Degrees)  !
 --------------------------                            --------------------------
 ! Name  Definition              Value          Derivative Info.                !
 --------------------------------------------------------------------------------
 ! R1    R(1,2)                  1.4759         calculate D2E/DX2 analytically  !
 ! R2    R(1,6)                  1.336          calculate D2E/DX2 analytically  !
 ! R3    R(1,14)                 1.0855         calculate D2E/DX2 analytically  !
 ! R4    R(2,3)                  1.3421         calculate D2E/DX2 analytically  !
 ! R5    R(2,9)                  1.0855         calculate D2E/DX2 analytically  !
 ! R6    R(3,4)                  1.5117         calculate D2E/DX2 analytically  !
 ! R7    R(3,8)                  1.0861         calculate D2E/DX2 analytically  !
 ! R8    R(4,5)                  1.5384         calculate D2E/DX2 analytically  !
 ! R9    R(4,10)                 1.4078         calculate D2E/DX2 analytically  !
 ! R10   R(4,11)                 1.115          calculate D2E/DX2 analytically  !
 ! R11   R(5,6)                  1.4997         calculate D2E/DX2 analytically  !
 ! R12   R(5,7)                  1.11           calculate D2E/DX2 analytically  !
 ! R13   R(6,15)                 1.0853         calculate D2E/DX2 analytically  !
 ! R14   R(10,12)                1.3214         calculate D2E/DX2 analytically  !
 ! R15   R(12,13)                0.9915         calculate D2E/DX2 analytically  !
 ! A1    A(2,1,6)              121.2697         calculate D2E/DX2 analytically  !
 ! A2    A(2,1,14)             119.1799         calculate D2E/DX2 analytically  !
 ! A3    A(6,1,14)             119.5502         calculate D2E/DX2 analytically  !
 ! A4    A(1,2,3)              121.8696         calculate D2E/DX2 analytically  !
 ! A5    A(1,2,9)              118.835          calculate D2E/DX2 analytically  !
 ! A6    A(3,2,9)              119.2954         calculate D2E/DX2 analytically  !
 ! A7    A(2,3,4)              122.9609         calculate D2E/DX2 analytically  !
 ! A8    A(2,3,8)              118.7288         calculate D2E/DX2 analytically  !
 ! A9    A(4,3,8)              118.3102         calculate D2E/DX2 analytically  !
 ! A10   A(3,4,5)              113.7406         calculate D2E/DX2 analytically  !
 ! A11   A(3,4,10)             108.0561         calculate D2E/DX2 analytically  !
 ! A12   A(3,4,11)             105.8643         calculate D2E/DX2 analytically  !
 ! A13   A(5,4,10)             109.4334         calculate D2E/DX2 analytically  !
 ! A14   A(5,4,11)             108.6009         calculate D2E/DX2 analytically  !
 ! A15   A(10,4,11)            111.1256         calculate D2E/DX2 analytically  !
 ! A16   A(4,5,6)              119.1265         calculate D2E/DX2 analytically  !
 ! A17   A(4,5,7)              120.8656         calculate D2E/DX2 analytically  !
 ! A18   A(6,5,7)              120.0078         calculate D2E/DX2 analytically  !
 ! A19   A(1,6,5)              121.0259         calculate D2E/DX2 analytically  !
 ! A20   A(1,6,15)             119.7114         calculate D2E/DX2 analytically  !
 ! A21   A(5,6,15)             119.2626         calculate D2E/DX2 analytically  !
 ! A22   A(4,10,12)            106.8873         calculate D2E/DX2 analytically  !
 ! A23   A(10,12,13)           104.8572         calculate D2E/DX2 analytically  !
 ! D1    D(6,1,2,3)              0.299          calculate D2E/DX2 analytically  !
 ! D2    D(6,1,2,9)           -179.6126         calculate D2E/DX2 analytically  !
 ! D3    D(14,1,2,3)          -179.8834         calculate D2E/DX2 analytically  !
 ! D4    D(14,1,2,9)             0.205          calculate D2E/DX2 analytically  !
 ! D5    D(2,1,6,5)             -0.1014         calculate D2E/DX2 analytically  !
 ! D6    D(2,1,6,15)           179.8015         calculate D2E/DX2 analytically  !
 ! D7    D(14,1,6,5)          -179.9184         calculate D2E/DX2 analytically  !
 ! D8    D(14,1,6,15)           -0.0154         calculate D2E/DX2 analytically  !
 ! D9    D(1,2,3,4)              0.1946         calculate D2E/DX2 analytically  !
 ! D10   D(1,2,3,8)           -179.8566         calculate D2E/DX2 analytically  !
 ! D11   D(9,2,3,4)           -179.8943         calculate D2E/DX2 analytically  !
 ! D12   D(9,2,3,8)              0.0546         calculate D2E/DX2 analytically  !
 ! D13   D(2,3,4,5)             -0.7847         calculate D2E/DX2 analytically  !
 ! D14   D(2,3,4,10)           120.9292         calculate D2E/DX2 analytically  !
 ! D15   D(2,3,4,11)          -119.9446         calculate D2E/DX2 analytically  !
 ! D16   D(8,3,4,5)            179.2662         calculate D2E/DX2 analytically  !
 ! D17   D(8,3,4,10)           -59.0199         calculate D2E/DX2 analytically  !
 ! D18   D(8,3,4,11)            60.1064         calculate D2E/DX2 analytically  !
 ! D19   D(3,4,5,6)              0.9359         calculate D2E/DX2 analytically  !
 ! D20   D(3,4,5,7)           -178.9829         calculate D2E/DX2 analytically  !
 ! D21   D(10,4,5,6)          -120.0101         calculate D2E/DX2 analytically  !
 ! D22   D(10,4,5,7)            60.0711         calculate D2E/DX2 analytically  !
 ! D23   D(11,4,5,6)           118.524          calculate D2E/DX2 analytically  !
 ! D24   D(11,4,5,7)           -61.3948         calculate D2E/DX2 analytically  !
 ! D25   D(3,4,10,12)          153.8694         calculate D2E/DX2 analytically  !
 ! D26   D(5,4,10,12)          -81.7942         calculate D2E/DX2 analytically  !
 ! D27   D(11,4,10,12)          38.1353         calculate D2E/DX2 analytically  !
 ! D28   D(4,5,6,1)             -0.5439         calculate D2E/DX2 analytically  !
 ! D29   D(4,5,6,15)           179.5527         calculate D2E/DX2 analytically  !
 ! D30   D(7,5,6,1)            179.3756         calculate D2E/DX2 analytically  !
 ! D31   D(7,5,6,15)            -0.5278         calculate D2E/DX2 analytically  !
 ! D32   D(4,10,12,13)         110.2757         calculate D2E/DX2 analytically  !
 --------------------------------------------------------------------------------
 Trust Radius=3.00D-01 FncErr=1.00D-07 GrdErr=1.00D-06 EigMax=2.50D+02 EigMin=1.00D-04
 Number of steps in this run=    100 maximum allowed number of steps=    100.
 GradGradGradGradGradGradGradGradGradGradGradGradGradGradGradGradGradGrad

 Leave Link  103 at Wed Apr  6 23:00:30 2022, MaxMem=  1073741824 cpu:               0.1 elap:               0.0
 (Enter /home/saurabh/gaussian/g16/l202.exe)
                          Input orientation:                          
 ---------------------------------------------------------------------
 Center     Atomic      Atomic             Coordinates (Angstroms)
 Number     Number       Type             X           Y           Z
 ---------------------------------------------------------------------
      1          6           0        2.228435    0.336200   -0.222626
      2          6           0        1.742829   -1.049626   -0.074405
      3          6           0        0.460954   -1.324388    0.212704
      4          6           0       -0.587359   -0.251957    0.403162
      5          6           0       -0.042987    1.179363    0.256041
      6          6           0        1.407128    1.378875   -0.070089
      7          1           0       -0.708030    2.058083    0.389331
      8          1           0        0.159388   -2.363026    0.312673
      9          1           0        2.445882   -1.867046   -0.200568
     10          8           0       -1.606727   -0.465070   -0.544154
     11          1           0       -0.970756   -0.381602    1.442070
     12          8           0       -2.713114    0.053127   -0.040647
     13          1           0       -2.899154    0.849283   -0.601595
     14          1           0        3.274199    0.508295   -0.457225
     15          1           0        1.791916    2.387539   -0.181598
 ---------------------------------------------------------------------
                    Distance matrix (angstroms):
                    1          2          3          4          5
     1  C    0.000000
     2  C    1.475905   0.000000
     3  C    2.463950   1.342061   0.000000
     4  C    2.943847   2.508809   1.511735   0.000000
     5  C    2.469697   2.875192   2.554331   1.538396   0.000000
     6  C    1.336033   2.451598   2.877994   2.619458   1.499667
     7  H    3.458641   3.984924   3.583131   2.313231   1.110043
     8  H    3.442865   2.093354   1.086143   2.241079   3.548618
     9  H    2.214060   1.085530   2.098859   3.489062   3.960249
    10  O    3.931142   3.432476   2.363592   1.407813   2.406191
    11  H    3.677129   3.179543   2.109497   1.114958   2.168878
    12  O    4.952994   4.590493   3.469358   2.192915   2.913075
    13  H    5.167111   5.042994   4.083902   2.750757   3.000364
    14  H    1.085484   2.217828   3.423722   4.028632   3.458729
    15  H    2.097671   3.439186   3.962995   3.601365   2.240109
                    6          7          8          9         10
     6  C    0.000000
     7  H    2.268542   0.000000
     8  H    3.962977   4.506051   0.000000
     9  H    3.410577   5.069692   2.395301   0.000000
    10  O    3.564856   2.836433   2.730486   4.302003   0.000000
    11  H    3.322685   2.670084   2.545350   4.071636   2.087226
    12  O    4.328380   2.867942   3.770132   5.507075   1.321416
    13  H    4.371160   2.691497   4.528741   6.009049   1.844232
    14  H    2.096124   4.356219   4.305725   2.528680   4.977794
    15  H    1.085310   2.585388   5.047506   4.304593   4.451921
                   11         12         13         14         15
    11  H    0.000000
    12  O    2.328787   0.000000
    13  H    3.067631   0.991533   0.000000
    14  H    4.734858   6.019022   6.184449   0.000000
    15  H    4.235186   5.075888   4.954672   2.409292   0.000000
 Stoichiometry    C6H7O2(2)
 Framework group  C1[X(C6H7O2)]
 Deg. of freedom    39
 Full point group                 C1      NOp   1
 Largest Abelian subgroup         C1      NOp   1
 Largest concise Abelian subgroup C1      NOp   1
                         Standard orientation:                         
 ---------------------------------------------------------------------
 Center     Atomic      Atomic             Coordinates (Angstroms)
 Number     Number       Type             X           Y           Z
 ---------------------------------------------------------------------
      1          6           0        2.243102    0.259742   -0.210522
      2          6           0        1.704840   -1.107330   -0.070222
      3          6           0        0.414065   -1.334466    0.218631
      4          6           0       -0.591663   -0.223778    0.419199
      5          6           0        0.007077    1.186482    0.280139
      6          6           0        1.462969    1.332213   -0.048707
      7          1           0       -0.623275    2.089235    0.421170
      8          1           0        0.072960   -2.361376    0.312489
      9          1           0        2.375554   -1.950342   -0.203822
     10          8           0       -1.620889   -0.391032   -0.526664
     11          1           0       -0.977130   -0.345621    1.458286
     12          8           0       -2.705205    0.165954   -0.016602
     13          1           0       -2.861857    0.972479   -0.571684
     14          1           0        3.294121    0.393027   -0.446891
     15          1           0        1.886050    2.326044   -0.154540
 ---------------------------------------------------------------------
 Rotational constants (GHZ):           4.5637900           1.5420635           1.2173972
 Leave Link  202 at Wed Apr  6 23:00:30 2022, MaxMem=  1073741824 cpu:               0.1 elap:               0.0
 (Enter /home/saurabh/gaussian/g16/l301.exe)
 Standard basis: CC-pVTZ (5D, 7F)
 Ernie: Thresh=  0.10000D-02 Tol=  0.10000D-05 Strict=F.
 Ernie:  24 primitive shells out of 264 were deleted.
 There are   385 symmetry adapted cartesian basis functions of A   symmetry.
 There are   338 symmetry adapted basis functions of A   symmetry.
   338 basis functions,   535 primitive gaussians,   385 cartesian basis functions
    30 alpha electrons       29 beta electrons
       nuclear repulsion energy       354.4381962859 Hartrees.
 IExCor=  402 DFT=T Ex+Corr=B3LYP ExCW=0 ScaHFX=  0.200000
 ScaDFX=  0.800000  0.720000  1.000000  0.810000 ScalE2=  1.000000  1.000000
 IRadAn=      5 IRanWt=     -1 IRanGd=            0 ICorTp=0 IEmpDi=  4
 NAtoms=   15 NActive=   15 NUniq=   15 SFac= 1.00D+00 NAtFMM=   60 NAOKFM=F Big=F
 Integral buffers will be    131072 words long.
 Raffenetti 2 integral format.
 Two-electron integral symmetry is turned on.
 Leave Link  301 at Wed Apr  6 23:00:30 2022, MaxMem=  1073741824 cpu:               0.4 elap:               0.1
 (Enter /home/saurabh/gaussian/g16/l302.exe)
 NPDir=0 NMtPBC=     1 NCelOv=     1 NCel=       1 NClECP=     1 NCelD=      1
         NCelK=      1 NCelE2=     1 NClLst=     1 CellRange=     0.0.
 One-electron integrals computed using PRISM.
 One-electron integral symmetry used in STVInt
 NBasis=   338 RedAO= T EigKep=  5.25D-05  NBF=   338
 NBsUse=   338 1.00D-06 EigRej= -1.00D+00 NBFU=   338
 Precomputing XC quadrature grid using
 IXCGrd= 4 IRadAn=           5 IRanWt=          -1 IRanGd=           0 AccXCQ= 0.00D+00.
 Generated NRdTot=       0 NPtTot=           0 NUsed=           0 NTot=          32
 NSgBfM=   385   385   385   385   385 MxSgAt=    15 MxSgA2=    15.
 Leave Link  302 at Wed Apr  6 23:00:31 2022, MaxMem=  1073741824 cpu:               2.0 elap:               0.3
 (Enter /home/saurabh/gaussian/g16/l303.exe)
 DipDrv:  MaxL=1.
 Leave Link  303 at Wed Apr  6 23:00:31 2022, MaxMem=  1073741824 cpu:               0.4 elap:               0.1
 (Enter /home/saurabh/gaussian/g16/l401.exe)
 ExpMin= 1.03D-01 ExpMax= 1.53D+04 ExpMxC= 5.22D+02 IAcc=3 IRadAn=         5 AccDes= 0.00D+00
 Harris functional with IExCor=  402 and IRadAn=       5 diagonalized for initial guess.
 HarFok:  IExCor=  402 AccDes= 0.00D+00 IRadAn=         5 IDoV= 1 UseB2=F ITyADJ=14
 ICtDFT=  3500011 ScaDFX=  1.000000  1.000000  1.000000  1.000000
 FoFCou: FMM=F IPFlag=           0 FMFlag=      100000 FMFlg1=           0
         NFxFlg=           0 DoJE=T BraDBF=F KetDBF=T FulRan=T
         wScrn=  0.000000 ICntrl=       500 IOpCl=  0 I1Cent=   200000004 NGrid=           0
         NMat0=    1 NMatS0=      1 NMatT0=    0 NMatD0=    1 NMtDS0=    0 NMtDT0=    0
 Petite list used in FoFCou.
 Harris En= -383.270534553262    
 JPrj=0 DoOrth=F DoCkMO=F.
 Initial guess <Sx>= 0.0000 <Sy>= 0.0000 <Sz>= 0.5000 <S**2>= 0.7500 S= 0.5000
 Leave Link  401 at Wed Apr  6 23:00:32 2022, MaxMem=  1073741824 cpu:               8.0 elap:               1.0
 (Enter /home/saurabh/gaussian/g16/l502.exe)
 Integral symmetry usage will be decided dynamically.
 UHF open shell SCF:
 Using DIIS extrapolation, IDIIS=  1040.
 NGot=  1073741824 LenX=  1073438548 LenY=  1073289882
 Requested convergence on RMS density matrix=1.00D-08 within1000 cycles.
 Requested convergence on MAX density matrix=1.00D-06.
 Requested convergence on             energy=1.00D-06.
 No special actions if energy rises.
 Fock matrices will be formed incrementally for  20 cycles.
 Integral accuracy reduced to 1.0D-05 until final iterations.

 Cycle   1  Pass 0  IDiag  1:
 FoFJK:  IHMeth= 1 ICntrl=       0 DoSepK=F KAlg= 0 I1Cent=           0 FoldK=F
 IRaf= 950000000 NMat=       1 IRICut=       1 DoRegI=T DoRafI=F ISym2E= 0 IDoP0=0 IntGTp=1.
 FoFCou: FMM=F IPFlag=           0 FMFlag=      100000 FMFlg1=           0
         NFxFlg=           0 DoJE=F BraDBF=F KetDBF=F FulRan=T
         wScrn=  0.000000 ICntrl=         0 IOpCl=  1 I1Cent=           0 NGrid=           0
         NMat0=    1 NMatS0=      1 NMatT0=    0 NMatD0=    1 NMtDS0=    0 NMtDT0=    0
 Symmetry not used in FoFCou.
 E= -383.064005582855    
 DIIS: error= 2.18D-02 at cycle   1 NSaved=   1.
 NSaved= 1 IEnMin= 1 EnMin= -383.064005582855     IErMin= 1 ErrMin= 2.18D-02
 ErrMax= 2.18D-02  0.00D+00 EMaxC= 1.00D-01 BMatC= 8.16D-01 BMatP= 8.16D-01
 IDIUse=3 WtCom= 7.82D-01 WtEn= 2.18D-01
 Coeff-Com:  0.100D+01
 Coeff-En:   0.100D+01
 Coeff:      0.100D+01
 Gap=     0.186 Goal=   None    Shift=    0.000
 Gap=     0.196 Goal=   None    Shift=    0.000
 GapD=    0.186 DampG=1.000 DampE=0.500 DampFc=0.5000 IDamp=-1.
 Damping current iteration by 5.00D-01
 RMSDP=2.36D-03 MaxDP=1.27D-01              OVMax= 2.38D-01

 Cycle   2  Pass 0  IDiag  1:
 RMSU=  1.18D-03    CP:  9.99D-01
 E= -383.141795858751     Delta-E=       -0.077790275895 Rises=F Damp=T
 DIIS: error= 6.20D-03 at cycle   2 NSaved=   2.
 NSaved= 2 IEnMin= 2 EnMin= -383.141795858751     IErMin= 2 ErrMin= 6.20D-03
 ErrMax= 6.20D-03  0.00D+00 EMaxC= 1.00D-01 BMatC= 6.45D-02 BMatP= 8.16D-01
 IDIUse=3 WtCom= 9.38D-01 WtEn= 6.20D-02
 Coeff-Com:  0.385D-01 0.961D+00
 Coeff-En:   0.136D+00 0.864D+00
 Coeff:      0.446D-01 0.955D+00
 Gap=     0.225 Goal=   None    Shift=    0.000
 Gap=     0.153 Goal=   None    Shift=    0.000
 RMSDP=6.25D-04 MaxDP=2.29D-02 DE=-7.78D-02 OVMax= 1.88D-01

 Cycle   3  Pass 0  IDiag  1:
 RMSU=  5.53D-04    CP:  1.00D+00  7.55D-01
 E= -383.236823263672     Delta-E=       -0.095027404921 Rises=F Damp=F
 DIIS: error= 7.50D-03 at cycle   3 NSaved=   3.
 NSaved= 3 IEnMin= 3 EnMin= -383.236823263672     IErMin= 2 ErrMin= 6.20D-03
 ErrMax= 7.50D-03  0.00D+00 EMaxC= 1.00D-01 BMatC= 5.34D-02 BMatP= 6.45D-02
 IDIUse=3 WtCom= 9.25D-01 WtEn= 7.50D-02
 Coeff-Com: -0.544D-01 0.487D+00 0.567D+00
 Coeff-En:   0.000D+00 0.000D+00 0.100D+01
 Coeff:     -0.504D-01 0.451D+00 0.600D+00
 Gap=     0.169 Goal=   None    Shift=    0.000
 Gap=     0.153 Goal=   None    Shift=    0.000
 RMSDP=3.62D-04 MaxDP=2.52D-02 DE=-9.50D-02 OVMax= 8.46D-02

 Cycle   4  Pass 0  IDiag  1:
 RMSU=  2.61D-04    CP:  1.00D+00  8.40D-01  5.86D-01
 E= -383.246272274703     Delta-E=       -0.009449011032 Rises=F Damp=F
 DIIS: error= 5.66D-03 at cycle   4 NSaved=   4.
 NSaved= 4 IEnMin= 4 EnMin= -383.246272274703     IErMin= 4 ErrMin= 5.66D-03
 ErrMax= 5.66D-03  0.00D+00 EMaxC= 1.00D-01 BMatC= 1.84D-02 BMatP= 5.34D-02
 IDIUse=3 WtCom= 9.43D-01 WtEn= 5.66D-02
 Coeff-Com: -0.382D-01 0.172D+00 0.397D+00 0.470D+00
 Coeff-En:   0.000D+00 0.000D+00 0.270D+00 0.730D+00
 Coeff:     -0.361D-01 0.162D+00 0.389D+00 0.484D+00
 Gap=     0.167 Goal=   None    Shift=    0.000
 Gap=     0.148 Goal=   None    Shift=    0.000
 RMSDP=1.60D-04 MaxDP=7.43D-03 DE=-9.45D-03 OVMax= 3.41D-02

 Cycle   5  Pass 0  IDiag  1:
 RMSU=  8.12D-05    CP:  1.00D+00  8.51D-01  7.32D-01  5.72D-01
 E= -383.251103236779     Delta-E=       -0.004830962075 Rises=F Damp=F
 DIIS: error= 1.30D-03 at cycle   5 NSaved=   5.
 NSaved= 5 IEnMin= 5 EnMin= -383.251103236779     IErMin= 5 ErrMin= 1.30D-03
 ErrMax= 1.30D-03  0.00D+00 EMaxC= 1.00D-01 BMatC= 7.41D-04 BMatP= 1.84D-02
 IDIUse=3 WtCom= 9.87D-01 WtEn= 1.30D-02
 Coeff-Com: -0.906D-02 0.975D-02 0.924D-01 0.208D+00 0.699D+00
 Coeff-En:   0.000D+00 0.000D+00 0.000D+00 0.000D+00 0.100D+01
 Coeff:     -0.894D-02 0.962D-02 0.912D-01 0.205D+00 0.703D+00
 Gap=     0.168 Goal=   None    Shift=    0.000
 Gap=     0.149 Goal=   None    Shift=    0.000
 RMSDP=4.10D-05 MaxDP=3.03D-03 DE=-4.83D-03 OVMax= 1.13D-02

 Cycle   6  Pass 0  IDiag  1:
 RMSU=  3.18D-05    CP:  1.00D+00  8.52D-01  7.41D-01  6.67D-01  9.41D-01
 E= -383.251363995035     Delta-E=       -0.000260758256 Rises=F Damp=F
 DIIS: error= 6.96D-04 at cycle   6 NSaved=   6.
 NSaved= 6 IEnMin= 6 EnMin= -383.251363995035     IErMin= 6 ErrMin= 6.96D-04
 ErrMax= 6.96D-04  0.00D+00 EMaxC= 1.00D-01 BMatC= 1.93D-04 BMatP= 7.41D-04
 IDIUse=3 WtCom= 9.93D-01 WtEn= 6.96D-03
 Coeff-Com: -0.583D-03-0.129D-01 0.618D-02 0.535D-01 0.369D+00 0.585D+00
 Coeff-En:   0.000D+00 0.000D+00 0.000D+00 0.000D+00 0.000D+00 0.100D+01
 Coeff:     -0.579D-03-0.128D-01 0.613D-02 0.532D-01 0.366D+00 0.588D+00
 Gap=     0.169 Goal=   None    Shift=    0.000
 Gap=     0.150 Goal=   None    Shift=    0.000
 RMSDP=2.17D-05 MaxDP=1.42D-03 DE=-2.61D-04 OVMax= 5.47D-03

 Cycle   7  Pass 0  IDiag  1:
 RMSU=  1.70D-05    CP:  1.00D+00  8.50D-01  7.46D-01  6.90D-01  1.08D+00
                    CP:  9.53D-01
 E= -383.251440331968     Delta-E=       -0.000076336934 Rises=F Damp=F
 DIIS: error= 3.52D-04 at cycle   7 NSaved=   7.
 NSaved= 7 IEnMin= 7 EnMin= -383.251440331968     IErMin= 7 ErrMin= 3.52D-04
 ErrMax= 3.52D-04  0.00D+00 EMaxC= 1.00D-01 BMatC= 4.99D-05 BMatP= 1.93D-04
 IDIUse=3 WtCom= 9.96D-01 WtEn= 3.52D-03
 Coeff-Com:  0.450D-02-0.114D-01-0.475D-01-0.914D-01-0.227D+00 0.302D+00
 Coeff-Com:  0.107D+01
 Coeff-En:   0.000D+00 0.000D+00 0.000D+00 0.000D+00 0.000D+00 0.000D+00
 Coeff-En:   0.100D+01
 Coeff:      0.449D-02-0.113D-01-0.473D-01-0.911D-01-0.226D+00 0.301D+00
 Coeff:      0.107D+01
 Gap=     0.171 Goal=   None    Shift=    0.000
 Gap=     0.152 Goal=   None    Shift=    0.000
 RMSDP=2.19D-05 MaxDP=1.64D-03 DE=-7.63D-05 OVMax= 6.35D-03

 Cycle   8  Pass 0  IDiag  1:
 RMSU=  7.38D-06    CP:  1.00D+00  8.49D-01  7.54D-01  7.15D-01  1.21D+00
                    CP:  1.44D+00  1.22D+00
 E= -383.251481444070     Delta-E=       -0.000041112102 Rises=F Damp=F
 DIIS: error= 9.53D-05 at cycle   8 NSaved=   8.
 NSaved= 8 IEnMin= 8 EnMin= -383.251481444070     IErMin= 8 ErrMin= 9.53D-05
 ErrMax= 9.53D-05  0.00D+00 EMaxC= 1.00D-01 BMatC= 5.51D-06 BMatP= 4.99D-05
 IDIUse=1 WtCom= 1.00D+00 WtEn= 0.00D+00
 Coeff-Com:  0.165D-02-0.253D-02-0.197D-01-0.417D-01-0.134D+00 0.562D-01
 Coeff-Com:  0.442D+00 0.699D+00
 Coeff:      0.165D-02-0.253D-02-0.197D-01-0.417D-01-0.134D+00 0.562D-01
 Coeff:      0.442D+00 0.699D+00
 Gap=     0.171 Goal=   None    Shift=    0.000
 Gap=     0.152 Goal=   None    Shift=    0.000
 RMSDP=5.47D-06 MaxDP=4.22D-04 DE=-4.11D-05 OVMax= 1.54D-03

 Initial convergence to 1.0D-05 achieved.  Increase integral accuracy.
 Cycle   9  Pass 1  IDiag  1:
 E= -383.251478275370     Delta-E=        0.000003168701 Rises=F Damp=F
 DIIS: error= 5.16D-05 at cycle   1 NSaved=   1.
 NSaved= 1 IEnMin= 1 EnMin= -383.251478275370     IErMin= 1 ErrMin= 5.16D-05
 ErrMax= 5.16D-05  0.00D+00 EMaxC= 1.00D-01 BMatC= 3.28D-06 BMatP= 3.28D-06
 IDIUse=1 WtCom= 1.00D+00 WtEn= 0.00D+00
 Coeff-Com:  0.100D+01
 Coeff:      0.100D+01
 Gap=     0.171 Goal=   None    Shift=    0.000
 Gap=     0.152 Goal=   None    Shift=    0.000
 RMSDP=5.47D-06 MaxDP=4.22D-04 DE= 3.17D-06 OVMax= 9.22D-04

 Cycle  10  Pass 1  IDiag  1:
 RMSU=  1.90D-05    CP:  1.00D+00
 E= -383.251478331276     Delta-E=       -0.000000055906 Rises=F Damp=F
 DIIS: error= 6.71D-05 at cycle   2 NSaved=   2.
 NSaved= 2 IEnMin= 2 EnMin= -383.251478331276     IErMin= 1 ErrMin= 5.16D-05
 ErrMax= 6.71D-05  0.00D+00 EMaxC= 1.00D-01 BMatC= 3.83D-06 BMatP= 3.28D-06
 IDIUse=1 WtCom= 1.00D+00 WtEn= 0.00D+00
 Coeff-Com:  0.524D+00 0.476D+00
 Coeff:      0.524D+00 0.476D+00
 Gap=     0.171 Goal=   None    Shift=    0.000
 Gap=     0.152 Goal=   None    Shift=    0.000
 RMSDP=2.90D-06 MaxDP=1.22D-04 DE=-5.59D-08 OVMax= 5.53D-04

 Cycle  11  Pass 1  IDiag  1:
 RMSU=  2.87D-06    CP:  1.00D+00  9.85D-01
 E= -383.251479183452     Delta-E=       -0.000000852176 Rises=F Damp=F
 DIIS: error= 2.96D-05 at cycle   3 NSaved=   3.
 NSaved= 3 IEnMin= 3 EnMin= -383.251479183452     IErMin= 3 ErrMin= 2.96D-05
 ErrMax= 2.96D-05  0.00D+00 EMaxC= 1.00D-01 BMatC= 3.79D-07 BMatP= 3.28D-06
 IDIUse=1 WtCom= 1.00D+00 WtEn= 0.00D+00
 Coeff-Com: -0.215D-02 0.216D+00 0.786D+00
 Coeff:     -0.215D-02 0.216D+00 0.786D+00
 Gap=     0.171 Goal=   None    Shift=    0.000
 Gap=     0.152 Goal=   None    Shift=    0.000
 RMSDP=1.13D-06 MaxDP=1.13D-04 DE=-8.52D-07 OVMax= 3.48D-04

 Cycle  12  Pass 1  IDiag  1:
 RMSU=  9.99D-07    CP:  1.00D+00  1.00D+00  8.66D-01
 E= -383.251479347378     Delta-E=       -0.000000163926 Rises=F Damp=F
 DIIS: error= 1.35D-05 at cycle   4 NSaved=   4.
 NSaved= 4 IEnMin= 4 EnMin= -383.251479347378     IErMin= 4 ErrMin= 1.35D-05
 ErrMax= 1.35D-05  0.00D+00 EMaxC= 1.00D-01 BMatC= 1.03D-07 BMatP= 3.79D-07
 IDIUse=1 WtCom= 1.00D+00 WtEn= 0.00D+00
 Coeff-Com: -0.414D-01 0.871D-01 0.444D+00 0.511D+00
 Coeff:     -0.414D-01 0.871D-01 0.444D+00 0.511D+00
 Gap=     0.171 Goal=   None    Shift=    0.000
 Gap=     0.152 Goal=   None    Shift=    0.000
 RMSDP=5.40D-07 MaxDP=4.19D-05 DE=-1.64D-07 OVMax= 1.53D-04

 Cycle  13  Pass 1  IDiag  1:
 RMSU=  5.23D-07    CP:  1.00D+00  1.01D+00  8.54D-01  1.12D+00
 E= -383.251479396348     Delta-E=       -0.000000048970 Rises=F Damp=F
 DIIS: error= 9.41D-06 at cycle   5 NSaved=   5.
 NSaved= 5 IEnMin= 5 EnMin= -383.251479396348     IErMin= 5 ErrMin= 9.41D-06
 ErrMax= 9.41D-06  0.00D+00 EMaxC= 1.00D-01 BMatC= 2.65D-08 BMatP= 1.03D-07
 IDIUse=1 WtCom= 1.00D+00 WtEn= 0.00D+00
 Coeff-Com: -0.719D-02-0.156D+00-0.553D+00 0.145D+00 0.157D+01
 Coeff:     -0.719D-02-0.156D+00-0.553D+00 0.145D+00 0.157D+01
 Gap=     0.171 Goal=   None    Shift=    0.000
 Gap=     0.152 Goal=   None    Shift=    0.000
 RMSDP=1.01D-06 MaxDP=9.67D-05 DE=-4.90D-08 OVMax= 3.01D-04

 Cycle  14  Pass 1  IDiag  1:
 RMSU=  2.24D-07    CP:  1.00D+00  1.01D+00  9.21D-01  2.01D+00  1.66D+00
 E= -383.251479446871     Delta-E=       -0.000000050523 Rises=F Damp=F
 DIIS: error= 3.79D-06 at cycle   6 NSaved=   6.
 NSaved= 6 IEnMin= 6 EnMin= -383.251479446871     IErMin= 6 ErrMin= 3.79D-06
 ErrMax= 3.79D-06  0.00D+00 EMaxC= 1.00D-01 BMatC= 9.31D-09 BMatP= 2.65D-08
 IDIUse=1 WtCom= 1.00D+00 WtEn= 0.00D+00
 Coeff-Com:  0.214D-02-0.112D+00-0.418D+00 0.144D-01 0.986D+00 0.528D+00
 Coeff:      0.214D-02-0.112D+00-0.418D+00 0.144D-01 0.986D+00 0.528D+00
 Gap=     0.171 Goal=   None    Shift=    0.000
 Gap=     0.152 Goal=   None    Shift=    0.000
 RMSDP=2.40D-07 MaxDP=1.90D-05 DE=-5.05D-08 OVMax= 7.40D-05

 Cycle  15  Pass 1  IDiag  1:
 RMSU=  9.97D-08    CP:  1.00D+00  1.01D+00  9.22D-01  2.20D+00  1.86D+00
                    CP:  7.97D-01
 E= -383.251479451066     Delta-E=       -0.000000004194 Rises=F Damp=F
 DIIS: error= 8.53D-07 at cycle   7 NSaved=   7.
 NSaved= 7 IEnMin= 7 EnMin= -383.251479451066     IErMin= 7 ErrMin= 8.53D-07
 ErrMax= 8.53D-07  0.00D+00 EMaxC= 1.00D-01 BMatC= 6.94D-10 BMatP= 9.31D-09
 IDIUse=1 WtCom= 1.00D+00 WtEn= 0.00D+00
 Coeff-Com:  0.199D-02-0.379D-01-0.145D+00-0.831D-02 0.305D+00 0.254D+00
 Coeff-Com:  0.629D+00
 Coeff:      0.199D-02-0.379D-01-0.145D+00-0.831D-02 0.305D+00 0.254D+00
 Coeff:      0.629D+00
 Gap=     0.171 Goal=   None    Shift=    0.000
 Gap=     0.152 Goal=   None    Shift=    0.000
 RMSDP=5.30D-08 MaxDP=3.42D-06 DE=-4.19D-09 OVMax= 1.71D-05

 Cycle  16  Pass 1  IDiag  1:
 RMSU=  3.31D-08    CP:  1.00D+00  1.01D+00  9.20D-01  2.22D+00  1.90D+00
                    CP:  8.86D-01  8.86D-01
 E= -383.251479451317     Delta-E=       -0.000000000251 Rises=F Damp=F
 DIIS: error= 3.51D-07 at cycle   8 NSaved=   8.
 NSaved= 8 IEnMin= 8 EnMin= -383.251479451317     IErMin= 8 ErrMin= 3.51D-07
 ErrMax= 3.51D-07  0.00D+00 EMaxC= 1.00D-01 BMatC= 1.51D-10 BMatP= 6.94D-10
 IDIUse=1 WtCom= 1.00D+00 WtEn= 0.00D+00
 Coeff-Com:  0.433D-03 0.796D-02 0.280D-01-0.593D-02-0.822D-01-0.567D-02
 Coeff-Com:  0.309D+00 0.748D+00
 Coeff:      0.433D-03 0.796D-02 0.280D-01-0.593D-02-0.822D-01-0.567D-02
 Coeff:      0.309D+00 0.748D+00
 Gap=     0.171 Goal=   None    Shift=    0.000
 Gap=     0.152 Goal=   None    Shift=    0.000
 RMSDP=2.61D-08 MaxDP=1.32D-06 DE=-2.51D-10 OVMax= 4.54D-06

 Cycle  17  Pass 1  IDiag  1:
 RMSU=  1.44D-08    CP:  1.00D+00  1.01D+00  9.24D-01  2.23D+00  1.91D+00
                    CP:  9.11D-01  1.03D+00  8.10D-01
 E= -383.251479451363     Delta-E=       -0.000000000046 Rises=F Damp=F
 DIIS: error= 1.62D-07 at cycle   9 NSaved=   9.
 NSaved= 9 IEnMin= 9 EnMin= -383.251479451363     IErMin= 9 ErrMin= 1.62D-07
 ErrMax= 1.62D-07  0.00D+00 EMaxC= 1.00D-01 BMatC= 3.28D-11 BMatP= 1.51D-10
 IDIUse=1 WtCom= 1.00D+00 WtEn= 0.00D+00
 Coeff-Com: -0.269D-03 0.140D-01 0.514D-01-0.856D-04-0.122D+00-0.681D-01
 Coeff-Com:  0.108D-01 0.412D+00 0.702D+00
 Coeff:     -0.269D-03 0.140D-01 0.514D-01-0.856D-04-0.122D+00-0.681D-01
 Coeff:      0.108D-01 0.412D+00 0.702D+00
 Gap=     0.171 Goal=   None    Shift=    0.000
 Gap=     0.152 Goal=   None    Shift=    0.000
 RMSDP=9.14D-09 MaxDP=4.34D-07 DE=-4.63D-11 OVMax= 1.60D-06

 SCF Done:  E(UB3LYP) =  -383.251479451     A.U. after   17 cycles
            NFock= 17  Conv=0.91D-08     -V/T= 2.0066
 <Sx>= 0.0000 <Sy>= 0.0000 <Sz>= 0.5000 <S**2>= 0.7863 S= 0.5180
 <L.S>=  0.00000000000    
 KE= 3.807538858916D+02 PE=-1.603822858972D+03 EE= 4.853792973432D+02
 Annihilation of the first spin contaminant:
 S**2 before annihilation     0.7863,   after     0.7506
 Leave Link  502 at Wed Apr  6 23:01:55 2022, MaxMem=  1073741824 cpu:             664.8 elap:              83.1
 (Enter /home/saurabh/gaussian/g16/l801.exe)
 DoSCS=F DFT=T ScalE2(SS,OS)=  1.000000  1.000000
 Range of M.O.s used for correlation:     1   338
 NBasis=   338 NAE=    30 NBE=    29 NFC=     0 NFV=     0
 NROrb=    338 NOA=    30 NOB=    29 NVA=   308 NVB=   309

 **** Warning!!: The largest alpha MO coefficient is  0.26836481D+02


 **** Warning!!: The largest beta MO coefficient is  0.26774347D+02

 Leave Link  801 at Wed Apr  6 23:01:55 2022, MaxMem=  1073741824 cpu:               0.3 elap:               0.1
 (Enter /home/saurabh/gaussian/g16/l1101.exe)
 Using compressed storage, NAtomX=    15.
 Will process     16 centers per pass.
 Leave Link 1101 at Wed Apr  6 23:01:55 2022, MaxMem=  1073741824 cpu:               2.6 elap:               0.3
 (Enter /home/saurabh/gaussian/g16/l1102.exe)
 Symmetrizing basis deriv contribution to polar:
 IMax=3 JMax=2 DiffMx= 0.00D+00
 Leave Link 1102 at Wed Apr  6 23:01:55 2022, MaxMem=  1073741824 cpu:               0.3 elap:               0.1
 (Enter /home/saurabh/gaussian/g16/l1110.exe)
 Forming Gx(P) for the SCF density, NAtomX=    15.
 Integral derivatives from FoFJK, PRISM(SPDF).
 Do as many integral derivatives as possible in FoFJK.
 G2DrvN: MDV=    1073740143.
 G2DrvN: will do    16 centers at a time, making    1 passes.
 Calling FoFCou, ICntrl=  3107 FMM=F I1Cent=   0 AccDes= 0.00D+00.
 FoFJK:  IHMeth= 1 ICntrl=    3107 DoSepK=F KAlg= 0 I1Cent=           0 FoldK=F
 IRaf=         0 NMat=       1 IRICut=       1 DoRegI=T DoRafI=F ISym2E= 0 IDoP0=0 IntGTp=1.
 FoFCou: FMM=F IPFlag=           0 FMFlag=      100000 FMFlg1=           0
         NFxFlg=           0 DoJE=F BraDBF=F KetDBF=F FulRan=T
         wScrn=  0.000000 ICntrl=      3107 IOpCl=  1 I1Cent=           0 NGrid=           0
         NMat0=    1 NMatS0=      1 NMatT0=    0 NMatD0=    1 NMtDS0=    0 NMtDT0=    0
 Symmetry not used in FoFCou.
 End of G2Drv F.D. properties file   721 does not exist.
 End of G2Drv F.D. properties file   722 does not exist.
 End of G2Drv F.D. properties file   788 does not exist.
 Leave Link 1110 at Wed Apr  6 23:03:41 2022, MaxMem=  1073741824 cpu:             844.8 elap:             105.6
 (Enter /home/saurabh/gaussian/g16/l1002.exe)
 Minotr:  UHF open shell wavefunction.
          IDoAtm=111111111111111
          Direct CPHF calculation.
          Differentiating once with respect to nuclear coordinates.
          Requested convergence is 1.0D-08 RMS, and 1.0D-07 maximum.
          Secondary convergence is 1.0D-12 RMS, and 1.0D-12 maximum.
          NewPWx=T KeepS1=F KeepF1=F KeepIn=T MapXYZ=F SortEE=F KeepMc=T.
         4485 words used for storage of precomputed grid.
 Two-electron integrals replicated using symmetry.
          MDV=    1073741824 using IRadAn=       1.
          Solving linear equations simultaneously, MaxMat=     384.
 FoF2E skips out because all densities are zero.
 CalDSu exits because no D1Ps are significant.
 FoFJK:  IHMeth= 1 ICntrl=       0 DoSepK=F KAlg= 0 I1Cent=           0 FoldK=F
 IRaf= 940000000 NMat=      45 IRICut=     112 DoRegI=T DoRafI=T ISym2E= 2 IDoP0=3 IntGTp=3.
 FoFCou: FMM=F IPFlag=           0 FMFlag=      100000 FMFlg1=           0
         NFxFlg=           0 DoJE=F BraDBF=F KetDBF=F FulRan=T
         wScrn=  0.000000 ICntrl=         0 IOpCl=  1 I1Cent=           0 NGrid=           0
         NMat0=   45 NMatS0=     45 NMatT0=    0 NMatD0=   45 NMtDS0=    0 NMtDT0=    0
 Integrals replicated using symmetry in FoFCou.
 Raff kept on since  91.71% of shell-pairs survive, threshold=   0.20 IRatSp=92.
          There are    48 degrees of freedom in the 1st order CPHF.  IDoFFX=6 NUNeed=     0.
     42 vectors produced by pass  0 Test12= 3.79D-14 2.08D-09 XBig12= 3.42D-01 2.46D-01.
 AX will form    42 AO Fock derivatives at one time.
     42 vectors produced by pass  1 Test12= 3.79D-14 2.08D-09 XBig12= 6.09D-02 5.95D-02.
     42 vectors produced by pass  2 Test12= 3.79D-14 2.08D-09 XBig12= 2.68D-03 9.19D-03.
     42 vectors produced by pass  3 Test12= 3.79D-14 2.08D-09 XBig12= 2.59D-05 6.17D-04.
     42 vectors produced by pass  4 Test12= 3.79D-14 2.08D-09 XBig12= 2.07D-07 4.08D-05.
     42 vectors produced by pass  5 Test12= 3.79D-14 2.08D-09 XBig12= 2.65D-09 4.87D-06.
     39 vectors produced by pass  6 Test12= 3.79D-14 2.08D-09 XBig12= 1.71D-11 3.77D-07.
     13 vectors produced by pass  7 Test12= 3.79D-14 2.08D-09 XBig12= 7.41D-14 2.45D-08.
      1 vectors produced by pass  8 Test12= 3.79D-14 2.08D-09 XBig12= 3.87D-16 2.13D-09.
 InvSVY:  IOpt=1 It=  1 EMax= 2.22D-15
 Solved reduced A of dimension   305 with    42 vectors.
 End of Minotr F.D. properties file   721 does not exist.
 End of Minotr F.D. properties file   722 does not exist.
 End of Minotr F.D. properties file   788 does not exist.
 Leave Link 1002 at Wed Apr  6 23:08:22 2022, MaxMem=  1073741824 cpu:            2251.2 elap:             281.4
 (Enter /home/saurabh/gaussian/g16/l601.exe)
 Copying SCF densities to generalized density rwf, IOpCl= 1 IROHF=0.

 **********************************************************************

            Population analysis using the SCF Density.

 **********************************************************************

 Orbital symmetries:
 Alpha Orbitals:
       Occupied  (A) (A) (A) (A) (A) (A) (A) (A) (A) (A) (A) (A)
                 (A) (A) (A) (A) (A) (A) (A) (A) (A) (A) (A) (A)
                 (A) (A) (A) (A) (A) (A)
       Virtual   (A) (A) (A) (A) (A) (A) (A) (A) (A) (A) (A) (A)
                 (A) (A) (A) (A) (A) (A) (A) (A) (A) (A) (A) (A)
                 (A) (A) (A) (A) (A) (A) (A) (A) (A) (A) (A) (A)
                 (A) (A) (A) (A) (A) (A) (A) (A) (A) (A) (A) (A)
                 (A) (A) (A) (A) (A) (A) (A) (A) (A) (A) (A) (A)
                 (A) (A) (A) (A) (A) (A) (A) (A) (A) (A) (A) (A)
                 (A) (A) (A) (A) (A) (A) (A) (A) (A) (A) (A) (A)
                 (A) (A) (A) (A) (A) (A) (A) (A) (A) (A) (A) (A)
                 (A) (A) (A) (A) (A) (A) (A) (A) (A) (A) (A) (A)
                 (A) (A) (A) (A) (A) (A) (A) (A) (A) (A) (A) (A)
                 (A) (A) (A) (A) (A) (A) (A) (A) (A) (A) (A) (A)
                 (A) (A) (A) (A) (A) (A) (A) (A) (A) (A) (A) (A)
                 (A) (A) (A) (A) (A) (A) (A) (A) (A) (A) (A) (A)
                 (A) (A) (A) (A) (A) (A) (A) (A) (A) (A) (A) (A)
                 (A) (A) (A) (A) (A) (A) (A) (A) (A) (A) (A) (A)
                 (A) (A) (A) (A) (A) (A) (A) (A) (A) (A) (A) (A)
                 (A) (A) (A) (A) (A) (A) (A) (A) (A) (A) (A) (A)
                 (A) (A) (A) (A) (A) (A) (A) (A) (A) (A) (A) (A)
                 (A) (A) (A) (A) (A) (A) (A) (A) (A) (A) (A) (A)
                 (A) (A) (A) (A) (A) (A) (A) (A) (A) (A) (A) (A)
                 (A) (A) (A) (A) (A) (A) (A) (A) (A) (A) (A) (A)
                 (A) (A) (A) (A) (A) (A) (A) (A) (A) (A) (A) (A)
                 (A) (A) (A) (A) (A) (A) (A) (A) (A) (A) (A) (A)
                 (A) (A) (A) (A) (A) (A) (A) (A) (A) (A) (A) (A)
                 (A) (A) (A) (A) (A) (A) (A) (A) (A) (A) (A) (A)
                 (A) (A) (A) (A) (A) (A) (A) (A)
 Beta  Orbitals:
       Occupied  (A) (A) (A) (A) (A) (A) (A) (A) (A) (A) (A) (A)
                 (A) (A) (A) (A) (A) (A) (A) (A) (A) (A) (A) (A)
                 (A) (A) (A) (A) (A)
       Virtual   (A) (A) (A) (A) (A) (A) (A) (A) (A) (A) (A) (A)
                 (A) (A) (A) (A) (A) (A) (A) (A) (A) (A) (A) (A)
                 (A) (A) (A) (A) (A) (A) (A) (A) (A) (A) (A) (A)
                 (A) (A) (A) (A) (A) (A) (A) (A) (A) (A) (A) (A)
                 (A) (A) (A) (A) (A) (A) (A) (A) (A) (A) (A) (A)
                 (A) (A) (A) (A) (A) (A) (A) (A) (A) (A) (A) (A)
                 (A) (A) (A) (A) (A) (A) (A) (A) (A) (A) (A) (A)
                 (A) (A) (A) (A) (A) (A) (A) (A) (A) (A) (A) (A)
                 (A) (A) (A) (A) (A) (A) (A) (A) (A) (A) (A) (A)
                 (A) (A) (A) (A) (A) (A) (A) (A) (A) (A) (A) (A)
                 (A) (A) (A) (A) (A) (A) (A) (A) (A) (A) (A) (A)
                 (A) (A) (A) (A) (A) (A) (A) (A) (A) (A) (A) (A)
                 (A) (A) (A) (A) (A) (A) (A) (A) (A) (A) (A) (A)
                 (A) (A) (A) (A) (A) (A) (A) (A) (A) (A) (A) (A)
                 (A) (A) (A) (A) (A) (A) (A) (A) (A) (A) (A) (A)
                 (A) (A) (A) (A) (A) (A) (A) (A) (A) (A) (A) (A)
                 (A) (A) (A) (A) (A) (A) (A) (A) (A) (A) (A) (A)
                 (A) (A) (A) (A) (A) (A) (A) (A) (A) (A) (A) (A)
                 (A) (A) (A) (A) (A) (A) (A) (A) (A) (A) (A) (A)
                 (A) (A) (A) (A) (A) (A) (A) (A) (A) (A) (A) (A)
                 (A) (A) (A) (A) (A) (A) (A) (A) (A) (A) (A) (A)
                 (A) (A) (A) (A) (A) (A) (A) (A) (A) (A) (A) (A)
                 (A) (A) (A) (A) (A) (A) (A) (A) (A) (A) (A) (A)
                 (A) (A) (A) (A) (A) (A) (A) (A) (A) (A) (A) (A)
                 (A) (A) (A) (A) (A) (A) (A) (A) (A) (A) (A) (A)
                 (A) (A) (A) (A) (A) (A) (A) (A) (A)
 The electronic state is 2-A.
 Alpha  occ. eigenvalues --  -19.18634 -19.18436 -10.24249 -10.20638 -10.18829
 Alpha  occ. eigenvalues --  -10.18731 -10.18611 -10.18512  -1.18760  -0.91188
 Alpha  occ. eigenvalues --   -0.83555  -0.75386  -0.73315  -0.62508  -0.60530
 Alpha  occ. eigenvalues --   -0.56638  -0.52648  -0.49924  -0.48009  -0.46402
 Alpha  occ. eigenvalues --   -0.43071  -0.42108  -0.41508  -0.36327  -0.34713
 Alpha  occ. eigenvalues --   -0.34335  -0.30440  -0.28027  -0.25573  -0.19639
 Alpha virt. eigenvalues --   -0.02532   0.02419   0.04403   0.06152   0.06970
 Alpha virt. eigenvalues --    0.07356   0.08918   0.10444   0.11969   0.14138
 Alpha virt. eigenvalues --    0.17245   0.20366   0.22618   0.22982   0.25728
 Alpha virt. eigenvalues --    0.26719   0.27251   0.28339   0.31480   0.32739
 Alpha virt. eigenvalues --    0.33420   0.34346   0.34723   0.36720   0.36928
 Alpha virt. eigenvalues --    0.38917   0.39245   0.40718   0.41542   0.42282
 Alpha virt. eigenvalues --    0.43209   0.43678   0.44794   0.46233   0.47174
 Alpha virt. eigenvalues --    0.47795   0.48137   0.50378   0.51849   0.52633
 Alpha virt. eigenvalues --    0.54159   0.57448   0.58458   0.59901   0.60855
 Alpha virt. eigenvalues --    0.64744   0.64863   0.65555   0.68208   0.68642
 Alpha virt. eigenvalues --    0.69224   0.70869   0.71369   0.72307   0.75573
 Alpha virt. eigenvalues --    0.75821   0.81450   0.82712   0.84977   0.86306
 Alpha virt. eigenvalues --    0.90565   0.92574   0.93692   0.94783   0.97651
 Alpha virt. eigenvalues --    0.99461   1.00278   1.01753   1.02939   1.04412
 Alpha virt. eigenvalues --    1.06315   1.07586   1.08426   1.12382   1.15690
 Alpha virt. eigenvalues --    1.16394   1.17066   1.18748   1.20175   1.20388
 Alpha virt. eigenvalues --    1.22429   1.22642   1.24023   1.25944   1.27526
 Alpha virt. eigenvalues --    1.30755   1.31472   1.33169   1.34086   1.36135
 Alpha virt. eigenvalues --    1.37154   1.40159   1.41693   1.43230   1.44439
 Alpha virt. eigenvalues --    1.45577   1.48534   1.49866   1.52093   1.55257
 Alpha virt. eigenvalues --    1.60907   1.61058   1.64855   1.73700   1.78308
 Alpha virt. eigenvalues --    1.83564   1.88227   1.90090   1.94899   1.96420
 Alpha virt. eigenvalues --    1.97951   1.98816   2.01976   2.03281   2.06019
 Alpha virt. eigenvalues --    2.09034   2.09309   2.12322   2.12692   2.17131
 Alpha virt. eigenvalues --    2.18500   2.20518   2.21108   2.26332   2.31828
 Alpha virt. eigenvalues --    2.37851   2.37925   2.38320   2.40714   2.41886
 Alpha virt. eigenvalues --    2.45588   2.48199   2.49930   2.51349   2.56557
 Alpha virt. eigenvalues --    2.56841   2.59332   2.61251   2.63334   2.64571
 Alpha virt. eigenvalues --    2.68652   2.71041   2.71267   2.72055   2.74334
 Alpha virt. eigenvalues --    2.76141   2.79471   2.80968   2.82235   2.84437
 Alpha virt. eigenvalues --    2.86004   2.88440   2.89523   2.90193   2.92864
 Alpha virt. eigenvalues --    2.93281   2.95045   2.96494   2.98096   3.00352
 Alpha virt. eigenvalues --    3.01518   3.03816   3.04929   3.06270   3.07690
 Alpha virt. eigenvalues --    3.09449   3.11430   3.14398   3.17270   3.18498
 Alpha virt. eigenvalues --    3.19700   3.21923   3.22189   3.22965   3.26229
 Alpha virt. eigenvalues --    3.26666   3.27306   3.28636   3.30404   3.30529
 Alpha virt. eigenvalues --    3.32979   3.33862   3.35963   3.36975   3.37790
 Alpha virt. eigenvalues --    3.41668   3.47221   3.47651   3.49983   3.50200
 Alpha virt. eigenvalues --    3.50689   3.54174   3.55724   3.60949   3.61922
 Alpha virt. eigenvalues --    3.63856   3.65862   3.67471   3.68962   3.69672
 Alpha virt. eigenvalues --    3.71198   3.73072   3.73335   3.74028   3.76198
 Alpha virt. eigenvalues --    3.78879   3.79982   3.81437   3.83083   3.83510
 Alpha virt. eigenvalues --    3.85442   3.87540   3.89017   3.91603   3.97004
 Alpha virt. eigenvalues --    3.97635   4.00590   4.03937   4.04236   4.05246
 Alpha virt. eigenvalues --    4.06025   4.08074   4.09751   4.10099   4.12795
 Alpha virt. eigenvalues --    4.14055   4.16162   4.19088   4.19975   4.21521
 Alpha virt. eigenvalues --    4.24835   4.27153   4.28343   4.29406   4.32715
 Alpha virt. eigenvalues --    4.36258   4.37078   4.37852   4.40521   4.45974
 Alpha virt. eigenvalues --    4.49562   4.57590   4.58791   4.59594   4.62133
 Alpha virt. eigenvalues --    4.65063   4.66753   4.69423   4.71862   4.73287
 Alpha virt. eigenvalues --    4.76193   4.78585   4.80969   4.84207   4.86643
 Alpha virt. eigenvalues --    4.87603   4.90264   4.93470   4.96115   4.97816
 Alpha virt. eigenvalues --    5.04136   5.04859   5.06584   5.08187   5.10666
 Alpha virt. eigenvalues --    5.14419   5.22798   5.26368   5.28008   5.29880
 Alpha virt. eigenvalues --    5.37692   5.46833   5.50268   5.56284   5.62603
 Alpha virt. eigenvalues --    5.65093   5.75130   5.79851   5.82601   5.87032
 Alpha virt. eigenvalues --    5.96112   6.04855   6.06632   6.13849   6.26852
 Alpha virt. eigenvalues --    6.36614   6.38920   6.45339   6.50581   6.52120
 Alpha virt. eigenvalues --    6.60951   6.68551   6.78326   6.81284   6.94194
 Alpha virt. eigenvalues --    6.98919   7.22431   7.35867   7.50723   7.76479
 Alpha virt. eigenvalues --    9.10128  10.41324  10.97765  11.40621  11.73537
 Alpha virt. eigenvalues --   12.10140  13.32020  14.70017
  Beta  occ. eigenvalues --  -19.18476 -19.18429 -10.24328 -10.19646 -10.19109
  Beta  occ. eigenvalues --  -10.18711 -10.18270 -10.18164  -1.18580  -0.90895
  Beta  occ. eigenvalues --   -0.82953  -0.74951  -0.72138  -0.61463  -0.60143
  Beta  occ. eigenvalues --   -0.56345  -0.52506  -0.49437  -0.47731  -0.46044
  Beta  occ. eigenvalues --   -0.42945  -0.41783  -0.40982  -0.35696  -0.34475
  Beta  occ. eigenvalues --   -0.32983  -0.30253  -0.26586  -0.24895
  Beta virt. eigenvalues --   -0.09692  -0.00994   0.02659   0.04473   0.06689
  Beta virt. eigenvalues --    0.07158   0.07922   0.09409   0.10641   0.12143
  Beta virt. eigenvalues --    0.14588   0.17626   0.20938   0.23034   0.23259
  Beta virt. eigenvalues --    0.25939   0.26884   0.27851   0.28866   0.32110
  Beta virt. eigenvalues --    0.33439   0.33808   0.35207   0.35229   0.36913
  Beta virt. eigenvalues --    0.37959   0.39460   0.39593   0.41277   0.41859
  Beta virt. eigenvalues --    0.42721   0.43596   0.43904   0.45262   0.46895
  Beta virt. eigenvalues --    0.47420   0.47898   0.48392   0.50569   0.52232
  Beta virt. eigenvalues --    0.52898   0.54440   0.57765   0.58699   0.60067
  Beta virt. eigenvalues --    0.61278   0.64978   0.65368   0.65902   0.68540
  Beta virt. eigenvalues --    0.68840   0.69482   0.71230   0.71879   0.72752
  Beta virt. eigenvalues --    0.75902   0.76148   0.81783   0.82950   0.85125
  Beta virt. eigenvalues --    0.86451   0.90774   0.92802   0.93902   0.95221
  Beta virt. eigenvalues --    0.97905   0.99834   1.00936   1.02037   1.03335
  Beta virt. eigenvalues --    1.04750   1.06753   1.07736   1.08704   1.12466
  Beta virt. eigenvalues --    1.16116   1.16676   1.17414   1.18994   1.20565
  Beta virt. eigenvalues --    1.20837   1.22846   1.23229   1.24384   1.26394
  Beta virt. eigenvalues --    1.27801   1.31210   1.31909   1.33605   1.34477
  Beta virt. eigenvalues --    1.36448   1.37384   1.40421   1.42028   1.44206
  Beta virt. eigenvalues --    1.44625   1.45779   1.48868   1.50424   1.52602
  Beta virt. eigenvalues --    1.55569   1.61070   1.61598   1.65452   1.73944
  Beta virt. eigenvalues --    1.78633   1.83841   1.88529   1.90246   1.95249
  Beta virt. eigenvalues --    1.96694   1.98621   1.98994   2.02421   2.03596
  Beta virt. eigenvalues --    2.06203   2.09129   2.09819   2.12530   2.15316
  Beta virt. eigenvalues --    2.17729   2.19018   2.21199   2.21812   2.26734
  Beta virt. eigenvalues --    2.32246   2.38373   2.38580   2.38811   2.41209
  Beta virt. eigenvalues --    2.42738   2.46701   2.48638   2.50404   2.51603
  Beta virt. eigenvalues --    2.57071   2.57339   2.59894   2.61621   2.63945
  Beta virt. eigenvalues --    2.65430   2.69612   2.71587   2.71883   2.72843
  Beta virt. eigenvalues --    2.74876   2.76667   2.80163   2.81487   2.82565
  Beta virt. eigenvalues --    2.85478   2.86756   2.88901   2.90295   2.90713
  Beta virt. eigenvalues --    2.93902   2.94151   2.95671   2.97628   2.98553
  Beta virt. eigenvalues --    3.00718   3.02288   3.04250   3.05189   3.06791
  Beta virt. eigenvalues --    3.08138   3.10153   3.11947   3.15276   3.17771
  Beta virt. eigenvalues --    3.19048   3.20437   3.22520   3.22912   3.23334
  Beta virt. eigenvalues --    3.26536   3.27200   3.27944   3.28984   3.30816
  Beta virt. eigenvalues --    3.31038   3.33354   3.34292   3.36556   3.37682
  Beta virt. eigenvalues --    3.38138   3.42028   3.47694   3.48185   3.50534
  Beta virt. eigenvalues --    3.50629   3.51169   3.54327   3.55951   3.61448
  Beta virt. eigenvalues --    3.62278   3.64313   3.66223   3.67706   3.69220
  Beta virt. eigenvalues --    3.70049   3.71557   3.73343   3.73539   3.74451
  Beta virt. eigenvalues --    3.76417   3.79048   3.80269   3.81625   3.83440
  Beta virt. eigenvalues --    3.83847   3.85722   3.87663   3.89430   3.91946
  Beta virt. eigenvalues --    3.97434   3.98089   4.00856   4.04330   4.04471
  Beta virt. eigenvalues --    4.05593   4.06508   4.08410   4.09992   4.10354
  Beta virt. eigenvalues --    4.13412   4.14294   4.16498   4.19265   4.20113
  Beta virt. eigenvalues --    4.21734   4.25185   4.27451   4.28430   4.29911
  Beta virt. eigenvalues --    4.32859   4.36439   4.37319   4.38272   4.40789
  Beta virt. eigenvalues --    4.46260   4.49820   4.57772   4.59083   4.59796
  Beta virt. eigenvalues --    4.62614   4.65650   4.67250   4.69562   4.72427
  Beta virt. eigenvalues --    4.73754   4.76383   4.78793   4.81145   4.84386
  Beta virt. eigenvalues --    4.87085   4.88009   4.90440   4.93662   4.96309
  Beta virt. eigenvalues --    4.97991   5.04312   5.05065   5.06749   5.08430
  Beta virt. eigenvalues --    5.10767   5.14632   5.22996   5.26561   5.28306
  Beta virt. eigenvalues --    5.30060   5.37843   5.47026   5.50430   5.56489
  Beta virt. eigenvalues --    5.62840   5.65230   5.75276   5.80060   5.82742
  Beta virt. eigenvalues --    5.87357   5.96275   6.05114   6.06689   6.13926
  Beta virt. eigenvalues --    6.27034   6.36650   6.39010   6.45422   6.50665
  Beta virt. eigenvalues --    6.52209   6.60996   6.68625   6.78604   6.81586
  Beta virt. eigenvalues --    6.94346   6.99052   7.22547   7.36037   7.50851
  Beta virt. eigenvalues --    7.76567   9.10413  10.41470  10.98808  11.40988
  Beta virt. eigenvalues --   11.73678  12.10249  13.32235  14.70274
          Condensed to atoms (all electrons):
               1          2          3          4          5          6
     1  C    4.966802   0.383657  -0.035471  -0.026237  -0.050922   0.509812
     2  C    0.383657   4.960049   0.498089  -0.011665  -0.026568  -0.033539
     3  C   -0.035471   0.498089   5.137742   0.255794   0.001021  -0.033473
     4  C   -0.026237  -0.011665   0.255794   4.812161   0.247430  -0.026650
     5  C   -0.050922  -0.026568   0.001021   0.247430   5.315667   0.420538
     6  C    0.509812  -0.033539  -0.033473  -0.026650   0.420538   4.919671
     7  H    0.005841  -0.000977   0.007858  -0.047467   0.408832  -0.030035
     8  H    0.008208  -0.048224   0.421050  -0.042981   0.008869  -0.001692
     9  H   -0.044466   0.425702  -0.046966   0.007946  -0.001102   0.006744
    10  O   -0.000027   0.002456  -0.031861   0.310395  -0.071786   0.003146
    11  H    0.002118  -0.003887  -0.030013   0.410092  -0.065008   0.003404
    12  O   -0.000150  -0.000195   0.010297  -0.069890   0.019795   0.002354
    13  H   -0.000095   0.000290  -0.001960  -0.008665   0.009044   0.000358
    14  H    0.429367  -0.042916   0.006333  -0.000728   0.008034  -0.053060
    15  H   -0.051128   0.007682  -0.000798   0.003963  -0.036246   0.423704
               7          8          9         10         11         12
     1  C    0.005841   0.008208  -0.044466  -0.000027   0.002118  -0.000150
     2  C   -0.000977  -0.048224   0.425702   0.002456  -0.003887  -0.000195
     3  C    0.007858   0.421050  -0.046966  -0.031861  -0.030013   0.010297
     4  C   -0.047467  -0.042981   0.007946   0.310395   0.410092  -0.069890
     5  C    0.408832   0.008869  -0.001102  -0.071786  -0.065008   0.019795
     6  C   -0.030035  -0.001692   0.006744   0.003146   0.003404   0.002354
     7  H    0.549245  -0.000143   0.000055  -0.006026  -0.003502   0.010905
     8  H   -0.000143   0.548863  -0.010522   0.005843  -0.005049   0.000062
     9  H    0.000055  -0.010522   0.558058  -0.000136  -0.000458   0.000011
    10  O   -0.006026   0.005843  -0.000136   7.997533  -0.048646   0.039968
    11  H   -0.003502  -0.005049  -0.000458  -0.048646   0.665429   0.007034
    12  O    0.010905   0.000062   0.000011   0.039968   0.007034   7.868798
    13  H   -0.000098   0.000026  -0.000002  -0.036015  -0.001562   0.325974
    14  H   -0.000310  -0.000319  -0.005349   0.000011   0.000106  -0.000001
    15  H   -0.003865   0.000089  -0.000348  -0.000118  -0.000419   0.000006
              13         14         15
     1  C   -0.000095   0.429367  -0.051128
     2  C    0.000290  -0.042916   0.007682
     3  C   -0.001960   0.006333  -0.000798
     4  C   -0.008665  -0.000728   0.003963
     5  C    0.009044   0.008034  -0.036246
     6  C    0.000358  -0.053060   0.423704
     7  H   -0.000098  -0.000310  -0.003865
     8  H    0.000026  -0.000319   0.000089
     9  H   -0.000002  -0.005349  -0.000348
    10  O   -0.036015   0.000011  -0.000118
    11  H   -0.001562   0.000106  -0.000419
    12  O    0.325974  -0.000001   0.000006
    13  H    0.486047  -0.000000   0.000009
    14  H   -0.000000   0.560112  -0.010237
    15  H    0.000009  -0.010237   0.553112
          Atomic-Atomic Spin Densities.
               1          2          3          4          5          6
     1  C    0.437085  -0.000425  -0.021317   0.001735  -0.035491   0.005528
     2  C   -0.000425  -0.117435   0.001407   0.001151   0.000691   0.005382
     3  C   -0.021317   0.001407   0.235912  -0.005133   0.016492   0.001235
     4  C    0.001735   0.001151  -0.005133  -0.030728  -0.019152   0.000746
     5  C   -0.035491   0.000691   0.016492  -0.019152   0.763503  -0.002787
     6  C    0.005528   0.005382   0.001235   0.000746  -0.002787  -0.208916
     7  H   -0.000229  -0.000091  -0.000143   0.000847   0.009601   0.000899
     8  H   -0.000046   0.000188   0.003170   0.000856   0.000054  -0.000061
     9  H   -0.000568  -0.001892  -0.000134   0.000152  -0.000071   0.000093
    10  O    0.000454  -0.000268  -0.005097  -0.000196  -0.023250   0.000132
    11  H    0.001195  -0.000016  -0.009786   0.013762  -0.010357  -0.000345
    12  O   -0.000015   0.000013   0.000253   0.001277   0.001777  -0.000005
    13  H   -0.000026   0.000008   0.000131  -0.000138   0.002799  -0.000019
    14  H    0.006542   0.000909  -0.000181  -0.000087  -0.000145   0.000604
    15  H   -0.000207  -0.000004   0.000002   0.000089  -0.000805  -0.002964
               7          8          9         10         11         12
     1  C   -0.000229  -0.000046  -0.000568   0.000454   0.001195  -0.000015
     2  C   -0.000091   0.000188  -0.001892  -0.000268  -0.000016   0.000013
     3  C   -0.000143   0.003170  -0.000134  -0.005097  -0.009786   0.000253
     4  C    0.000847   0.000856   0.000152  -0.000196   0.013762   0.001277
     5  C    0.009601   0.000054  -0.000071  -0.023250  -0.010357   0.001777
     6  C    0.000899  -0.000061   0.000093   0.000132  -0.000345  -0.000005
     7  H   -0.035490   0.000013  -0.000001   0.000197   0.000155  -0.000013
     8  H    0.000013  -0.012318   0.000023  -0.000305   0.000626   0.000020
     9  H   -0.000001   0.000023   0.006103   0.000016  -0.000054  -0.000001
    10  O    0.000197  -0.000305   0.000016   0.075018  -0.008828  -0.004370
    11  H    0.000155   0.000626  -0.000054  -0.008828   0.043156   0.001424
    12  O   -0.000013   0.000020  -0.000001  -0.004370   0.001424   0.004950
    13  H    0.000012   0.000008  -0.000000  -0.001622   0.000586  -0.001104
    14  H    0.000027   0.000020   0.000110  -0.000003   0.000008   0.000000
    15  H    0.000155  -0.000003  -0.000009   0.000012  -0.000031  -0.000001
              13         14         15
     1  C   -0.000026   0.006542  -0.000207
     2  C    0.000008   0.000909  -0.000004
     3  C    0.000131  -0.000181   0.000002
     4  C   -0.000138  -0.000087   0.000089
     5  C    0.002799  -0.000145  -0.000805
     6  C   -0.000019   0.000604  -0.002964
     7  H    0.000012   0.000027   0.000155
     8  H    0.000008   0.000020  -0.000003
     9  H   -0.000000   0.000110  -0.000009
    10  O   -0.001622  -0.000003   0.000012
    11  H    0.000586   0.000008  -0.000031
    12  O   -0.001104   0.000000  -0.000001
    13  H    0.002043   0.000000  -0.000002
    14  H    0.000000  -0.024778   0.000285
    15  H   -0.000002   0.000285   0.009749
 Mulliken charges and spin densities:
               1          2
     1  C   -0.097310   0.394216
     2  C   -0.109956  -0.110381
     3  C   -0.157641   0.216811
     4  C    0.186500  -0.034818
     5  C   -0.187600   0.702859
     6  C   -0.111283  -0.200479
     7  H    0.109685  -0.024061
     8  H    0.115919  -0.007754
     9  H    0.110831   0.003767
    10  O   -0.164737   0.031889
    11  H    0.070360   0.031495
    12  O   -0.214969   0.004205
    13  H    0.226649   0.002674
    14  H    0.108957  -0.016688
    15  H    0.114593   0.006266
 Sum of Mulliken charges =  -0.00000   1.00000
 Mulliken charges and spin densities with hydrogens summed into heavy atoms:
               1          2
     1  C    0.011648   0.377528
     2  C    0.000875  -0.106614
     3  C   -0.041722   0.209056
     4  C    0.256860  -0.003324
     5  C   -0.077915   0.678797
     6  C    0.003310  -0.194213
    10  O   -0.164737   0.031889
    12  O    0.011681   0.006879
 APT charges:
               1
     1  C   -0.555063
     2  C   -0.475516
     3  C   -0.616771
     4  C   -0.281967
     5  C   -0.575130
     6  C   -0.548347
     7  H    0.452135
     8  H    0.491001
     9  H    0.589170
    10  O    0.076144
    11  H    0.308642
    12  O   -0.634220
    13  H    0.530861
    14  H    0.646516
    15  H    0.592546
 Sum of APT charges =  -0.00000
 APT charges with hydrogens summed into heavy atoms:
               1
     1  C    0.091452
     2  C    0.113654
     3  C   -0.125771
     4  C    0.026675
     5  C   -0.122996
     6  C    0.044200
    10  O    0.076144
    12  O   -0.103359
 Electronic spatial extent (au):  <R**2>=            957.8178
 Charge=             -0.0000 electrons
 Dipole moment (field-independent basis, Debye):
    X=              0.8752    Y=              1.3041    Z=              0.0835  Tot=              1.5728
 Quadrupole moment (field-independent basis, Debye-Ang):
   XX=            -45.1501   YY=            -42.1597   ZZ=            -49.4187
   XY=             -4.5731   XZ=              0.0280   YZ=             -1.8003
 Traceless Quadrupole moment (field-independent basis, Debye-Ang):
   XX=              0.4260   YY=              3.4165   ZZ=             -3.8425
   XY=             -4.5731   XZ=              0.0280   YZ=             -1.8003
 Octapole moment (field-independent basis, Debye-Ang**2):
  XXX=             -8.2984  YYY=              0.7639  ZZZ=             -1.8000  XYY=             -8.0880
  XXY=             12.9208  XXZ=            -11.1382  XZZ=            -11.9092  YZZ=             -0.1270
  YYZ=             -1.5048  XYZ=              3.8926
 Hexadecapole moment (field-independent basis, Debye-Ang**3):
 XXXX=           -781.6938 YYYY=           -309.2748 ZZZZ=            -85.3794 XXXY=            -39.7409
 XXXZ=             15.1481 YYYX=             -7.0805 YYYZ=             -1.9613 ZZZX=              4.8105
 ZZZY=             -1.3393 XXYY=           -168.2393 XXZZ=           -154.1475 YYZZ=            -76.4467
 XXYZ=            -10.4210 YYXZ=              0.5930 ZZXY=             -2.4701
 N-N= 3.544381962859D+02 E-N=-1.603822866337D+03  KE= 3.807538858916D+02
  Exact polarizability:       0.000       0.000       0.000       0.000       0.000       0.000
 Approx polarizability:     148.748      -5.546     127.084     -13.180      -1.195      75.359
                          Isotropic Fermi Contact Couplings
        Atom                 a.u.       MegaHertz       Gauss      10(-4) cm-1
     1  C(13)              0.01671      18.78883       6.70432       6.26728
     2  C(13)             -0.01650     -18.54668      -6.61792      -6.18651
     3  C(13)              0.01062      11.93421       4.25842       3.98082
     4  C(13)             -0.02126     -23.89931      -8.52787      -7.97195
     5  C(13)              0.03776      42.44744      15.14630      14.15894
     6  C(13)             -0.02853     -32.07568     -11.44540     -10.69929
     7  H(1)              -0.00934     -41.74290     -14.89490     -13.92393
     8  H(1)              -0.00323     -14.42132      -5.14588      -4.81043
     9  H(1)               0.00145       6.47903       2.31188       2.16117
    10  O(17)              0.06031     -36.56237     -13.04636     -12.19589
    11  H(1)               0.02027      90.58824      32.32414      30.21698
    12  O(17)              0.00198      -1.20073      -0.42845      -0.40052
    13  H(1)               0.00004       0.18514       0.06606       0.06176
    14  H(1)              -0.00603     -26.95149      -9.61696      -8.99005
    15  H(1)               0.00239      10.66857       3.80681       3.55865
 --------------------------------------------------------
       Center         ----  Spin Dipole Couplings  ----
                      3XX-RR        3YY-RR        3ZZ-RR
 --------------------------------------------------------
     1   Atom       -0.192606     -0.245376      0.437983
     2   Atom        0.052946      0.054876     -0.107822
     3   Atom       -0.124271     -0.115195      0.239466
     4   Atom        0.004599      0.001548     -0.006148
     5   Atom       -0.349415     -0.396507      0.745921
     6   Atom        0.094331      0.092096     -0.186428
     7   Atom       -0.015218      0.017270     -0.002052
     8   Atom       -0.014174      0.016620     -0.002447
     9   Atom        0.001294      0.003942     -0.005237
    10   Atom        0.042477     -0.022663     -0.019814
    11   Atom       -0.003172      0.000700      0.002472
    12   Atom        0.030233     -0.018234     -0.011999
    13   Atom        0.006883     -0.002793     -0.004091
    14   Atom        0.028196     -0.031127      0.002931
    15   Atom        0.011090     -0.003625     -0.007465
 --------------------------------------------------------
                        XY            XZ            YZ
 --------------------------------------------------------
     1   Atom        0.003763      0.152698      0.006219
     2   Atom        0.003444     -0.038640     -0.002950
     3   Atom        0.001668      0.058751      0.015217
     4   Atom        0.003928     -0.008463     -0.002612
     5   Atom        0.000843      0.247289      0.020439
     6   Atom       -0.011027     -0.066297     -0.001422
     7   Atom       -0.045600      0.006400      0.008111
     8   Atom        0.009172      0.002997     -0.000398
     9   Atom        0.003311     -0.001645     -0.001115
    10   Atom        0.106845      0.107702      0.081926
    11   Atom        0.005123     -0.003388     -0.004648
    12   Atom        0.004017      0.007357     -0.003363
    13   Atom       -0.000467      0.002162     -0.000690
    14   Atom        0.007460     -0.006710     -0.001395
    15   Atom       -0.003401     -0.004377      0.000884
 --------------------------------------------------------


 ---------------------------------------------------------------------------------
              Anisotropic Spin Dipole Couplings in Principal Axis System
 ---------------------------------------------------------------------------------

       Atom             a.u.   MegaHertz   Gauss  10(-4) cm-1        Axes

              Baa    -0.2457   -32.975   -11.766   -10.999 -0.1238  0.9921  0.0186
     1 C(13)  Bbb    -0.2273   -30.508   -10.886   -10.176  0.9668  0.1249 -0.2230
              Bcc     0.4731    63.483    22.652    21.176  0.2236  0.0096  0.9746
 
              Baa    -0.1167   -15.654    -5.586    -5.221  0.2219  0.0123  0.9750
     2 C(13)  Bbb     0.0531     7.119     2.540     2.375 -0.4109  0.9080  0.0820
              Bcc     0.0636     8.535     3.045     2.847  0.8843  0.4188 -0.2065
 
              Baa    -0.1336   -17.922    -6.395    -5.978  0.9868  0.0405 -0.1571
     3 C(13)  Bbb    -0.1158   -15.540    -5.545    -5.184 -0.0466  0.9983 -0.0351
              Bcc     0.2494    33.462    11.940    11.162  0.1554  0.0419  0.9870
 
              Baa    -0.0108    -1.451    -0.518    -0.484  0.4741  0.0352  0.8798
     4 C(13)  Bbb    -0.0007    -0.089    -0.032    -0.030 -0.3922  0.9030  0.1752
              Bcc     0.0115     1.540     0.550     0.514  0.7883  0.4281 -0.4420
 
              Baa    -0.4043   -54.251   -19.358   -18.096  0.8841  0.4236 -0.1976
     5 C(13)  Bbb    -0.3952   -53.035   -18.924   -17.691 -0.4173  0.9057  0.0742
              Bcc     0.7995   107.286    38.282    35.787  0.2104  0.0169  0.9775
 
              Baa    -0.2013   -27.019    -9.641    -9.012  0.2192  0.0130  0.9756
     6 C(13)  Bbb     0.0872    11.700     4.175     3.903  0.4158  0.9033 -0.1054
              Bcc     0.1142    15.319     5.466     5.110  0.8826 -0.4287 -0.1926
 
              Baa    -0.0495   -26.386    -9.415    -8.802  0.7963  0.5691 -0.2049
     7 H(1)   Bbb    -0.0001    -0.080    -0.028    -0.027  0.2008  0.0708  0.9771
              Bcc     0.0496    26.466     9.444     8.828 -0.5706  0.8192  0.0579
 
              Baa    -0.0173    -9.232    -3.294    -3.079  0.9457 -0.2580 -0.1977
     8 H(1)   Bbb    -0.0019    -0.987    -0.352    -0.329  0.1855 -0.0710  0.9801
              Bcc     0.0192    10.219     3.646     3.409  0.2669  0.9635  0.0193
 
              Baa    -0.0056    -3.009    -1.074    -1.004  0.2123  0.0403  0.9764
     9 H(1)   Bbb    -0.0008    -0.446    -0.159    -0.149  0.7962 -0.5864 -0.1490
              Bcc     0.0065     3.456     1.233     1.153  0.5666  0.8090 -0.1566
 
              Baa    -0.1033     7.473     2.666     2.493 -0.1303  0.7864 -0.6039
    10 O(17)  Bbb    -0.1003     7.258     2.590     2.421  0.7162 -0.3465 -0.6057
              Bcc     0.2036   -14.730    -5.256    -4.913  0.6856  0.5114  0.5181
 
              Baa    -0.0067    -3.583    -1.279    -1.195  0.8294 -0.5582  0.0234
    11 H(1)   Bbb    -0.0025    -1.312    -0.468    -0.438  0.3489  0.5503  0.7586
              Bcc     0.0092     4.895     1.747     1.633 -0.4363 -0.6210  0.6512
 
              Baa    -0.0206     1.491     0.532     0.497 -0.1358  0.8781  0.4588
    12 O(17)  Bbb    -0.0111     0.803     0.287     0.268 -0.1095 -0.4735  0.8739
              Bcc     0.0317    -2.295    -0.819    -0.765  0.9847  0.0684  0.1605
 
              Baa    -0.0047    -2.501    -0.893    -0.834 -0.1633  0.3015  0.9394
    13 H(1)   Bbb    -0.0026    -1.409    -0.503    -0.470  0.1116  0.9517 -0.2861
              Bcc     0.0073     3.910     1.395     1.304  0.9802 -0.0582  0.1891
 
              Baa    -0.0321   -17.106    -6.104    -5.706 -0.1211  0.9925  0.0164
    14 H(1)   Bbb     0.0013     0.675     0.241     0.225  0.2383  0.0131  0.9711
              Bcc     0.0308    16.431     5.863     5.481  0.9636  0.1215 -0.2381
 
              Baa    -0.0084    -4.508    -1.609    -1.504  0.2138 -0.0281  0.9765
    15 H(1)   Bbb    -0.0044    -2.332    -0.832    -0.778  0.2100  0.9775 -0.0179
              Bcc     0.0128     6.840     2.441     2.282  0.9540 -0.2088 -0.2149
 

 ---------------------------------------------------------------------------------

 No NMR shielding tensors so no spin-rotation constants.
 Leave Link  601 at Wed Apr  6 23:08:23 2022, MaxMem=  1073741824 cpu:               2.7 elap:               0.4
 (Enter /home/saurabh/gaussian/g16/l701.exe)
 ... and contract with generalized density number  0.
 Compute integral second derivatives.
 Leave Link  701 at Wed Apr  6 23:08:23 2022, MaxMem=  1073741824 cpu:               2.0 elap:               0.3
 (Enter /home/saurabh/gaussian/g16/l702.exe)
 L702 exits ... SP integral derivatives will be done elsewhere.
 Leave Link  702 at Wed Apr  6 23:08:23 2022, MaxMem=  1073741824 cpu:               0.1 elap:               0.0
 (Enter /home/saurabh/gaussian/g16/l703.exe)
 Integral derivatives from FoFJK, PRISM(SPDF).
 Compute integral second derivatives, UseDBF=F ICtDFT=           0.
 Calling FoFJK, ICntrl=    100127 FMM=F ISym2X=0 I1Cent= 0 IOpClX= 1 NMat=1 NMatS=1 NMatT=0.
 FoFJK:  IHMeth= 1 ICntrl=  100127 DoSepK=F KAlg= 0 I1Cent=           0 FoldK=F
 IRaf=         0 NMat=       1 IRICut=       1 DoRegI=T DoRafI=F ISym2E= 0 IDoP0=0 IntGTp=1.
 FoFCou: FMM=F IPFlag=           0 FMFlag=      100000 FMFlg1=         800
         NFxFlg=           0 DoJE=F BraDBF=F KetDBF=F FulRan=T
         wScrn=  0.000000 ICntrl=    100127 IOpCl=  1 I1Cent=           0 NGrid=           0
         NMat0=    1 NMatS0=      1 NMatT0=    0 NMatD0=    1 NMtDS0=    0 NMtDT0=    0
 Symmetry not used in FoFCou.
 Leave Link  703 at Wed Apr  6 23:11:49 2022, MaxMem=  1073741824 cpu:            1650.5 elap:             206.3
 (Enter /home/saurabh/gaussian/g16/l716.exe)
 Dipole        = 3.44344839D-01 5.13085945D-01 3.28482936D-02
 Polarizability= 0.00000000D+00 0.00000000D+00 0.00000000D+00
                 0.00000000D+00 0.00000000D+00 0.00000000D+00
 ***** Axes restored to original set *****
 -------------------------------------------------------------------
 Center     Atomic                   Forces (Hartrees/Bohr)
 Number     Number              X              Y              Z
 -------------------------------------------------------------------
      1        6           0.016615572   -0.045430880   -0.001949903
      2        6           0.007640112    0.018938809   -0.002148624
      3        6           0.002108946    0.003201413   -0.004525918
      4        6           0.035613204    0.017325633    0.016074178
      5        6           0.054470097    0.002982074   -0.007667359
      6        6          -0.081567713    0.021157210    0.017729889
      7        1           0.010187349   -0.016587204   -0.002052930
      8        1          -0.004337135    0.004202405    0.000232166
      9        1          -0.000179229    0.002818450    0.000546506
     10        8           0.058460180   -0.044226323   -0.032243617
     11        1          -0.006222982    0.001104718   -0.012159592
     12        8          -0.089798365    0.053564079    0.015858463
     13        1           0.003034120   -0.015571130    0.011927512
     14        1          -0.001992551   -0.002775326    0.000249529
     15        1          -0.004031606   -0.000703929    0.000129700
 -------------------------------------------------------------------
 Cartesian Forces:  Max     0.089798365 RMS     0.027371199
 FormGI is forming the generalized inverse of G from B-inverse, IUseBI=4.
 Leave Link  716 at Wed Apr  6 23:11:50 2022, MaxMem=  1073741824 cpu:               0.3 elap:               0.1
 (Enter /home/saurabh/gaussian/g16/l103.exe)

 GradGradGradGradGradGradGradGradGradGradGradGradGradGradGradGradGradGrad
 Berny optimization.
 Red2BG is reusing G-inverse.
 Internal  Forces:  Max     0.098132382 RMS     0.016292809
 Search for a local minimum.
 Step number   1 out of a maximum of  100
 All quantities printed in internal units (Hartrees-Bohrs-Radians)
 RMS Force = .16293D-01 SwitMx=.10000D-02 MixMth= 1
 Mixed Optimization -- RFO/linear search
 Second derivative matrix not updated -- analytic derivatives used.
 ITU=  0
     Eigenvalues ---    0.00171   0.00619   0.00786   0.00914   0.01314
     Eigenvalues ---    0.01431   0.01700   0.02064   0.02403   0.02471
     Eigenvalues ---    0.04742   0.06592   0.06754   0.09315   0.10596
     Eigenvalues ---    0.10856   0.11911   0.12312   0.14204   0.15086
     Eigenvalues ---    0.16535   0.18386   0.19208   0.20150   0.23204
     Eigenvalues ---    0.25831   0.27407   0.28281   0.30510   0.33015
     Eigenvalues ---    0.34823   0.34900   0.34923   0.35020   0.40072
     Eigenvalues ---    0.41276   0.53646   0.53987   0.64148
 RFO step:  Lambda=-5.22160230D-02 EMin= 1.70630944D-03
 Linear search not attempted -- first point.
 Maximum step size (   0.300) exceeded in Quadratic search.
    -- Step size scaled by   0.682
 Iteration  1 RMS(Cart)=  0.03626279 RMS(Int)=  0.00284696
 Iteration  2 RMS(Cart)=  0.00393496 RMS(Int)=  0.00008093
 Iteration  3 RMS(Cart)=  0.00000380 RMS(Int)=  0.00008089
 Iteration  4 RMS(Cart)=  0.00000000 RMS(Int)=  0.00008089
 ITry= 1 IFail=0 DXMaxC= 1.48D-01 DCOld= 1.00D+10 DXMaxT= 3.00D-01 DXLimC= 3.00D+00 Rises=F
 Variable       Old X    -DE/DX   Delta X   Delta X   Delta X     New X
                                 (Linear)    (Quad)   (Total)
    R1        2.78906  -0.02479   0.00000  -0.07492  -0.07500   2.71405
    R2        2.52474   0.03412   0.00000   0.07794   0.07790   2.60264
    R3        2.05127  -0.00241   0.00000  -0.00577  -0.00577   2.04550
    R4        2.53613  -0.00135   0.00000   0.01508   0.01502   2.55115
    R5        2.05135  -0.00230   0.00000  -0.00361  -0.00361   2.04775
    R6        2.85677  -0.00596   0.00000  -0.01850  -0.01847   2.83830
    R7        2.05251  -0.00279   0.00000  -0.00546  -0.00546   2.04705
    R8        2.90715  -0.01655   0.00000  -0.04746  -0.04737   2.85978
    R9        2.66038   0.02444   0.00000   0.04434   0.04434   2.70472
   R10        2.10696  -0.00932   0.00000  -0.01740  -0.01740   2.08956
   R11        2.83396  -0.06412   0.00000  -0.22349  -0.22344   2.61052
   R12        2.09768  -0.01948   0.00000  -0.03422  -0.03422   2.06346
   R13        2.05094  -0.00210   0.00000  -0.00196  -0.00196   2.04898
[...]
 ! D30   D(7,5,6,1)            179.6184         -DE/DX =    0.0                 !
 ! D31   D(7,5,6,15)            -0.4188         -DE/DX =    0.0                 !
 ! D32   D(4,10,12,13)         115.4379         -DE/DX =    0.0                 !
 --------------------------------------------------------------------------------
 GradGradGradGradGradGradGradGradGradGradGradGradGradGradGradGradGradGrad

 Leave Link  103 at Wed Apr  6 23:31:49 2022, MaxMem=  1073741824 cpu:               0.2 elap:               0.0
 (Enter /home/saurabh/gaussian/g16/l9999.exe)

 ----------------------------------------------------------------------

 Electric dipole moment (input orientation):
 (Debye = 10**-18 statcoulomb cm , SI units = C m)
                  (au)            (Debye)         (10**-30 SI)
   Tot        0.719204D+00      0.182803D+01      0.609767D+01
   x          0.528538D+00      0.134341D+01      0.448113D+01
   y          0.482859D+00      0.122731D+01      0.409385D+01
   z         -0.689198D-01     -0.175177D+00     -0.584326D+00

 Dipole polarizability, Alpha (input orientation).
 (esu units = cm**3 , SI units = C**2 m**2 J**-1)
 Alpha(0;0):
               (au)            (10**-24 esu)      (10**-40 SI)
   iso        0.769316D+02      0.114001D+02      0.126843D+02
   aniso      0.497518D+02      0.737245D+01      0.820296D+01
   xx         0.102204D+03      0.151451D+02      0.168512D+02
   yx        -0.235781D+01     -0.349391D+00     -0.388750D+00
   yy         0.812134D+02      0.120346D+02      0.133903D+02
   zx        -0.719409D+01     -0.106605D+01     -0.118614D+01
   zy        -0.158566D+01     -0.234971D+00     -0.261441D+00
   zz         0.473771D+02      0.702056D+01      0.781143D+01

 ----------------------------------------------------------------------

 Dipole orientation:
     6          1.72036331         -1.70559515          3.51067225
     6          2.55026307         -2.69253149          1.17403122
     6          1.40307563         -2.04975515         -1.03401669
     6         -0.79004731         -0.27696769         -1.11360621
     6         -1.56978666          0.67750908          1.42735290
     6         -0.34467775         -0.01484564          3.57789729
     1         -3.15705209          1.96321319          1.48796902
     1          2.05709474         -2.78544019         -2.82426796
     1          4.13237133         -3.98929690          1.14596903
     8         -0.00461423          1.76764379         -2.79356231
     1         -2.40037379         -1.17531104         -2.06935258
     8         -2.27217450          3.11860411         -3.55992232
     1         -1.95797423          4.74902675         -2.80042593
     1          2.67311395         -2.22944538          5.23923393
     1         -0.95491639          0.73904370          5.37970223

 Electric dipole moment (dipole orientation):
 (Debye = 10**-18 statcoulomb cm , SI units = C m)
                  (au)            (Debye)         (10**-30 SI)
   Tot        0.719204D+00      0.182803D+01      0.609767D+01
   x          0.000000D+00      0.000000D+00      0.000000D+00
   y          0.000000D+00      0.000000D+00      0.000000D+00
   z          0.719204D+00      0.182803D+01      0.609767D+01

 Dipole polarizability, Alpha (dipole orientation).
 (esu units = cm**3 , SI units = C**2 m**2 J**-1)
 Alpha(0;0):
               (au)            (10**-24 esu)      (10**-40 SI)
   iso        0.769316D+02      0.114001D+02      0.126843D+02
   aniso      0.497518D+02      0.737245D+01      0.820296D+01
   xx         0.703659D+02      0.104272D+02      0.116018D+02
   yx        -0.234219D+02     -0.347076D+01     -0.386175D+01
   yy         0.692990D+02      0.102691D+02      0.114259D+02
   zx         0.899947D+01      0.133358D+01      0.148381D+01
   zy        -0.663545D+01     -0.983272D+00     -0.109404D+01
   zz         0.911297D+02      0.135040D+02      0.150253D+02

 ----------------------------------------------------------------------
 Unable to Open any file for archive entry.
 1\1\GINC-MEDIAWIKI\Freq\UB3LYP\CC-pVTZ\C6H7O2(2)\SAURABH\06-Apr-2022\0
 \\#P Geom=AllCheck Guess=TCheck SCRF=Check GenChk UB3LYP/CC-pVTZ Freq\
 \Mol_03\\0,2\C,2.2243763507,0.2978750159,-0.2410934477\C,1.7775239208,
 -1.0338318303,-0.0947034398\C,0.4887677868,-1.3164649101,0.2350295152\
 C,-0.5214469767,-0.2410030289,0.4621117269\C,0.0249245098,1.1401953912
 ,0.2973861623\C,1.3222394331,1.3667412108,-0.0421193952\H,-0.661007861
 9,1.9612625324,0.4547980019\H,0.1443682047,-2.3365886301,0.3328458412\
 H,2.478211253,-1.8447793975,-0.2478306767\O,-1.5977972548,-0.522080340
 8,-0.4845504012\H,-0.9768726813,-0.353950158,1.4559768698\O,-2.7691432
 542,0.2189409564,-0.0438281201\H,-2.8776348381,0.830710274,-0.78378530
 73\H,3.2508905557,0.4978625139,-0.5131494093\H,1.6752048524,2.38315840
 12,-0.1640149199\\Version=ES64L-G16RevC.01\State=2-A\HF=-383.2820609\S
 2=0.785409\S2-1=0.\S2A=0.750719\RMSD=2.140e-09\RMSF=3.156e-05\ZeroPoin
 t=0.116468\Thermal=0.1239333\ETot=-383.1581276\HTot=-383.1571834\GTot=
 -383.1981516\Dipole=0.5285378,0.482859,-0.0689198\DipoleDeriv=0.121047
 1,0.0180327,-0.0723647,0.0062122,0.0164503,-0.0145104,-0.0746833,-0.00
 62587,-0.1034257,-0.0082419,-0.1429246,-0.0128225,-0.0497566,0.059002,
 0.0268468,-0.0485568,0.0199935,-0.1020026,-0.0750834,0.0343529,-0.0868
 321,0.0599522,0.0418599,-0.032878,-0.1076145,0.0085988,-0.1793041,0.62
 19888,0.0975786,0.0997208,0.1860145,0.0685122,-0.0057791,0.308704,-0.0
 121825,0.4469945,0.0123362,-0.0087714,-0.0784349,-0.0770621,-0.0634642
 ,0.0126531,-0.0710301,0.0159988,-0.2085483,-0.1037359,0.0911727,-0.010
 9649,0.017834,0.1416091,-0.0179285,-0.0173072,-0.0271608,-0.1031743,0.
 0220022,0.0658767,0.0316181,0.0626403,-0.0231033,-0.0086786,0.0490094,
 -0.0042233,0.1141014,0.0553071,-0.0298647,0.0230797,-0.0274212,-0.0581
 392,0.0143677,0.0422447,0.0073668,0.1193565,-0.007541,0.0849454,0.0291
 139,0.0884306,-0.0334881,-0.0165189,0.0431647,-0.0156042,0.1245253,-0.
 2046694,-0.0795611,-0.0174372,-0.3711117,-0.1608313,0.0100331,-0.22703
 01,-0.010077,-0.3264501,-0.0723875,-0.0317904,0.0964986,-0.0344871,0.0
 735702,0.0151323,-0.0056706,0.0181611,-0.0685252,-0.6365468,-0.0176463
 ,-0.1291533,0.2197464,-0.2440981,-0.0709393,-0.0971289,-0.0777853,-0.1
 527137,0.3045963,-0.0063066,0.0562271,0.0086764,0.2299711,0.0598303,0.
 1162327,0.056256,0.1993855,-0.0737701,-0.0241461,0.0510003,-0.0265771,
 0.0484676,0.0084143,0.05499,0.0094071,0.1147775,0.0446984,-0.0509478,0
 .0207513,-0.0630908,-0.0963182,0.0199552,0.034676,0.0175098,0.1250032\
 Polar=102.2041283,-2.3578098,81.2134331,-7.1940869,-1.5856647,47.37710
 22\Quadrupole=-0.0859395,2.1431982,-2.0572587,-3.017256,0.4856075,-1.5
 706498\PG=C01 [X(C6H7O2)]\NImag=0\\0.65849153,0.02444871,0.54941188,-0
 .14146048,-0.01820887,0.14881336,-0.12812699,0.02159210,0.01793375,0.6
 5962272,-0.06802635,-0.23926524,0.02204715,-0.07223842,0.62986419,0.02
 023771,-0.00112381,-0.06134542,-0.13189131,0.00463585,0.15695067,-0.01
 628523,-0.08380618,0.00851663,-0.35745681,-0.00920452,0.07614267,0.660
 56702,-0.03813099,-0.01784294,0.01023350,-0.05953526,-0.12298423,0.016
 74186,0.08439407,0.62808396,0.00753600,0.02382037,0.00599364,0.0737592
 3,0.00216662,-0.07085032,-0.12635995,-0.03040009,0.16334998,0.00483005
 ,0.00256420,-0.00338196,-0.02909848,0.01616847,0.00937472,-0.12281958,
 0.04745304,0.02074560,0.42142679,0.00276247,-0.00863975,0.00003403,0.0
 0563744,0.01660861,-0.00262408,0.05268945,-0.16621912,-0.01541225,-0.0
 2742819,0.50974931,-0.00186077,-0.00185887,-0.01038050,0.00934721,-0.0
 0217066,0.00575301,0.01749164,-0.01733049,-0.07374527,-0.11281763,-0.0
 0414541,0.44874254,-0.05730288,0.06731076,0.01483490,-0.02484835,-0.02
 557176,0.00653955,0.02897678,0.02150582,-0.00757873,-0.09420414,-0.022
 43917,0.01779182,0.70234118,0.02153504,0.02457960,-0.00616443,-0.00699
 928,-0.00625467,0.00130785,0.00114481,-0.02678268,0.00162084,-0.015725
 48,-0.19421967,0.02207908,-0.04532584,0.57287784,0.01735381,-0.0191724
 2,0.00512067,0.00635213,0.00644139,-0.00416553,-0.00543239,-0.00542885
 ,0.00223002,0.01407516,0.01914347,-0.07371253,-0.14087737,0.00068078,0
 .17288325,-0.15872140,0.00887685,0.02617956,0.05914861,0.04316360,-0.0
 1469358,-0.03326595,-0.00384223,0.00846804,-0.01563738,-0.01854310,0.0
 0435934,-0.34633616,-0.03326368,0.07267793,0.60144962,0.09840196,-0.20
 702355,-0.02060953,0.00156813,-0.05442966,0.00193172,0.01477522,0.0025
 2733,-0.00365043,-0.02737188,0.00351648,0.00801865,-0.08520807,-0.1328
 5736,0.02437761,0.06825390,0.68467940,0.02332394,0.00267434,-0.0622422
 9,-0.01362917,-0.01021494,0.00960702,0.00778478,0.00121245,-0.00433864
 ,0.00628243,0.00551033,0.00746046,0.07839409,0.01095613,-0.07201739,-0
 .12470679,-0.03363492,0.15647691,-0.00376139,-0.00259311,0.00326274,-0
 .00024022,-0.00040026,-0.00018834,-0.00082952,-0.00240452,0.00044944,0
 .00996977,-0.00932965,-0.00158247,-0.16601888,0.13311860,0.03214413,-0
 .01408632,0.02491363,0.00465757,0.17487797,-0.00170025,0.00110053,0.00
 069993,-0.00044816,0.00000651,0.00008490,-0.00410679,-0.00365675,0.001
 12730,0.02030631,-0.01750483,-0.00393835,0.13576559,-0.22016658,-0.030
 18495,-0.00572015,0.00765517,0.00108708,-0.14529763,0.22959016,0.00332
 906,0.00091806,0.00738326,-0.00028611,0.00055482,-0.00074203,0.0009557
 3,0.00031411,0.00178372,-0.00321487,0.00294603,0.00257861,0.03240601,-
 0.03025782,-0.04007956,0.00568599,-0.00632961,0.00479801,-0.03688004,0
 .03181411,0.02937689,-0.00461014,0.00017015,0.00301625,-0.00431626,-0.
 02964154,0.00301812,-0.08322752,-0.08237496,0.01514813,0.00830839,0.02
 028915,-0.00299226,-0.00328391,0.00240267,0.00075420,-0.00053536,0.000
 25325,-0.00004937,0.00049491,0.00118023,-0.00007634,0.08454764,-0.0005
 9035,0.00188142,0.00004981,0.00059034,-0.00169017,0.00020397,-0.084133
 46,-0.30834601,0.02482695,-0.00866427,-0.01772091,0.00238795,0.0041203
 5,-0.00102729,-0.00115237,0.00027037,0.00026212,-0.00008925,-0.0005990
 4,-0.00100462,0.00030108,0.09011410,0.32517992,0.00348485,-0.00014295,
 0.00726516,0.00346470,0.00824133,0.00496008,0.01444041,0.02411427,-0.0
 3521372,-0.00229516,-0.00605748,0.00144244,0.00144409,0.00014212,0.001
 62826,-0.00030208,-0.00059195,-0.00068688,-0.00001102,-0.00041426,0.00
 050694,-0.01832839,-0.02595553,0.02503893,0.01006291,-0.00860702,-0.00
 160527,-0.17195601,0.13196445,0.02993459,-0.01679026,0.02498410,0.0043
 1649,-0.00264179,-0.00319123,0.00315203,-0.00032303,-0.00058446,-0.000
 06928,0.00049831,-0.00243195,0.00122935,-0.00000244,0.00011138,-0.0002
 3302,0.00072864,-0.00036407,-0.00164972,0.18061898,0.02120809,-0.01731
 894,-0.00486397,0.13214541,-0.21374046,-0.02813045,-0.00509895,0.00854
 004,0.00107768,-0.00198912,0.00044230,0.00038128,-0.00090170,0.0002060
 5,0.00020782,-0.00305315,-0.00415247,0.00111751,0.00009979,0.00004481,
 -0.00008274,0.00023617,0.00095980,-0.00020149,-0.14321574,0.22448002,-
 0.00235623,0.00201344,0.00345306,0.03026759,-0.02793579,-0.04597011,0.
 00559911,-0.00652230,0.00280705,0.00191440,0.00173853,0.00977989,0.000
 09358,0.00001530,-0.00043499,0.00090304,0.00070512,0.00481750,-0.00018
 863,-0.00004954,-0.00071264,-0.00155598,0.00005742,-0.00525872,-0.0346
 5496,0.03046766,0.03437660,-0.00246209,0.00131857,0.00014762,0.0011119
 5,0.00184322,-0.00069033,-0.03412178,0.01257496,-0.01142014,-0.0603090
 7,-0.02014830,-0.05473747,-0.02768785,-0.02032902,-0.01157320,0.005955
 88,-0.00465150,-0.00326628,0.00062588,0.00067901,0.00071795,0.00147549
 ,-0.00125753,0.00054536,0.00004209,0.00015335,0.00064364,0.27958925,-0
 .00067523,-0.00016411,-0.00088595,0.00201364,-0.00177425,-0.00044385,0
 .01725434,0.00488574,0.01214092,-0.00224429,-0.07060494,-0.02952666,-0
 .03039106,-0.00410361,-0.02185347,0.00160989,-0.00539862,-0.00133494,0
 .00160587,0.00049243,0.00144307,-0.00017301,0.00095943,0.00032971,0.00
 037579,0.00021007,-0.00089242,-0.07993056,0.16481999,-0.00219602,0.000
 21253,0.00067564,0.00295387,-0.00200284,-0.00195698,-0.00127476,0.0091
 7171,0.00612270,-0.01114165,-0.04445804,-0.11349096,-0.01327372,-0.010
 22492,0.00195000,0.00305818,-0.00242582,-0.00187570,0.00014177,-0.0004
 6686,0.00036102,0.00065515,-0.00023428,0.00058354,0.00051234,0.0002323
 7,-0.00083568,0.04079226,0.08650245,0.21429101,-0.00148718,-0.00036189
 ,0.00047308,0.00116212,0.00324555,0.00028633,-0.01449011,0.00226159,0.
 01947378,-0.08077764,-0.00871926,0.10431992,-0.00558102,-0.00675726,0.
 01009612,0.00206990,-0.00120770,0.00010420,0.00027718,-0.00014821,-0.0
 0070108,0.00054669,0.00002902,-0.00107631,-0.00065390,-0.00002222,-0.0
 0071566,-0.00478967,-0.00063432,-0.03629692,0.10126495,-0.00024269,0.0
 0019089,0.00008742,0.00116287,-0.00275696,-0.00050564,0.01200386,0.003
 52680,-0.02000707,-0.01071806,-0.05317021,0.02468039,-0.01798034,-0.00
 522558,0.02611027,0.00065761,-0.00448988,0.00046264,0.00046977,0.00047
 243,-0.00097641,-0.00044595,0.00047346,0.00060651,0.00086197,0.0001478
 9,0.00106464,0.00148404,0.00453538,-0.00918417,0.01405533,0.05704298,0
 .00002352,0.00041847,0.00001041,-0.00150374,-0.00216285,-0.00058302,0.
 00643332,-0.00180451,-0.00075147,0.09222725,0.02593048,-0.22274892,0.0
 0607025,0.00314608,-0.00097081,-0.00144036,0.00176724,-0.00082187,0.00
 011422,0.00028033,0.00045399,0.00027377,-0.00036266,0.00055529,0.00013
 897,0.00010851,-0.00018049,-0.00978910,-0.00375619,-0.03990897,-0.0953
 5413,-0.02267466,0.26188919,-0.00095289,-0.00175658,0.00021920,0.00203
 988,0.00397818,-0.00203127,-0.00903557,-0.00452010,-0.00453935,-0.0328
 3713,0.02022845,0.01379387,0.00149799,-0.00170199,-0.00020417,-0.00028
 932,0.00159364,0.00004263,-0.00084646,0.00013336,0.00043005,-0.0000353
 8,0.00055388,0.00043934,-0.00037646,-0.00013076,0.00072080,-0.14257431
 ,0.06572713,0.04101238,0.00257255,-0.00009977,0.00191884,0.20860189,-0
 .00010092,0.00104855,0.00039011,-0.00090989,-0.00200531,0.00113541,0.0
 0452479,0.00336057,0.00231815,0.00669330,-0.00282111,0.00111685,-0.002
 61843,-0.00195058,0.00079846,0.00064757,0.00075660,-0.00057848,-0.0001
 1441,0.00199942,0.00024149,-0.00051088,0.00027923,-0.00046152,0.000145
 89,0.00007209,-0.00049960,0.09742960,-0.07920882,-0.03564617,-0.001375
 93,-0.00037968,-0.00057774,-0.12682601,0.27446639,-0.00016758,0.000171
 37,-0.00012388,-0.00104479,0.00127580,0.00039856,-0.00525756,-0.001101
 70,-0.00184301,-0.01275970,0.02048435,0.01277125,0.00074781,-0.0022151
 4,0.00088820,0.00014948,0.00051472,-0.00030065,-0.00018442,0.00056653,
 -0.00014596,0.00015803,-0.00001865,-0.00005038,-0.00028018,-0.00003780
 ,0.00039951,0.03281089,-0.02553073,-0.07832410,-0.00063727,0.00148098,
 0.00258925,-0.01670845,-0.22262165,0.38674238,0.00004008,-0.00003638,-
 0.00013878,-0.00019458,0.00060912,-0.00005085,-0.00179685,-0.00105838,
 -0.00084521,-0.00360709,0.00629334,0.00022834,0.00024160,0.00030675,0.
 00026792,-0.00011719,-0.00026849,0.00016416,-0.00034631,-0.00080312,-0
 .00056239,0.00014441,-0.00009561,0.00004668,-0.00006610,-0.00006105,0.
 00019186,-0.01648997,0.02568604,-0.02441035,0.00004593,0.00012261,0.00
 051833,-0.02761959,0.02300851,0.00316963,0.04972297,-0.00002186,0.0000
 3961,0.00000856,0.00006254,0.00001034,0.00000401,0.00004678,-0.0000041
 3,0.00001977,0.00061972,-0.00068023,-0.00032031,-0.00021849,0.00076464
 ,0.00026566,0.00009420,-0.00029966,0.00006052,-0.00035862,-0.00031784,
 -0.00040698,0.00000356,0.00000271,0.00003850,-0.00003102,-0.00000618,-
 0.00002059,0.01073507,-0.01472481,0.00866131,-0.00026001,-0.00018224,-
 0.00026483,0.04306791,-0.19588325,0.22704279,-0.05365236,0.21134852,0.
 00017866,0.00016133,-0.00003882,-0.00009307,-0.00020933,0.00007840,0.0
 0060177,0.00011516,0.00075580,-0.00134954,-0.00081479,-0.00274797,-0.0
 0037118,0.00099916,0.00035772,0.00014415,-0.00034785,-0.00006287,-0.00
 013464,-0.00045229,-0.00022275,-0.00002738,0.00001285,-0.00006524,0.00
 003834,-0.00002400,-0.00008743,0.01425418,-0.01913087,0.01194891,0.000
 19130,-0.00001393,0.00068536,-0.03494206,0.25475221,-0.32300675,0.0214
 2506,-0.23508087,0.31241477,-0.31028861,-0.04875466,0.07458521,-0.0049
 4038,0.00085469,0.00230316,0.00146479,-0.00151045,0.00072095,0.0006389
 5,0.00029031,-0.00053187,-0.00049289,0.00355068,0.00104359,-0.01339623
 ,-0.00660440,0.00475811,-0.00076297,-0.00031227,0.00017577,-0.00031615
 ,0.00010596,0.00007302,0.00051705,-0.00042073,-0.00080350,-0.00006362,
 -0.00002742,0.00004779,0.00007340,-0.00001725,0.00008449,-0.00010033,-
 0.00003762,-0.00006265,0.00004370,0.00001182,0.00005912,0.32702091,-0.
 04878008,-0.06994545,0.01386326,-0.02853403,0.00004625,0.00763715,-0.0
 0101062,-0.00573377,0.00051763,0.00016002,-0.00063606,-0.00012517,0.00
 309126,-0.00382333,-0.00063057,0.02285842,0.00908858,-0.00614978,0.001
 19215,0.00022365,-0.00029331,-0.00141514,-0.00018241,0.00033271,0.0005
 2298,0.00109557,-0.00024462,0.00014729,0.00014149,0.00006807,-0.000001
 17,0.00008319,0.00000435,-0.00008158,0.00018470,0.00001535,-0.00006036
 ,-0.00003088,-0.00002060,0.05259495,0.06851145,0.07454221,0.01405670,-
 0.04799285,0.00289715,-0.00020625,0.00319514,0.00059535,0.00072257,0.0
 0397232,-0.00003354,-0.00002542,-0.00113550,0.00090675,-0.00074408,0.0
 0391228,0.00394852,0.00134488,0.00290131,0.00015014,0.00013454,-0.0000
 4598,0.00017461,-0.00007353,-0.00002145,-0.00079369,-0.00004304,-0.002
 40607,-0.00005534,0.00002425,0.00012457,0.00009169,0.00001752,0.000095
 72,0.00003967,-0.00000214,-0.00000624,-0.00002734,-0.00001393,0.000002
 00,-0.08162377,-0.01506542,0.03977140,0.01057425,0.01963450,-0.0025824
 6,-0.00190720,0.00325557,0.00170883,-0.00088941,0.00020331,0.00012573,
 -0.00324165,0.00160830,0.00403829,-0.00697843,-0.03137152,0.00339142,-
 0.08673701,-0.08201575,0.01491035,0.00064879,0.00036071,-0.00174674,0.
 00007856,-0.00007969,-0.00027577,0.00034202,0.00105060,-0.00005906,-0.
 00030217,-0.00019680,-0.00058032,-0.00023318,-0.00131399,0.00028437,-0
 .00004486,0.00004443,0.00006675,-0.00000100,-0.00009926,0.00002527,0.0
 0060239,-0.00068409,-0.00081242,0.08808891,-0.01008755,-0.01805249,0.0
 0331898,0.00389259,-0.00163495,-0.00085490,0.00052718,0.00064520,-0.00
 016640,0.00017623,0.00190012,0.00075171,-0.00113892,-0.00201675,0.0003
 9717,-0.08201010,-0.29983447,0.02892130,-0.00030257,0.00106551,-0.0001
 8589,-0.00008780,-0.00002667,0.00002001,-0.00054105,-0.00098059,0.0001
 0275,-0.00004819,-0.00006538,-0.00020533,-0.00010352,-0.00026847,-0.00
 005203,-0.00016576,0.00008120,-0.00002621,0.00000939,-0.00003661,0.000
 05382,0.00027640,0.00097700,-0.00012666,0.08960367,0.31824733,-0.00196
 869,-0.00393971,0.00340855,0.00147255,-0.00046031,0.00467052,-0.000236
 79,-0.00003769,-0.00027280,0.00237449,-0.00224975,0.00943347,0.0028721
 5,0.00865906,0.00241041,0.01556859,0.02893017,-0.04371492,-0.00175046,
 -0.00028847,-0.00529353,-0.00016856,0.00004625,-0.00068425,-0.00003599
 ,-0.00020934,0.00025252,0.00161997,0.00291467,0.00033499,-0.00025504,-
 0.00114850,-0.00031367,-0.00019148,-0.00036539,0.00001182,0.00002294,0
 .00000638,-0.00001114,-0.00082942,0.00009095,-0.00236664,-0.01849425,-
 0.03194833,0.03213467\\0.00005262,-0.00003523,-0.00001730,0.00000517,-
 0.00002615,0.00000311,-0.00002925,0.00000145,-0.00000137,0.00006471,-0
 .00000267,0.00003548,-0.00000956,0.00000952,-0.00001746,-0.00004923,0.
 00006339,0.00001657,0.00000134,0.00001527,0.00000062,0.00000255,-0.000
 00254,-0.00000173,-0.00000023,-0.00000259,-0.00000009,-0.00012366,0.00
 003215,-0.00000798,-0.00000320,-0.00000706,0.00001877,0.00007849,-0.00
 003469,-0.00003976,0.00000537,-0.00001135,0.00000947,0.00000274,-0.000
 00025,-0.00000126,0.00000213,0.00000076,0.00000293\\\@
 The archive entry for this job was punched.


 SUCCESS IS COUNTED SWEETEST
 BY THOSE WHO NE'ER SUCCEED.
 TO COMPREHEND NECTAR
 REQUIRES SOREST NEED.
           EMILY DICKINSON
 Job cpu time:       0 days  1 hours 24 minutes  6.9 seconds.
 Elapsed time:       0 days  0 hours 10 minutes 31.3 seconds.
 File lengths (MBytes):  RWF=    280 Int=      0 D2E=      0 Chk=     14 Scr=      1
 Normal termination of Gaussian 16 at Wed Apr  6 23:31:49 2022.
