 Entering Gaussian System, Link 0=g16
 Input=Mol_02.com
 Output=Mol_02.log
 Initial command:
 /home/saurabh/g16/l1.exe "/scratch/saurabh/PBS_8053886.helios/Gau-42264.inp" -scrdir="/scratch/saurabh/PBS_8053886.helios/"
 Entering Link 1 = /home/saurabh/g16/l1.exe PID=     42270.
  
 Copyright (c) 1988-2019, Gaussian, Inc.  All Rights Reserved.
  
 This is part of the Gaussian(R) 16 program.  It is based on
 the Gaussian(R) 09 system (copyright 2009, Gaussian, Inc.),
 the Gaussian(R) 03 system (copyright 2003, Gaussian, Inc.),
 the Gaussian(R) 98 system (copyright 1998, Gaussian, Inc.),
 the Gaussian(R) 94 system (copyright 1995, Gaussian, Inc.),
 the Gaussian 92(TM) system (copyright 1992, Gaussian, Inc.),
 the Gaussian 90(TM) system (copyright 1990, Gaussian, Inc.),
 the Gaussian 88(TM) system (copyright 1988, Gaussian, Inc.),
 the Gaussian 86(TM) system (copyright 1986, Carnegie Mellon
 University), and the Gaussian 82(TM) system (copyright 1983,
 Carnegie Mellon University). Gaussian is a federally registered
 trademark of Gaussian, Inc.
  
 This software contains proprietary and confidential information,
 including trade secrets, belonging to Gaussian, Inc.
  
 This software is provided under written license and may be
 used, copied, transmitted, or stored only in accord with that
 written license.
  
 The following legend is applicable only to US Government
 contracts under FAR:
  
                    RESTRICTED RIGHTS LEGEND
  
 Use, reproduction and disclosure by the US Government is
 subject to restrictions as set forth in subparagraphs (a)
 and (c) of the Commercial Computer Software - Restricted
 Rights clause in FAR 52.227-19.
  
 Gaussian, Inc.
 340 Quinnipiac St., Bldg. 40, Wallingford CT 06492
  
  
 ---------------------------------------------------------------
 Warning -- This program may not be used in any manner that
 competes with the business of Gaussian, Inc. or will provide
 assistance to any competitor of Gaussian, Inc.  The licensee
 of this program is prohibited from giving any competitor of
 Gaussian, Inc. access to this program.  By using this program,
 the user acknowledges that Gaussian, Inc. is engaged in the
 business of creating and licensing software in the field of
 computational chemistry and represents and warrants to the
 licensee that it is not a competitor of Gaussian, Inc. and that
 it will not use this program in any manner prohibited above.
 ---------------------------------------------------------------
  

 Cite this work as:
 Gaussian 16, Revision C.01,
 M. J. Frisch, G. W. Trucks, H. B. Schlegel, G. E. Scuseria, 
 M. A. Robb, J. R. Cheeseman, G. Scalmani, V. Barone, 
 G. A. Petersson, H. Nakatsuji, X. Li, M. Caricato, A. V. Marenich, 
 J. Bloino, B. G. Janesko, R. Gomperts, B. Mennucci, H. P. Hratchian, 
 J. V. Ortiz, A. F. Izmaylov, J. L. Sonnenberg, D. Williams-Young, 
 F. Ding, F. Lipparini, F. Egidi, J. Goings, B. Peng, A. Petrone, 
 T. Henderson, D. Ranasinghe, V. G. Zakrzewski, J. Gao, N. Rega, 
 G. Zheng, W. Liang, M. Hada, M. Ehara, K. Toyota, R. Fukuda, 
 J. Hasegawa, M. Ishida, T. Nakajima, Y. Honda, O. Kitao, H. Nakai, 
 T. Vreven, K. Throssell, J. A. Montgomery, Jr., J. E. Peralta, 
 F. Ogliaro, M. J. Bearpark, J. J. Heyd, E. N. Brothers, K. N. Kudin, 
 V. N. Staroverov, T. A. Keith, R. Kobayashi, J. Normand, 
 K. Raghavachari, A. P. Rendell, J. C. Burant, S. S. Iyengar, 
 J. Tomasi, M. Cossi, J. M. Millam, M. Klene, C. Adamo, R. Cammi, 
 J. W. Ochterski, R. L. Martin, K. Morokuma, O. Farkas, 
 J. B. Foresman, and D. J. Fox, Gaussian, Inc., Wallingford CT, 2019.
 
 ******************************************
 Gaussian 16:  EM64L-G16RevC.01  3-Jul-2019
                 3-Apr-2022 
 ******************************************
 %mem=8gb
 %nproc=8
 Will use up to    8 processors via shared memory.
 %chk=Mol_02.chk
 ----------------------------------------------------------------------
 #p B3LYP/cc-PVTZ scf(verytight, maxcycles=1000) opt(calcfc, maxcyc=100
 0) freq(hpmodes) int(grid=ultrafine)
 ----------------------------------------------------------------------
 1/6=1000,10=4,18=20,19=15,26=4,38=1/1,3;
 2/9=110,12=2,17=6,18=5,40=1/2;
 3/5=16,6=1,11=2,25=1,30=1,71=2,74=-5,75=-5,140=1/1,2,3;
 4//1;
 5/5=2,7=1000,17=3,38=5/2;
 8/6=4,10=90,11=11/1;
 11/6=1,8=1,9=11,15=111,16=1/1,2,10;
 10/6=1,13=1/2;
 6/7=2,8=2,9=2,10=2,28=1/1;
 7/10=1,25=1/1,2,3,16;
 1/6=1000,10=4,18=20,19=15,26=4/3(2);
 2/9=110/2;
 99//99;
 2/9=110/2;
 3/5=16,6=1,11=2,25=1,30=1,71=1,74=-5,75=-5/1,2,3;
 4/5=5,16=3,69=1/1;
 5/5=2,7=1000,17=3,38=5/2;
 7//1,2,3,16;
 1/6=1000,18=20,19=15,26=4/3(-5);
 2/9=110/2;
 6/7=2,8=2,9=2,10=2,19=2,28=1/1;
 99/9=1/99;
 Leave Link    1 at Sun Apr  3 21:19:55 2022, MaxMem=  1073741824 cpu:               0.4 elap:               0.1
 (Enter /home/saurabh/g16/l101.exe)
 ------
 Mol_02
 ------
 Symbolic Z-matrix:
 Charge =  0 Multiplicity = 2
 C                     0.06413   0.2876   -0.6653 
 C                    -1.19637   1.04106  -0.43687 
 C                    -1.14666   2.3635   -0.17694 
 C                     0.18285   3.0942   -0.22548 
 C                     1.25225   2.1785    0.39102 
 C                     1.24194   0.84484  -0.32601 
 H                     0.95934   2.00018   1.44941 
 H                     2.26873   2.62582   0.39154 
 H                    -2.0601    2.91199   0.03163 
 H                    -2.15149   0.52775  -0.47959 
 O                     0.49477   3.35379  -1.57426 
 H                     0.07327   4.05151   0.33627 
 O                     1.41889   4.29671  -1.57144 
 H                     2.17399   0.33003  -0.53675 
 H                     0.03385  -0.70112  -1.11145 
 
 ITRead=  0  0  0  0  0  0  0  0  0  0  0  0  0  0  0
 MicOpt= -1 -1 -1 -1 -1 -1 -1 -1 -1 -1 -1 -1 -1 -1 -1
 NAtoms=     15 NQM=       15 NQMF=       0 NMMI=      0 NMMIF=      0
                NMic=       0 NMicF=      0.
                    Isotopes and Nuclear Properties:
 (Nuclear quadrupole moments (NQMom) in fm**2, nuclear magnetic moments (NMagM)
  in nuclear magnetons)

  Atom         1           2           3           4           5           6           7           8           9          10
 IAtWgt=          12          12          12          12          12          12           1           1           1           1
 AtmWgt=  12.0000000  12.0000000  12.0000000  12.0000000  12.0000000  12.0000000   1.0078250   1.0078250   1.0078250   1.0078250
 NucSpn=           0           0           0           0           0           0           1           1           1           1
 AtZEff=  -0.0000000  -0.0000000  -0.0000000  -0.0000000  -0.0000000  -0.0000000  -0.0000000  -0.0000000  -0.0000000  -0.0000000
 NQMom=    0.0000000   0.0000000   0.0000000   0.0000000   0.0000000   0.0000000   0.0000000   0.0000000   0.0000000   0.0000000
 NMagM=    0.0000000   0.0000000   0.0000000   0.0000000   0.0000000   0.0000000   2.7928460   2.7928460   2.7928460   2.7928460
 AtZNuc=   6.0000000   6.0000000   6.0000000   6.0000000   6.0000000   6.0000000   1.0000000   1.0000000   1.0000000   1.0000000

  Atom        11          12          13          14          15
 IAtWgt=          16           1          16           1           1
 AtmWgt=  15.9949146   1.0078250  15.9949146   1.0078250   1.0078250
 NucSpn=           0           1           0           1           1
 AtZEff=  -0.0000000  -0.0000000  -0.0000000  -0.0000000  -0.0000000
 NQMom=    0.0000000   0.0000000   0.0000000   0.0000000   0.0000000
 NMagM=    0.0000000   2.7928460   0.0000000   2.7928460   2.7928460
 AtZNuc=   8.0000000   1.0000000   8.0000000   1.0000000   1.0000000
 Leave Link  101 at Sun Apr  3 21:19:56 2022, MaxMem=  1073741824 cpu:               2.0 elap:               0.3
 (Enter /home/saurabh/g16/l103.exe)

 GradGradGradGradGradGradGradGradGradGradGradGradGradGradGradGradGradGrad
 Berny optimization.
 Initialization pass.
                           ----------------------------
                           !    Initial Parameters    !
                           ! (Angstroms and Degrees)  !
 --------------------------                            --------------------------
 ! Name  Definition              Value          Derivative Info.                !
 --------------------------------------------------------------------------------
 ! R1    R(1,2)                  1.4862         calculate D2E/DX2 analytically  !
 ! R2    R(1,6)                  1.3464         calculate D2E/DX2 analytically  !
 ! R3    R(1,15)                 1.0851         calculate D2E/DX2 analytically  !
 ! R4    R(2,3)                  1.3487         calculate D2E/DX2 analytically  !
 ! R5    R(2,10)                 1.0852         calculate D2E/DX2 analytically  !
 ! R6    R(3,4)                  1.5178         calculate D2E/DX2 analytically  !
 ! R7    R(3,9)                  1.0857         calculate D2E/DX2 analytically  !
 ! R8    R(4,5)                  1.5369         calculate D2E/DX2 analytically  !
 ! R9    R(4,11)                 1.4085         calculate D2E/DX2 analytically  !
 ! R10   R(4,12)                 1.1153         calculate D2E/DX2 analytically  !
 ! R11   R(5,6)                  1.5142         calculate D2E/DX2 analytically  !
 ! R12   R(5,7)                  1.1126         calculate D2E/DX2 analytically  !
 ! R13   R(5,8)                  1.1106         calculate D2E/DX2 analytically  !
 ! R14   R(6,14)                 1.0854         calculate D2E/DX2 analytically  !
 ! R15   R(11,13)                1.3203         calculate D2E/DX2 analytically  !
 ! A1    A(2,1,6)              119.5629         calculate D2E/DX2 analytically  !
 ! A2    A(2,1,15)             120.0966         calculate D2E/DX2 analytically  !
 ! A3    A(6,1,15)             120.338          calculate D2E/DX2 analytically  !
 ! A4    A(1,2,3)              119.7013         calculate D2E/DX2 analytically  !
 ! A5    A(1,2,10)             120.0425         calculate D2E/DX2 analytically  !
 ! A6    A(3,2,10)             120.2562         calculate D2E/DX2 analytically  !
 ! A7    A(2,3,4)              119.8792         calculate D2E/DX2 analytically  !
 ! A8    A(2,3,9)              120.0921         calculate D2E/DX2 analytically  !
 ! A9    A(4,3,9)              119.9922         calculate D2E/DX2 analytically  !
 ! A10   A(3,4,5)              108.0476         calculate D2E/DX2 analytically  !
 ! A11   A(3,4,11)             108.2595         calculate D2E/DX2 analytically  !
 ! A12   A(3,4,12)             108.1214         calculate D2E/DX2 analytically  !
 ! A13   A(5,4,11)             109.8665         calculate D2E/DX2 analytically  !
 ! A14   A(5,4,12)             112.1915         calculate D2E/DX2 analytically  !
 ! A15   A(11,4,12)            110.235          calculate D2E/DX2 analytically  !
 ! A16   A(4,5,6)              109.2729         calculate D2E/DX2 analytically  !
 ! A17   A(4,5,7)              107.0916         calculate D2E/DX2 analytically  !
 ! A18   A(4,5,8)              113.3946         calculate D2E/DX2 analytically  !
 ! A19   A(6,5,7)              107.9099         calculate D2E/DX2 analytically  !
 ! A20   A(6,5,8)              111.1746         calculate D2E/DX2 analytically  !
 ! A21   A(7,5,8)              107.7634         calculate D2E/DX2 analytically  !
 ! A22   A(1,6,5)              119.327          calculate D2E/DX2 analytically  !
 ! A23   A(1,6,14)             120.3939         calculate D2E/DX2 analytically  !
 ! A24   A(5,6,14)             120.2531         calculate D2E/DX2 analytically  !
 ! A25   A(4,11,13)            106.534          calculate D2E/DX2 analytically  !
 ! D1    D(6,1,2,3)             14.6157         calculate D2E/DX2 analytically  !
 ! D2    D(6,1,2,10)          -165.3935         calculate D2E/DX2 analytically  !
 ! D3    D(15,1,2,3)          -164.8039         calculate D2E/DX2 analytically  !
 ! D4    D(15,1,2,10)           15.1869         calculate D2E/DX2 analytically  !
 ! D5    D(2,1,6,5)              5.23           calculate D2E/DX2 analytically  !
 ! D6    D(2,1,6,14)          -176.6226         calculate D2E/DX2 analytically  !
 ! D7    D(15,1,6,5)          -175.3518         calculate D2E/DX2 analytically  !
 ! D8    D(15,1,6,14)            2.7956         calculate D2E/DX2 analytically  !
 ! D9    D(1,2,3,4)              4.7363         calculate D2E/DX2 analytically  !
 ! D10   D(1,2,3,9)           -177.4588         calculate D2E/DX2 analytically  !
 ! D11   D(10,2,3,4)          -175.2546         calculate D2E/DX2 analytically  !
 ! D12   D(10,2,3,9)             2.5504         calculate D2E/DX2 analytically  !
 ! D13   D(2,3,4,5)            -39.5598         calculate D2E/DX2 analytically  !
 ! D14   D(2,3,4,11)            79.3788         calculate D2E/DX2 analytically  !
 ! D15   D(2,3,4,12)          -161.2022         calculate D2E/DX2 analytically  !
 ! D16   D(9,3,4,5)            142.6331         calculate D2E/DX2 analytically  !
 ! D17   D(9,3,4,11)           -98.4284         calculate D2E/DX2 analytically  !
 ! D18   D(9,3,4,12)            20.9907         calculate D2E/DX2 analytically  !
 ! D19   D(3,4,5,6)             54.8217         calculate D2E/DX2 analytically  !
 ! D20   D(3,4,5,7)            -61.8158         calculate D2E/DX2 analytically  !
 ! D21   D(3,4,5,8)            179.4469         calculate D2E/DX2 analytically  !
 ! D22   D(11,4,5,6)           -63.0908         calculate D2E/DX2 analytically  !
 ! D23   D(11,4,5,7)          -179.7283         calculate D2E/DX2 analytically  !
 ! D24   D(11,4,5,8)            61.5343         calculate D2E/DX2 analytically  !
 ! D25   D(12,4,5,6)           173.9137         calculate D2E/DX2 analytically  !
 ! D26   D(12,4,5,7)            57.2762         calculate D2E/DX2 analytically  !
 ! D27   D(12,4,5,8)           -61.4612         calculate D2E/DX2 analytically  !
 ! D28   D(3,4,11,13)          162.3812         calculate D2E/DX2 analytically  !
 ! D29   D(5,4,11,13)          -79.8377         calculate D2E/DX2 analytically  !
 ! D30   D(12,4,11,13)          44.3022         calculate D2E/DX2 analytically  !
 ! D31   D(4,5,6,1)            -40.6045         calculate D2E/DX2 analytically  !
 ! D32   D(4,5,6,14)           141.2455         calculate D2E/DX2 analytically  !
 ! D33   D(7,5,6,1)             75.5128         calculate D2E/DX2 analytically  !
 ! D34   D(7,5,6,14)          -102.6373         calculate D2E/DX2 analytically  !
 ! D35   D(8,5,6,1)           -166.5161         calculate D2E/DX2 analytically  !
 ! D36   D(8,5,6,14)            15.3339         calculate D2E/DX2 analytically  !
 --------------------------------------------------------------------------------
 Trust Radius=3.00D-01 FncErr=1.00D-07 GrdErr=1.00D-06 EigMax=2.50D+02 EigMin=1.00D-04
 Number of steps in this run=    100 maximum allowed number of steps=    100.
 GradGradGradGradGradGradGradGradGradGradGradGradGradGradGradGradGradGrad

 Leave Link  103 at Sun Apr  3 21:19:56 2022, MaxMem=  1073741824 cpu:               0.1 elap:               0.0
 (Enter /home/saurabh/g16/l202.exe)
                          Input orientation:                          
 ---------------------------------------------------------------------
 Center     Atomic      Atomic             Coordinates (Angstroms)
 Number     Number       Type             X           Y           Z
 ---------------------------------------------------------------------
      1          6           0        0.064126    0.287602   -0.665301
      2          6           0       -1.196374    1.041063   -0.436874
      3          6           0       -1.146659    2.363502   -0.176945
      4          6           0        0.182846    3.094205   -0.225482
      5          6           0        1.252245    2.178496    0.391023
      6          6           0        1.241936    0.844840   -0.326010
      7          1           0        0.959335    2.000179    1.449414
      8          1           0        2.268726    2.625816    0.391543
      9          1           0       -2.060095    2.911991    0.031625
     10          1           0       -2.151493    0.527749   -0.479592
     11          8           0        0.494770    3.353790   -1.574260
     12          1           0        0.073269    4.051507    0.336266
     13          8           0        1.418886    4.296710   -1.571436
     14          1           0        2.173994    0.330033   -0.536753
     15          1           0        0.033852   -0.701121   -1.111449
 ---------------------------------------------------------------------
                    Distance matrix (angstroms):
                    1          2          3          4          5
     1  C    0.000000
     2  C    1.486184   0.000000
     3  C    2.452315   1.348658   0.000000
     4  C    2.843335   2.482404   1.517849   0.000000
     5  C    2.470410   2.823987   2.472156   1.536950   0.000000
     6  C    1.346428   2.448704   2.834420   2.488256   1.514226
     7  H    2.864671   3.020773   2.685565   2.145951   1.112558
     8  H    3.382961   3.899313   3.472296   2.225085   1.110554
     9  H    3.447527   2.113262   1.085683   2.264971   3.411565
    10  H    2.236320   1.085158   2.114539   3.478564   3.881799
    11  O    3.226945   3.082584   2.372225   1.408504   2.411933
    12  H    3.894894   3.357456   2.144987   1.115346   2.213855
    13  O    4.327748   4.327361   3.501988   2.187556   2.892376
    14  H    2.114206   3.446001   3.910395   3.420849   2.264333
    15  H    1.085145   2.236899   3.414501   3.900210   3.469020
                    6          7          8          9         10
     6  C    0.000000
     7  H    2.137008   0.000000
     8  H    2.177396   1.795833   0.000000
     9  H    3.912087   3.458104   4.353175   0.000000
    10  H    3.411670   3.945424   4.969819   2.440145   0.000000
    11  O    2.900210   3.345249   2.746133   3.049818   4.023371
    12  H    3.476651   2.496429   2.618336   2.437733   4.246417
    13  O    3.673935   3.822404   2.714295   4.073151   5.305167
    14  H    1.085436   2.865248   2.478170   4.991700   4.330381
    15  H    2.113381   3.835566   4.280439   4.329644   2.585556
                   11         12         13         14         15
    11  O    0.000000
    12  H    2.077157   0.000000
    13  O    1.320264   2.347368   0.000000
    14  H    3.611000   4.361718   4.168367   0.000000
    15  H    4.107182   4.968391   5.206556   2.444128   0.000000
 Stoichiometry    C6H7O2(2)
 Framework group  C1[X(C6H7O2)]
 Deg. of freedom    39
 Full point group                 C1      NOp   1
 Largest Abelian subgroup         C1      NOp   1
 Largest concise Abelian subgroup C1      NOp   1
                         Standard orientation:                         
 ---------------------------------------------------------------------
 Center     Atomic      Atomic             Coordinates (Angstroms)
 Number     Number       Type             X           Y           Z
 ---------------------------------------------------------------------
      1          6           0        1.816323    0.484465   -0.574591
      2          6           0        1.679073   -0.944266   -0.189063
      3          6           0        0.538969   -1.373765    0.389359
      4          6           0       -0.634521   -0.423706    0.544849
      5          6           0       -0.081516    0.956243    0.934900
      6          6           0        0.946635    1.390169   -0.088572
      7          1           0        0.437501    0.836350    1.911645
      8          1           0       -0.870409    1.727354    1.062823
      9          1           0        0.447353   -2.406638    0.711055
     10          1           0        2.493579   -1.637290   -0.373090
     11          8           0       -1.301351   -0.339714   -0.692957
     12          1           0       -1.316731   -0.839497    1.323119
     13          8           0       -2.497247    0.160392   -0.442310
     14          1           0        1.000510    2.427437   -0.403762
     15          1           0        2.607199    0.792021   -1.250951
 ---------------------------------------------------------------------
 Rotational constants (GHZ):           3.7674250           1.8291440           1.5282752
 Leave Link  202 at Sun Apr  3 21:19:56 2022, MaxMem=  1073741824 cpu:               0.1 elap:               0.0
 (Enter /home/saurabh/g16/l301.exe)
 Standard basis: CC-pVTZ (5D, 7F)
 Ernie: Thresh=  0.10000D-02 Tol=  0.10000D-05 Strict=F.
 Ernie:  24 primitive shells out of 264 were deleted.
 There are   385 symmetry adapted cartesian basis functions of A   symmetry.
 There are   338 symmetry adapted basis functions of A   symmetry.
   338 basis functions,   535 primitive gaussians,   385 cartesian basis functions
    30 alpha electrons       29 beta electrons
       nuclear repulsion energy       362.2475488280 Hartrees.
 IExCor=  402 DFT=T Ex+Corr=B3LYP ExCW=0 ScaHFX=  0.200000
 ScaDFX=  0.800000  0.720000  1.000000  0.810000 ScalE2=  1.000000  1.000000
 IRadAn=      5 IRanWt=     -1 IRanGd=            0 ICorTp=0 IEmpDi=  4
 NAtoms=   15 NActive=   15 NUniq=   15 SFac= 1.00D+00 NAtFMM=   60 NAOKFM=F Big=F
 Integral buffers will be    131072 words long.
 Raffenetti 2 integral format.
 Two-electron integral symmetry is turned on.
 Leave Link  301 at Sun Apr  3 21:19:56 2022, MaxMem=  1073741824 cpu:               0.4 elap:               0.1
 (Enter /home/saurabh/g16/l302.exe)
 NPDir=0 NMtPBC=     1 NCelOv=     1 NCel=       1 NClECP=     1 NCelD=      1
         NCelK=      1 NCelE2=     1 NClLst=     1 CellRange=     0.0.
 One-electron integrals computed using PRISM.
 One-electron integral symmetry used in STVInt
 NBasis=   338 RedAO= T EigKep=  1.09D-04  NBF=   338
 NBsUse=   338 1.00D-06 EigRej= -1.00D+00 NBFU=   338
 Precomputing XC quadrature grid using
 IXCGrd= 4 IRadAn=           5 IRanWt=          -1 IRanGd=           0 AccXCQ= 0.00D+00.
 Generated NRdTot=       0 NPtTot=           0 NUsed=           0 NTot=          32
 NSgBfM=   385   385   385   385   385 MxSgAt=    15 MxSgA2=    15.
 Leave Link  302 at Sun Apr  3 21:19:56 2022, MaxMem=  1073741824 cpu:               2.8 elap:               0.4
 (Enter /home/saurabh/g16/l303.exe)
 DipDrv:  MaxL=1.
 Leave Link  303 at Sun Apr  3 21:19:56 2022, MaxMem=  1073741824 cpu:               0.4 elap:               0.1
 (Enter /home/saurabh/g16/l401.exe)
 ExpMin= 1.03D-01 ExpMax= 1.53D+04 ExpMxC= 5.22D+02 IAcc=3 IRadAn=         5 AccDes= 0.00D+00
 Harris functional with IExCor=  402 and IRadAn=       5 diagonalized for initial guess.
 HarFok:  IExCor=  402 AccDes= 0.00D+00 IRadAn=         5 IDoV= 1 UseB2=F ITyADJ=14
 ICtDFT=  3500011 ScaDFX=  1.000000  1.000000  1.000000  1.000000
 FoFCou: FMM=F IPFlag=           0 FMFlag=      100000 FMFlg1=           0
         NFxFlg=           0 DoJE=T BraDBF=F KetDBF=T FulRan=T
         wScrn=  0.000000 ICntrl=       500 IOpCl=  0 I1Cent=   200000004 NGrid=           0
         NMat0=    1 NMatS0=      1 NMatT0=    0 NMatD0=    1 NMtDS0=    0 NMtDT0=    0
 Petite list used in FoFCou.
 Harris En= -383.270062691053    
 JPrj=0 DoOrth=F DoCkMO=F.
 Initial guess <Sx>= 0.0000 <Sy>= 0.0000 <Sz>= 0.5000 <S**2>= 0.7500 S= 0.5000
 Leave Link  401 at Sun Apr  3 21:19:59 2022, MaxMem=  1073741824 cpu:              17.9 elap:               2.3
 (Enter /home/saurabh/g16/l502.exe)
 Integral symmetry usage will be decided dynamically.
 UHF open shell SCF:
 Using DIIS extrapolation, IDIIS=  1040.
 NGot=  1073741824 LenX=  1073438548 LenY=  1073289882
 Requested convergence on RMS density matrix=1.00D-08 within1000 cycles.
 Requested convergence on MAX density matrix=1.00D-06.
 Requested convergence on             energy=1.00D-06.
 No special actions if energy rises.
 Fock matrices will be formed incrementally for  20 cycles.
 Integral accuracy reduced to 1.0D-05 until final iterations.

 Cycle   1  Pass 0  IDiag  1:
 FoFJK:  IHMeth= 1 ICntrl=       0 DoSepK=F KAlg= 0 I1Cent=           0 FoldK=F
 IRaf= 970000000 NMat=       1 IRICut=       1 DoRegI=T DoRafI=F ISym2E= 0 IDoP0=0 IntGTp=1.
 FoFCou: FMM=F IPFlag=           0 FMFlag=      100000 FMFlg1=           0
         NFxFlg=           0 DoJE=F BraDBF=F KetDBF=F FulRan=T
         wScrn=  0.000000 ICntrl=         0 IOpCl=  1 I1Cent=           0 NGrid=           0
         NMat0=    1 NMatS0=      1 NMatT0=    0 NMatD0=    1 NMtDS0=    0 NMtDT0=    0
 Symmetry not used in FoFCou.
 E= -383.069242035340    
 DIIS: error= 1.61D-02 at cycle   1 NSaved=   1.
 NSaved= 1 IEnMin= 1 EnMin= -383.069242035340     IErMin= 1 ErrMin= 1.61D-02
 ErrMax= 1.61D-02  0.00D+00 EMaxC= 1.00D-01 BMatC= 8.33D-01 BMatP= 8.33D-01
 IDIUse=3 WtCom= 8.39D-01 WtEn= 1.61D-01
 Coeff-Com:  0.100D+01
 Coeff-En:   0.100D+01
 Coeff:      0.100D+01
 Gap=     0.318 Goal=   None    Shift=    0.000
 Gap=     0.103 Goal=   None    Shift=    0.000
 GapD=    0.103 DampG=1.000 DampE=0.500 DampFc=0.5000 IDamp=-1.
 Damping current iteration by 5.00D-01
 RMSDP=2.10D-03 MaxDP=7.52D-02              OVMax= 2.00D-01

 Cycle   2  Pass 0  IDiag  1:
 RMSU=  1.05D-03    CP:  9.96D-01
 E= -383.143181084795     Delta-E=       -0.073939049455 Rises=F Damp=T
 DIIS: error= 5.50D-03 at cycle   2 NSaved=   2.
 NSaved= 2 IEnMin= 2 EnMin= -383.143181084795     IErMin= 2 ErrMin= 5.50D-03
 ErrMax= 5.50D-03  0.00D+00 EMaxC= 1.00D-01 BMatC= 1.07D-01 BMatP= 8.33D-01
 IDIUse=3 WtCom= 9.45D-01 WtEn= 5.50D-02
 Coeff-Com:  0.118D+00 0.882D+00
 Coeff-En:   0.194D+00 0.806D+00
 Coeff:      0.122D+00 0.878D+00
 Gap=     0.190 Goal=   None    Shift=    0.000
 Gap=     0.113 Goal=   None    Shift=    0.000
 RMSDP=6.59D-04 MaxDP=2.39D-02 DE=-7.39D-02 OVMax= 1.39D-01

 Cycle   3  Pass 0  IDiag  1:
 RMSU=  5.98D-04    CP:  9.97D-01  7.37D-01
 E= -383.239176618404     Delta-E=       -0.095995533609 Rises=F Damp=F
 DIIS: error= 6.62D-03 at cycle   3 NSaved=   3.
 NSaved= 3 IEnMin= 3 EnMin= -383.239176618404     IErMin= 2 ErrMin= 5.50D-03
 ErrMax= 6.62D-03  0.00D+00 EMaxC= 1.00D-01 BMatC= 1.23D-01 BMatP= 1.07D-01
 IDIUse=3 WtCom= 1.09D-01 WtEn= 8.91D-01
 Coeff-Com: -0.222D-01 0.526D+00 0.496D+00
 Coeff-En:   0.000D+00 0.000D+00 0.100D+01
 Coeff:     -0.243D-02 0.576D-01 0.945D+00
 Gap=     0.185 Goal=   None    Shift=    0.000
 Gap=     0.123 Goal=   None    Shift=    0.000
 RMSDP=8.50D-04 MaxDP=5.33D-02 DE=-9.60D-02 OVMax= 1.52D-01

 Cycle   4  Pass 0  IDiag  1:
 RMSU=  6.29D-04    CP:  1.00D+00  1.05D+00  2.19D-01
 E= -383.165381363641     Delta-E=        0.073795254763 Rises=F Damp=F
 DIIS: error= 1.37D-02 at cycle   4 NSaved=   4.
 NSaved= 4 IEnMin= 3 EnMin= -383.239176618404     IErMin= 2 ErrMin= 5.50D-03
 ErrMax= 1.37D-02  0.00D+00 EMaxC= 1.00D-01 BMatC= 5.70D-01 BMatP= 1.07D-01
 IDIUse=2 WtCom= 0.00D+00 WtEn= 1.00D+00
 Coeff-En:   0.000D+00 0.000D+00 0.757D+00 0.243D+00
 Coeff:      0.000D+00 0.000D+00 0.757D+00 0.243D+00
 Gap=     0.191 Goal=   None    Shift=    0.000
 Gap=     0.136 Goal=   None    Shift=    0.000
 RMSDP=4.81D-04 MaxDP=2.54D-02 DE= 7.38D-02 OVMax= 7.33D-02

 Cycle   5  Pass 0  IDiag  1:
 RMSU=  1.21D-04    CP:  9.98D-01  8.73D-01  5.42D-01  3.97D-01
 E= -383.254021252658     Delta-E=       -0.088639889018 Rises=F Damp=F
 DIIS: error= 3.86D-03 at cycle   5 NSaved=   5.
 NSaved= 5 IEnMin= 5 EnMin= -383.254021252658     IErMin= 5 ErrMin= 3.86D-03
 ErrMax= 3.86D-03  0.00D+00 EMaxC= 1.00D-01 BMatC= 3.86D-02 BMatP= 1.07D-01
 IDIUse=3 WtCom= 9.61D-01 WtEn= 3.86D-02
 Coeff-Com:  0.977D-02-0.309D-01 0.252D+00-0.961D-01 0.865D+00
 Coeff-En:   0.000D+00 0.000D+00 0.286D+00 0.000D+00 0.714D+00
 Coeff:      0.940D-02-0.297D-01 0.254D+00-0.924D-01 0.859D+00
 Gap=     0.184 Goal=   None    Shift=    0.000
 Gap=     0.125 Goal=   None    Shift=    0.000
 RMSDP=1.49D-04 MaxDP=8.25D-03 DE=-8.86D-02 OVMax= 2.16D-02

 Cycle   6  Pass 0  IDiag  1:
 RMSU=  2.68D-05    CP:  9.97D-01  8.16D-01  7.03D-01  2.50D-01  9.47D-01
 E= -383.260348001716     Delta-E=       -0.006326749058 Rises=F Damp=F
 DIIS: error= 1.90D-04 at cycle   6 NSaved=   6.
 NSaved= 6 IEnMin= 6 EnMin= -383.260348001716     IErMin= 6 ErrMin= 1.90D-04
 ErrMax= 1.90D-04  0.00D+00 EMaxC= 1.00D-01 BMatC= 1.02D-04 BMatP= 3.86D-02
 IDIUse=3 WtCom= 9.98D-01 WtEn= 1.90D-03
 Coeff-Com:  0.367D-02-0.141D-01 0.726D-01-0.562D-01 0.353D+00 0.641D+00
 Coeff-En:   0.000D+00 0.000D+00 0.000D+00 0.000D+00 0.000D+00 0.100D+01
 Coeff:      0.366D-02-0.141D-01 0.725D-01-0.561D-01 0.352D+00 0.642D+00
 Gap=     0.184 Goal=   None    Shift=    0.000
 Gap=     0.124 Goal=   None    Shift=    0.000
 RMSDP=1.67D-05 MaxDP=8.00D-04 DE=-6.33D-03 OVMax= 1.56D-03

 Cycle   7  Pass 0  IDiag  1:
 RMSU=  1.17D-05    CP:  9.97D-01  8.12D-01  7.02D-01  2.42D-01  1.03D+00
                    CP:  9.42D-01
 E= -383.260369776463     Delta-E=       -0.000021774747 Rises=F Damp=F
 DIIS: error= 1.27D-04 at cycle   7 NSaved=   7.
 NSaved= 7 IEnMin= 7 EnMin= -383.260369776463     IErMin= 7 ErrMin= 1.27D-04
 ErrMax= 1.27D-04  0.00D+00 EMaxC= 1.00D-01 BMatC= 3.02D-05 BMatP= 1.02D-04
 IDIUse=3 WtCom= 9.99D-01 WtEn= 1.27D-03
 Coeff-Com: -0.114D-02 0.290D-02-0.392D-01-0.493D-03-0.958D-01 0.224D+00
 Coeff-Com:  0.909D+00
 Coeff-En:   0.000D+00 0.000D+00 0.000D+00 0.000D+00 0.000D+00 0.000D+00
 Coeff-En:   0.100D+01
 Coeff:     -0.114D-02 0.290D-02-0.391D-01-0.493D-03-0.957D-01 0.224D+00
 Coeff:      0.910D+00
 Gap=     0.184 Goal=   None    Shift=    0.000
 Gap=     0.125 Goal=   None    Shift=    0.000
 RMSDP=8.81D-06 MaxDP=4.69D-04 DE=-2.18D-05 OVMax= 2.00D-03

 Initial convergence to 1.0D-05 achieved.  Increase integral accuracy.
 Cycle   8  Pass 1  IDiag  1:
 E= -383.260384312772     Delta-E=       -0.000014536309 Rises=F Damp=F
 DIIS: error= 4.06D-05 at cycle   1 NSaved=   1.
 NSaved= 1 IEnMin= 1 EnMin= -383.260384312772     IErMin= 1 ErrMin= 4.06D-05
 ErrMax= 4.06D-05  0.00D+00 EMaxC= 1.00D-01 BMatC= 4.34D-06 BMatP= 4.34D-06
 IDIUse=1 WtCom= 1.00D+00 WtEn= 0.00D+00
 Coeff-Com:  0.100D+01
 Coeff:      0.100D+01
 Gap=     0.184 Goal=   None    Shift=    0.000
 Gap=     0.124 Goal=   None    Shift=    0.000
 RMSDP=8.81D-06 MaxDP=4.69D-04 DE=-1.45D-05 OVMax= 4.69D-04

 Cycle   9  Pass 1  IDiag  1:
 RMSU=  9.63D-06    CP:  1.00D+00
 E= -383.260383486512     Delta-E=        0.000000826260 Rises=F Damp=F
 DIIS: error= 6.27D-05 at cycle   2 NSaved=   2.
 NSaved= 2 IEnMin= 1 EnMin= -383.260384312772     IErMin= 1 ErrMin= 4.06D-05
 ErrMax= 6.27D-05  0.00D+00 EMaxC= 1.00D-01 BMatC= 1.03D-05 BMatP= 4.34D-06
 IDIUse=1 WtCom= 1.00D+00 WtEn= 0.00D+00
 Coeff-Com:  0.623D+00 0.377D+00
 Coeff:      0.623D+00 0.377D+00
 Gap=     0.184 Goal=   None    Shift=    0.000
 Gap=     0.125 Goal=   None    Shift=    0.000
 RMSDP=3.60D-06 MaxDP=2.33D-04 DE= 8.26D-07 OVMax= 7.44D-04

 Cycle  10  Pass 1  IDiag  1:
 RMSU=  3.29D-06    CP:  1.00D+00  8.51D-01
 E= -383.260385276151     Delta-E=       -0.000001789639 Rises=F Damp=F
 DIIS: error= 2.72D-05 at cycle   3 NSaved=   3.
 NSaved= 3 IEnMin= 3 EnMin= -383.260385276151     IErMin= 3 ErrMin= 2.72D-05
 ErrMax= 2.72D-05  0.00D+00 EMaxC= 1.00D-01 BMatC= 1.47D-06 BMatP= 4.34D-06
 IDIUse=1 WtCom= 1.00D+00 WtEn= 0.00D+00
 Coeff-Com:  0.735D-01 0.267D+00 0.659D+00
 Coeff:      0.735D-01 0.267D+00 0.659D+00
 Gap=     0.184 Goal=   None    Shift=    0.000
 Gap=     0.125 Goal=   None    Shift=    0.000
 RMSDP=1.30D-06 MaxDP=6.30D-05 DE=-1.79D-06 OVMax= 1.16D-04

 Cycle  11  Pass 1  IDiag  1:
 RMSU=  1.02D-06    CP:  1.00D+00  9.02D-01  8.10D-01
 E= -383.260385529070     Delta-E=       -0.000000252919 Rises=F Damp=F
 DIIS: error= 7.65D-06 at cycle   4 NSaved=   4.
 NSaved= 4 IEnMin= 4 EnMin= -383.260385529070     IErMin= 4 ErrMin= 7.65D-06
 ErrMax= 7.65D-06  0.00D+00 EMaxC= 1.00D-01 BMatC= 1.74D-07 BMatP= 1.47D-06
 IDIUse=1 WtCom= 1.00D+00 WtEn= 0.00D+00
 Coeff-Com: -0.840D-01 0.106D+00 0.272D+00 0.706D+00
 Coeff:     -0.840D-01 0.106D+00 0.272D+00 0.706D+00
 Gap=     0.184 Goal=   None    Shift=    0.000
 Gap=     0.125 Goal=   None    Shift=    0.000
 RMSDP=6.74D-07 MaxDP=3.55D-05 DE=-2.53D-07 OVMax= 1.07D-04

 Cycle  12  Pass 1  IDiag  1:
 RMSU=  5.61D-07    CP:  1.00D+00  9.33D-01  7.69D-01  1.18D+00
 E= -383.260385583227     Delta-E=       -0.000000054156 Rises=F Damp=F
 DIIS: error= 5.32D-06 at cycle   5 NSaved=   5.
 NSaved= 5 IEnMin= 5 EnMin= -383.260385583227     IErMin= 5 ErrMin= 5.32D-06
 ErrMax= 5.32D-06  0.00D+00 EMaxC= 1.00D-01 BMatC= 4.57D-08 BMatP= 1.74D-07
 IDIUse=1 WtCom= 1.00D+00 WtEn= 0.00D+00
 Coeff-Com: -0.474D-01-0.559D-02-0.116D+00 0.281D+00 0.888D+00
 Coeff:     -0.474D-01-0.559D-02-0.116D+00 0.281D+00 0.888D+00
 Gap=     0.184 Goal=   None    Shift=    0.000
 Gap=     0.125 Goal=   None    Shift=    0.000
 RMSDP=4.55D-07 MaxDP=2.11D-05 DE=-5.42D-08 OVMax= 7.81D-05

 Cycle  13  Pass 1  IDiag  1:
 RMSU=  2.64D-07    CP:  1.00D+00  9.46D-01  7.49D-01  1.49D+00  1.22D+00
 E= -383.260385598155     Delta-E=       -0.000000014928 Rises=F Damp=F
 DIIS: error= 2.51D-06 at cycle   6 NSaved=   6.
 NSaved= 6 IEnMin= 6 EnMin= -383.260385598155     IErMin= 6 ErrMin= 2.51D-06
 ErrMax= 2.51D-06  0.00D+00 EMaxC= 1.00D-01 BMatC= 1.00D-08 BMatP= 4.57D-08
 IDIUse=1 WtCom= 1.00D+00 WtEn= 0.00D+00
 Coeff-Com: -0.989D-02-0.210D-01-0.131D+00 0.208D-01 0.513D+00 0.629D+00
 Coeff:     -0.989D-02-0.210D-01-0.131D+00 0.208D-01 0.513D+00 0.629D+00
 Gap=     0.184 Goal=   None    Shift=    0.000
 Gap=     0.125 Goal=   None    Shift=    0.000
 RMSDP=2.02D-07 MaxDP=7.96D-06 DE=-1.49D-08 OVMax= 5.00D-05

 Cycle  14  Pass 1  IDiag  1:
 RMSU=  1.14D-07    CP:  1.00D+00  9.51D-01  7.40D-01  1.61D+00  1.39D+00
                    CP:  8.28D-01
 E= -383.260385601674     Delta-E=       -0.000000003520 Rises=F Damp=F
 DIIS: error= 1.58D-06 at cycle   7 NSaved=   7.
 NSaved= 7 IEnMin= 7 EnMin= -383.260385601674     IErMin= 7 ErrMin= 1.58D-06
 ErrMax= 1.58D-06  0.00D+00 EMaxC= 1.00D-01 BMatC= 2.69D-09 BMatP= 1.00D-08
 IDIUse=1 WtCom= 1.00D+00 WtEn= 0.00D+00
 Coeff-Com:  0.209D-02-0.127D-01-0.661D-01-0.385D-01 0.175D+00 0.415D+00
 Coeff-Com:  0.526D+00
 Coeff:      0.209D-02-0.127D-01-0.661D-01-0.385D-01 0.175D+00 0.415D+00
 Coeff:      0.526D+00
 Gap=     0.184 Goal=   None    Shift=    0.000
 Gap=     0.125 Goal=   None    Shift=    0.000
 RMSDP=8.62D-08 MaxDP=4.26D-06 DE=-3.52D-09 OVMax= 2.62D-05

 Cycle  15  Pass 1  IDiag  1:
 RMSU=  6.29D-08    CP:  1.00D+00  9.52D-01  7.38D-01  1.65D+00  1.43D+00
                    CP:  9.41D-01  1.09D+00
 E= -383.260385602844     Delta-E=       -0.000000001169 Rises=F Damp=F
 DIIS: error= 4.70D-07 at cycle   8 NSaved=   8.
 NSaved= 8 IEnMin= 8 EnMin= -383.260385602844     IErMin= 8 ErrMin= 4.70D-07
 ErrMax= 4.70D-07  0.00D+00 EMaxC= 1.00D-01 BMatC= 3.08D-10 BMatP= 2.69D-09
 IDIUse=1 WtCom= 1.00D+00 WtEn= 0.00D+00
 Coeff-Com:  0.139D-02 0.309D-02 0.254D-01-0.390D-02-0.877D-01-0.101D+00
 Coeff-Com:  0.444D-02 0.116D+01
 Coeff:      0.139D-02 0.309D-02 0.254D-01-0.390D-02-0.877D-01-0.101D+00
 Coeff:      0.444D-02 0.116D+01
 Gap=     0.184 Goal=   None    Shift=    0.000
 Gap=     0.125 Goal=   None    Shift=    0.000
 RMSDP=9.76D-08 MaxDP=5.95D-06 DE=-1.17D-09 OVMax= 3.67D-05

 Cycle  16  Pass 1  IDiag  1:
 RMSU=  3.80D-08    CP:  1.00D+00  9.51D-01  7.43D-01  1.66D+00  1.47D+00
                    CP:  1.08D+00  1.65D+00  1.70D+00
 E= -383.260385603471     Delta-E=       -0.000000000627 Rises=F Damp=F
 DIIS: error= 4.00D-07 at cycle   9 NSaved=   9.
 NSaved= 9 IEnMin= 9 EnMin= -383.260385603471     IErMin= 9 ErrMin= 4.00D-07
 ErrMax= 4.00D-07  0.00D+00 EMaxC= 1.00D-01 BMatC= 2.05D-10 BMatP= 3.08D-10
 IDIUse=1 WtCom= 1.00D+00 WtEn= 0.00D+00
 Coeff-Com: -0.710D-03 0.131D-01 0.787D-01 0.295D-01-0.224D+00-0.445D+00
 Coeff-Com: -0.463D+00 0.907D+00 0.110D+01
 Coeff:     -0.710D-03 0.131D-01 0.787D-01 0.295D-01-0.224D+00-0.445D+00
 Coeff:     -0.463D+00 0.907D+00 0.110D+01
 Gap=     0.184 Goal=   None    Shift=    0.000
 Gap=     0.125 Goal=   None    Shift=    0.000
 RMSDP=1.38D-07 MaxDP=8.97D-06 DE=-6.27D-10 OVMax= 5.48D-05

 Cycle  17  Pass 1  IDiag  1:
 RMSU=  1.94D-08    CP:  1.00D+00  9.51D-01  7.47D-01  1.68D+00  1.52D+00
                    CP:  1.24D+00  2.47D+00  2.97D+00  1.39D+00
 E= -383.260385604005     Delta-E=       -0.000000000534 Rises=F Damp=F
 DIIS: error= 1.58D-07 at cycle  10 NSaved=  10.
 NSaved=10 IEnMin=10 EnMin= -383.260385604005     IErMin=10 ErrMin= 1.58D-07
 ErrMax= 1.58D-07  0.00D+00 EMaxC= 1.00D-01 BMatC= 3.26D-11 BMatP= 2.05D-10
 IDIUse=1 WtCom= 1.00D+00 WtEn= 0.00D+00
 Coeff-Com: -0.512D-03 0.461D-02 0.250D-01 0.120D-01-0.688D-01-0.150D+00
 Coeff-Com: -0.172D+00 0.146D+00 0.383D+00 0.821D+00
 Coeff:     -0.512D-03 0.461D-02 0.250D-01 0.120D-01-0.688D-01-0.150D+00
 Coeff:     -0.172D+00 0.146D+00 0.383D+00 0.821D+00
 Gap=     0.184 Goal=   None    Shift=    0.000
 Gap=     0.125 Goal=   None    Shift=    0.000
 RMSDP=4.10D-08 MaxDP=2.77D-06 DE=-5.34D-10 OVMax= 1.68D-05

 Cycle  18  Pass 1  IDiag  1:
 RMSU=  2.36D-08    CP:  1.00D+00  9.52D-01  7.47D-01  1.69D+00  1.53D+00
                    CP:  1.29D+00  2.70D+00  3.00D+00  1.62D+00  1.19D+00
 E= -383.260385604061     Delta-E=       -0.000000000056 Rises=F Damp=F
 DIIS: error= 1.19D-07 at cycle  11 NSaved=  11.
 NSaved=11 IEnMin=11 EnMin= -383.260385604061     IErMin=11 ErrMin= 1.19D-07
 ErrMax= 1.19D-07  0.00D+00 EMaxC= 1.00D-01 BMatC= 2.27D-11 BMatP= 3.26D-11
 IDIUse=1 WtCom= 1.00D+00 WtEn= 0.00D+00
 Coeff-Com: -0.886D-04-0.212D-02-0.152D-01-0.379D-02 0.436D-01 0.785D-01
 Coeff-Com:  0.697D-01-0.271D+00-0.183D+00 0.588D+00 0.696D+00
 Coeff:     -0.886D-04-0.212D-02-0.152D-01-0.379D-02 0.436D-01 0.785D-01
 Coeff:      0.697D-01-0.271D+00-0.183D+00 0.588D+00 0.696D+00
 Gap=     0.184 Goal=   None    Shift=    0.000
 Gap=     0.125 Goal=   None    Shift=    0.000
 RMSDP=2.35D-08 MaxDP=1.66D-06 DE=-5.63D-11 OVMax= 9.77D-06

 Cycle  19  Pass 1  IDiag  1:
 RMSU=  7.95D-09    CP:  1.00D+00  9.52D-01  7.48D-01  1.69D+00  1.54D+00
                    CP:  1.31D+00  2.82D+00  3.00D+00  1.78D+00  1.52D+00
                    CP:  1.46D+00
 E= -383.260385604072     Delta-E=       -0.000000000011 Rises=F Damp=F
 DIIS: error= 4.89D-08 at cycle  12 NSaved=  12.
 NSaved=12 IEnMin=12 EnMin= -383.260385604072     IErMin=12 ErrMin= 4.89D-08
 ErrMax= 4.89D-08  0.00D+00 EMaxC= 1.00D-01 BMatC= 4.32D-12 BMatP= 2.27D-11
 IDIUse=1 WtCom= 1.00D+00 WtEn= 0.00D+00
 Coeff-Com:  0.148D-03-0.274D-02-0.174D-01-0.640D-02 0.487D-01 0.981D-01
 Coeff-Com:  0.101D+00-0.205D+00-0.236D+00 0.231D-01 0.372D+00 0.825D+00
 Coeff:      0.148D-03-0.274D-02-0.174D-01-0.640D-02 0.487D-01 0.981D-01
 Coeff:      0.101D+00-0.205D+00-0.236D+00 0.231D-01 0.372D+00 0.825D+00
 Gap=     0.184 Goal=   None    Shift=    0.000
 Gap=     0.125 Goal=   None    Shift=    0.000
 RMSDP=1.25D-08 MaxDP=9.53D-07 DE=-1.06D-11 OVMax= 5.56D-06

 Cycle  20  Pass 1  IDiag  1:
 RMSU=  3.40D-09    CP:  1.00D+00  9.52D-01  7.48D-01  1.69D+00  1.54D+00
                    CP:  1.33D+00  2.89D+00  3.00D+00  1.85D+00  1.71D+00
                    CP:  1.76D+00  1.13D+00
 E= -383.260385604072     Delta-E=        0.000000000000 Rises=F Damp=F
 DIIS: error= 1.89D-08 at cycle  13 NSaved=  13.
 NSaved=13 IEnMin=12 EnMin= -383.260385604072     IErMin=13 ErrMin= 1.89D-08
 ErrMax= 1.89D-08  0.00D+00 EMaxC= 1.00D-01 BMatC= 5.33D-13 BMatP= 4.32D-12
 IDIUse=1 WtCom= 1.00D+00 WtEn= 0.00D+00
 Coeff-Com:  0.490D-04-0.449D-03-0.267D-02-0.129D-02 0.719D-02 0.164D-01
 Coeff-Com:  0.184D-01-0.199D-01-0.387D-01-0.758D-01 0.109D-01 0.229D+00
 Coeff-Com:  0.857D+00
 Coeff:      0.490D-04-0.449D-03-0.267D-02-0.129D-02 0.719D-02 0.164D-01
 Coeff:      0.184D-01-0.199D-01-0.387D-01-0.758D-01 0.109D-01 0.229D+00
 Coeff:      0.857D+00
 Gap=     0.184 Goal=   None    Shift=    0.000
 Gap=     0.125 Goal=   None    Shift=    0.000
 RMSDP=3.91D-09 MaxDP=2.95D-07 DE= 0.00D+00 OVMax= 1.70D-06

 SCF Done:  E(UB3LYP) =  -383.260385604     A.U. after   20 cycles
            NFock= 20  Conv=0.39D-08     -V/T= 2.0068
 <Sx>= 0.0000 <Sy>= 0.0000 <Sz>= 0.5000 <S**2>= 0.7538 S= 0.5019
 <L.S>= 0.000000000000E+00
 KE= 3.806852146977D+02 PE=-1.618989744186D+03 EE= 4.927965950566D+02
 Annihilation of the first spin contaminant:
 S**2 before annihilation     0.7538,   after     0.7500
 Leave Link  502 at Sun Apr  3 21:23:20 2022, MaxMem=  1073741824 cpu:            1610.3 elap:             201.2
 (Enter /home/saurabh/g16/l801.exe)
 DoSCS=F DFT=T ScalE2(SS,OS)=  1.000000  1.000000
 Range of M.O.s used for correlation:     1   338
 NBasis=   338 NAE=    30 NBE=    29 NFC=     0 NFV=     0
 NROrb=    338 NOA=    30 NOB=    29 NVA=   308 NVB=   309

 **** Warning!!: The largest alpha MO coefficient is  0.17392480D+02


 **** Warning!!: The largest beta MO coefficient is  0.17706092D+02

 Leave Link  801 at Sun Apr  3 21:23:20 2022, MaxMem=  1073741824 cpu:               0.2 elap:               0.0
 (Enter /home/saurabh/g16/l1101.exe)
 Using compressed storage, NAtomX=    15.
 Will process     16 centers per pass.
 Leave Link 1101 at Sun Apr  3 21:23:20 2022, MaxMem=  1073741824 cpu:               3.1 elap:               0.4
 (Enter /home/saurabh/g16/l1102.exe)
 Symmetrizing basis deriv contribution to polar:
 IMax=3 JMax=2 DiffMx= 0.00D+00
 Leave Link 1102 at Sun Apr  3 21:23:20 2022, MaxMem=  1073741824 cpu:               0.3 elap:               0.1
 (Enter /home/saurabh/g16/l1110.exe)
 Forming Gx(P) for the SCF density, NAtomX=    15.
 Integral derivatives from FoFJK, PRISM(SPDF).
 Do as many integral derivatives as possible in FoFJK.
 G2DrvN: MDV=    1073740143.
 G2DrvN: will do    16 centers at a time, making    1 passes.
 Calling FoFCou, ICntrl=  3107 FMM=F I1Cent=   0 AccDes= 0.00D+00.
 FoFJK:  IHMeth= 1 ICntrl=    3107 DoSepK=F KAlg= 0 I1Cent=           0 FoldK=F
 IRaf=         0 NMat=       1 IRICut=       1 DoRegI=T DoRafI=F ISym2E= 0 IDoP0=0 IntGTp=1.
 FoFCou: FMM=F IPFlag=           0 FMFlag=      100000 FMFlg1=           0
         NFxFlg=           0 DoJE=F BraDBF=F KetDBF=F FulRan=T
         wScrn=  0.000000 ICntrl=      3107 IOpCl=  1 I1Cent=           0 NGrid=           0
         NMat0=    1 NMatS0=      1 NMatT0=    0 NMatD0=    1 NMtDS0=    0 NMtDT0=    0
 Symmetry not used in FoFCou.
 End of G2Drv F.D. properties file   721 does not exist.
 End of G2Drv F.D. properties file   722 does not exist.
 End of G2Drv F.D. properties file   788 does not exist.
 Leave Link 1110 at Sun Apr  3 21:27:33 2022, MaxMem=  1073741824 cpu:            2025.5 elap:             253.0
 (Enter /home/saurabh/g16/l1002.exe)
 Minotr:  UHF open shell wavefunction.
          IDoAtm=111111111111111
          Direct CPHF calculation.
          Differentiating once with respect to nuclear coordinates.
          Requested convergence is 1.0D-08 RMS, and 1.0D-07 maximum.
          Secondary convergence is 1.0D-12 RMS, and 1.0D-12 maximum.
          NewPWx=T KeepS1=F KeepF1=F KeepIn=T MapXYZ=F SortEE=F KeepMc=T.
         4443 words used for storage of precomputed grid.
 Two-electron integrals replicated using symmetry.
          MDV=    1073741824 using IRadAn=       1.
          Solving linear equations simultaneously, MaxMat=     384.
 FoF2E skips out because all densities are zero.
 CalDSu exits because no D1Ps are significant.
 FoFJK:  IHMeth= 1 ICntrl=       0 DoSepK=F KAlg= 0 I1Cent=           0 FoldK=F
 IRaf= 960000000 NMat=      45 IRICut=     112 DoRegI=T DoRafI=T ISym2E= 2 IDoP0=3 IntGTp=3.
 FoFCou: FMM=F IPFlag=           0 FMFlag=      100000 FMFlg1=           0
         NFxFlg=           0 DoJE=F BraDBF=F KetDBF=F FulRan=T
         wScrn=  0.000000 ICntrl=         0 IOpCl=  1 I1Cent=           0 NGrid=           0
         NMat0=   45 NMatS0=     45 NMatT0=    0 NMatD0=   45 NMtDS0=    0 NMtDT0=    0
 Integrals replicated using symmetry in FoFCou.
 Raff kept on since  94.20% of shell-pairs survive, threshold=   0.20 IRatSp=94.
          There are    48 degrees of freedom in the 1st order CPHF.  IDoFFX=6 NUNeed=     0.
     42 vectors produced by pass  0 Test12= 3.79D-14 2.08D-09 XBig12= 2.37D-01 1.77D-01.
 AX will form    42 AO Fock derivatives at one time.
     42 vectors produced by pass  1 Test12= 3.79D-14 2.08D-09 XBig12= 3.75D-02 5.61D-02.
     42 vectors produced by pass  2 Test12= 3.79D-14 2.08D-09 XBig12= 6.00D-04 5.94D-03.
     42 vectors produced by pass  3 Test12= 3.79D-14 2.08D-09 XBig12= 8.44D-06 5.46D-04.
     42 vectors produced by pass  4 Test12= 3.79D-14 2.08D-09 XBig12= 7.62D-08 2.76D-05.
     42 vectors produced by pass  5 Test12= 3.79D-14 2.08D-09 XBig12= 5.54D-10 2.52D-06.
     33 vectors produced by pass  6 Test12= 3.79D-14 2.08D-09 XBig12= 3.31D-12 2.03D-07.
     12 vectors produced by pass  7 Test12= 3.79D-14 2.08D-09 XBig12= 1.79D-14 1.51D-08.
 InvSVY:  IOpt=1 It=  1 EMax= 2.55D-15
 Solved reduced A of dimension   297 with    42 vectors.
 End of Minotr F.D. properties file   721 does not exist.
 End of Minotr F.D. properties file   722 does not exist.
 End of Minotr F.D. properties file   788 does not exist.
 Leave Link 1002 at Sun Apr  3 21:35:41 2022, MaxMem=  1073741824 cpu:            3903.0 elap:             487.5
 (Enter /home/saurabh/g16/l601.exe)
 Copying SCF densities to generalized density rwf, IOpCl= 1 IROHF=0.

 **********************************************************************

            Population analysis using the SCF Density.

 **********************************************************************

 Orbital symmetries:
 Alpha Orbitals:
       Occupied  (A) (A) (A) (A) (A) (A) (A) (A) (A) (A) (A) (A)
                 (A) (A) (A) (A) (A) (A) (A) (A) (A) (A) (A) (A)
                 (A) (A) (A) (A) (A) (A)
       Virtual   (A) (A) (A) (A) (A) (A) (A) (A) (A) (A) (A) (A)
                 (A) (A) (A) (A) (A) (A) (A) (A) (A) (A) (A) (A)
                 (A) (A) (A) (A) (A) (A) (A) (A) (A) (A) (A) (A)
                 (A) (A) (A) (A) (A) (A) (A) (A) (A) (A) (A) (A)
                 (A) (A) (A) (A) (A) (A) (A) (A) (A) (A) (A) (A)
                 (A) (A) (A) (A) (A) (A) (A) (A) (A) (A) (A) (A)
                 (A) (A) (A) (A) (A) (A) (A) (A) (A) (A) (A) (A)
                 (A) (A) (A) (A) (A) (A) (A) (A) (A) (A) (A) (A)
                 (A) (A) (A) (A) (A) (A) (A) (A) (A) (A) (A) (A)
                 (A) (A) (A) (A) (A) (A) (A) (A) (A) (A) (A) (A)
                 (A) (A) (A) (A) (A) (A) (A) (A) (A) (A) (A) (A)
                 (A) (A) (A) (A) (A) (A) (A) (A) (A) (A) (A) (A)
                 (A) (A) (A) (A) (A) (A) (A) (A) (A) (A) (A) (A)
                 (A) (A) (A) (A) (A) (A) (A) (A) (A) (A) (A) (A)
                 (A) (A) (A) (A) (A) (A) (A) (A) (A) (A) (A) (A)
                 (A) (A) (A) (A) (A) (A) (A) (A) (A) (A) (A) (A)
                 (A) (A) (A) (A) (A) (A) (A) (A) (A) (A) (A) (A)
                 (A) (A) (A) (A) (A) (A) (A) (A) (A) (A) (A) (A)
                 (A) (A) (A) (A) (A) (A) (A) (A) (A) (A) (A) (A)
                 (A) (A) (A) (A) (A) (A) (A) (A) (A) (A) (A) (A)
                 (A) (A) (A) (A) (A) (A) (A) (A) (A) (A) (A) (A)
                 (A) (A) (A) (A) (A) (A) (A) (A) (A) (A) (A) (A)
                 (A) (A) (A) (A) (A) (A) (A) (A) (A) (A) (A) (A)
                 (A) (A) (A) (A) (A) (A) (A) (A) (A) (A) (A) (A)
                 (A) (A) (A) (A) (A) (A) (A) (A) (A) (A) (A) (A)
                 (A) (A) (A) (A) (A) (A) (A) (A)
 Beta  Orbitals:
       Occupied  (A) (A) (A) (A) (A) (A) (A) (A) (A) (A) (A) (A)
                 (A) (A) (A) (A) (A) (A) (A) (A) (A) (A) (A) (A)
                 (A) (A) (A) (A) (A)
       Virtual   (A) (A) (A) (A) (A) (A) (A) (A) (A) (A) (A) (A)
                 (A) (A) (A) (A) (A) (A) (A) (A) (A) (A) (A) (A)
                 (A) (A) (A) (A) (A) (A) (A) (A) (A) (A) (A) (A)
                 (A) (A) (A) (A) (A) (A) (A) (A) (A) (A) (A) (A)
                 (A) (A) (A) (A) (A) (A) (A) (A) (A) (A) (A) (A)
                 (A) (A) (A) (A) (A) (A) (A) (A) (A) (A) (A) (A)
                 (A) (A) (A) (A) (A) (A) (A) (A) (A) (A) (A) (A)
                 (A) (A) (A) (A) (A) (A) (A) (A) (A) (A) (A) (A)
                 (A) (A) (A) (A) (A) (A) (A) (A) (A) (A) (A) (A)
                 (A) (A) (A) (A) (A) (A) (A) (A) (A) (A) (A) (A)
                 (A) (A) (A) (A) (A) (A) (A) (A) (A) (A) (A) (A)
                 (A) (A) (A) (A) (A) (A) (A) (A) (A) (A) (A) (A)
                 (A) (A) (A) (A) (A) (A) (A) (A) (A) (A) (A) (A)
                 (A) (A) (A) (A) (A) (A) (A) (A) (A) (A) (A) (A)
                 (A) (A) (A) (A) (A) (A) (A) (A) (A) (A) (A) (A)
                 (A) (A) (A) (A) (A) (A) (A) (A) (A) (A) (A) (A)
                 (A) (A) (A) (A) (A) (A) (A) (A) (A) (A) (A) (A)
                 (A) (A) (A) (A) (A) (A) (A) (A) (A) (A) (A) (A)
                 (A) (A) (A) (A) (A) (A) (A) (A) (A) (A) (A) (A)
                 (A) (A) (A) (A) (A) (A) (A) (A) (A) (A) (A) (A)
                 (A) (A) (A) (A) (A) (A) (A) (A) (A) (A) (A) (A)
                 (A) (A) (A) (A) (A) (A) (A) (A) (A) (A) (A) (A)
                 (A) (A) (A) (A) (A) (A) (A) (A) (A) (A) (A) (A)
                 (A) (A) (A) (A) (A) (A) (A) (A) (A) (A) (A) (A)
                 (A) (A) (A) (A) (A) (A) (A) (A) (A) (A) (A) (A)
                 (A) (A) (A) (A) (A) (A) (A) (A) (A)
 The electronic state is 2-A.
 Alpha  occ. eigenvalues --  -19.24869 -19.19521 -10.25042 -10.19765 -10.19741
 Alpha  occ. eigenvalues --  -10.19174 -10.19096 -10.18780  -1.20209  -0.90486
 Alpha  occ. eigenvalues --   -0.83435  -0.76012  -0.74065  -0.63349  -0.60607
 Alpha  occ. eigenvalues --   -0.54419  -0.53932  -0.50865  -0.49750  -0.46341
 Alpha  occ. eigenvalues --   -0.43843  -0.43060  -0.41332  -0.40966  -0.35248
 Alpha  occ. eigenvalues --   -0.34691  -0.32428  -0.28836  -0.28350  -0.24124
 Alpha virt. eigenvalues --   -0.05675   0.03200   0.04008   0.05960   0.06662
 Alpha virt. eigenvalues --    0.08235   0.08858   0.10258   0.11513   0.12569
 Alpha virt. eigenvalues --    0.15546   0.17913   0.20281   0.21291   0.24301
 Alpha virt. eigenvalues --    0.24567   0.25626   0.27569   0.28842   0.30514
 Alpha virt. eigenvalues --    0.32129   0.32489   0.34813   0.35172   0.37749
 Alpha virt. eigenvalues --    0.39004   0.39230   0.40040   0.40179   0.41400
 Alpha virt. eigenvalues --    0.42124   0.43601   0.44939   0.45475   0.46136
 Alpha virt. eigenvalues --    0.48126   0.48507   0.49795   0.51298   0.52099
 Alpha virt. eigenvalues --    0.54155   0.57025   0.57569   0.58596   0.60500
 Alpha virt. eigenvalues --    0.62271   0.65908   0.66318   0.67276   0.69111
 Alpha virt. eigenvalues --    0.70912   0.72097   0.72530   0.76366   0.79832
 Alpha virt. eigenvalues --    0.80655   0.83829   0.86707   0.87931   0.88119
 Alpha virt. eigenvalues --    0.92012   0.92394   0.93670   0.97416   0.98026
 Alpha virt. eigenvalues --    0.98783   1.00440   1.02435   1.04556   1.05384
 Alpha virt. eigenvalues --    1.08371   1.09333   1.10813   1.11515   1.13509
 Alpha virt. eigenvalues --    1.15350   1.17021   1.17995   1.20207   1.20798
 Alpha virt. eigenvalues --    1.22897   1.24311   1.25063   1.26450   1.29973
 Alpha virt. eigenvalues --    1.31033   1.31877   1.34339   1.35387   1.35679
 Alpha virt. eigenvalues --    1.37389   1.39193   1.41264   1.42367   1.44742
 Alpha virt. eigenvalues --    1.45988   1.47365   1.48562   1.49403   1.51454
 Alpha virt. eigenvalues --    1.52528   1.55724   1.55892   1.60358   1.72222
 Alpha virt. eigenvalues --    1.74181   1.75367   1.81867   1.87158   1.93270
 Alpha virt. eigenvalues --    1.97945   1.98694   2.00425   2.05030   2.07886
 Alpha virt. eigenvalues --    2.09363   2.12370   2.12856   2.16637   2.19007
 Alpha virt. eigenvalues --    2.20514   2.22426   2.27324   2.29200   2.32849
 Alpha virt. eigenvalues --    2.37686   2.42144   2.44997   2.46642   2.48180
 Alpha virt. eigenvalues --    2.48976   2.50686   2.51193   2.53755   2.56411
 Alpha virt. eigenvalues --    2.57815   2.61357   2.63430   2.64419   2.67503
 Alpha virt. eigenvalues --    2.69978   2.70495   2.70930   2.72671   2.76652
 Alpha virt. eigenvalues --    2.77911   2.78518   2.81182   2.83233   2.84301
 Alpha virt. eigenvalues --    2.88937   2.90381   2.92268   2.95308   2.95667
 Alpha virt. eigenvalues --    2.97311   2.98814   2.99468   3.01697   3.02752
 Alpha virt. eigenvalues --    3.04715   3.05082   3.07110   3.07943   3.10801
 Alpha virt. eigenvalues --    3.12424   3.12685   3.15522   3.16444   3.18670
 Alpha virt. eigenvalues --    3.19415   3.21558   3.23438   3.26405   3.26910
 Alpha virt. eigenvalues --    3.29820   3.32186   3.33101   3.34028   3.34919
 Alpha virt. eigenvalues --    3.36434   3.38769   3.39478   3.40232   3.42020
 Alpha virt. eigenvalues --    3.43889   3.47501   3.48075   3.49009   3.52498
 Alpha virt. eigenvalues --    3.54040   3.60615   3.61004   3.62698   3.64274
 Alpha virt. eigenvalues --    3.66049   3.69316   3.71622   3.72385   3.72714
 Alpha virt. eigenvalues --    3.74334   3.76722   3.78248   3.79058   3.80281
 Alpha virt. eigenvalues --    3.83856   3.85161   3.87766   3.87911   3.88917
 Alpha virt. eigenvalues --    3.92161   3.92828   3.95199   3.97749   3.99277
 Alpha virt. eigenvalues --    4.00191   4.02957   4.03392   4.05673   4.05785
 Alpha virt. eigenvalues --    4.09021   4.09979   4.11698   4.14813   4.16428
 Alpha virt. eigenvalues --    4.19491   4.21031   4.22157   4.25507   4.27219
 Alpha virt. eigenvalues --    4.28832   4.34461   4.38501   4.39996   4.40753
 Alpha virt. eigenvalues --    4.43024   4.44833   4.51401   4.54398   4.54955
 Alpha virt. eigenvalues --    4.58513   4.59221   4.62701   4.64110   4.66854
 Alpha virt. eigenvalues --    4.69038   4.71562   4.73935   4.76047   4.76569
 Alpha virt. eigenvalues --    4.77707   4.82372   4.85920   4.87012   4.87282
 Alpha virt. eigenvalues --    4.90823   4.92941   4.97055   4.98951   5.02062
 Alpha virt. eigenvalues --    5.04654   5.06649   5.08921   5.10623   5.12483
 Alpha virt. eigenvalues --    5.14673   5.16906   5.19649   5.23047   5.23555
 Alpha virt. eigenvalues --    5.28384   5.34716   5.36640   5.41790   5.43855
 Alpha virt. eigenvalues --    5.55454   5.60405   5.67362   5.68561   5.73625
 Alpha virt. eigenvalues --    5.78264   5.86612   5.94056   5.97046   6.02354
 Alpha virt. eigenvalues --    6.10332   6.13797   6.26206   6.26675   6.30732
 Alpha virt. eigenvalues --    6.34876   6.41934   6.44866   6.67183   6.77782
 Alpha virt. eigenvalues --    6.81472   7.04748   7.09727   7.28070   7.40368
 Alpha virt. eigenvalues --    9.30000   9.68781  11.01648  11.13092  12.19401
 Alpha virt. eigenvalues --   12.57545  13.31559  14.05620
  Beta  occ. eigenvalues --  -19.23899 -19.17591 -10.25079 -10.19769 -10.19707
  Beta  occ. eigenvalues --  -10.19171 -10.19091 -10.18778  -1.17656  -0.88481
  Beta  occ. eigenvalues --   -0.82070  -0.75967  -0.73364  -0.62864  -0.60506
  Beta  occ. eigenvalues --   -0.53704  -0.53189  -0.48957  -0.47499  -0.45709
  Beta  occ. eigenvalues --   -0.43568  -0.42861  -0.41001  -0.37888  -0.35022
  Beta  occ. eigenvalues --   -0.33513  -0.32400  -0.27180  -0.24031
  Beta virt. eigenvalues --   -0.11575  -0.05589   0.03244   0.04094   0.06053
  Beta virt. eigenvalues --    0.06695   0.08288   0.08922   0.10336   0.12349
  Beta virt. eigenvalues --    0.13398   0.15796   0.18252   0.20344   0.21383
  Beta virt. eigenvalues --    0.24329   0.24589   0.25728   0.27639   0.28862
  Beta virt. eigenvalues --    0.30667   0.32207   0.32618   0.35012   0.35243
  Beta virt. eigenvalues --    0.37860   0.39176   0.39292   0.40104   0.40346
  Beta virt. eigenvalues --    0.41534   0.42156   0.43673   0.45016   0.45532
  Beta virt. eigenvalues --    0.46302   0.48184   0.48580   0.49910   0.51420
  Beta virt. eigenvalues --    0.52283   0.54623   0.57131   0.57665   0.59078
  Beta virt. eigenvalues --    0.60749   0.62876   0.66040   0.67318   0.67793
  Beta virt. eigenvalues --    0.69848   0.71488   0.72483   0.72740   0.76745
  Beta virt. eigenvalues --    0.79980   0.81297   0.83968   0.86771   0.88044
  Beta virt. eigenvalues --    0.88396   0.92218   0.92461   0.93749   0.97515
  Beta virt. eigenvalues --    0.98136   0.98844   1.00565   1.02550   1.04705
  Beta virt. eigenvalues --    1.05508   1.08423   1.09452   1.10926   1.11661
  Beta virt. eigenvalues --    1.13745   1.15396   1.17110   1.18140   1.20287
  Beta virt. eigenvalues --    1.20898   1.22990   1.24716   1.25448   1.26594
  Beta virt. eigenvalues --    1.30595   1.31176   1.31966   1.34421   1.35741
  Beta virt. eigenvalues --    1.35946   1.37790   1.39323   1.41634   1.42793
  Beta virt. eigenvalues --    1.45407   1.46668   1.47531   1.48785   1.49548
  Beta virt. eigenvalues --    1.51645   1.53290   1.56309   1.57090   1.61491
  Beta virt. eigenvalues --    1.73056   1.74499   1.76265   1.82292   1.87238
  Beta virt. eigenvalues --    1.93548   1.98722   1.99053   2.01078   2.05497
  Beta virt. eigenvalues --    2.08598   2.09491   2.12602   2.14667   2.17259
  Beta virt. eigenvalues --    2.19249   2.20648   2.22605   2.27887   2.29412
  Beta virt. eigenvalues --    2.32989   2.37822   2.42203   2.45130   2.46693
  Beta virt. eigenvalues --    2.48228   2.49053   2.50741   2.51338   2.53820
  Beta virt. eigenvalues --    2.56507   2.57852   2.61484   2.63502   2.64466
  Beta virt. eigenvalues --    2.67544   2.70026   2.70548   2.70967   2.72712
  Beta virt. eigenvalues --    2.76681   2.77984   2.78528   2.81257   2.83275
  Beta virt. eigenvalues --    2.84335   2.89202   2.90467   2.92392   2.95346
  Beta virt. eigenvalues --    2.95706   2.97446   2.98859   2.99520   3.01740
  Beta virt. eigenvalues --    3.02784   3.04788   3.05133   3.07156   3.07979
  Beta virt. eigenvalues --    3.10838   3.12461   3.12836   3.15717   3.16477
  Beta virt. eigenvalues --    3.18721   3.19456   3.21594   3.23480   3.26571
  Beta virt. eigenvalues --    3.26985   3.29881   3.32210   3.33149   3.34099
  Beta virt. eigenvalues --    3.35044   3.36857   3.38874   3.39525   3.40701
  Beta virt. eigenvalues --    3.42053   3.44008   3.47565   3.48165   3.49325
  Beta virt. eigenvalues --    3.52640   3.54317   3.61006   3.62163   3.62933
  Beta virt. eigenvalues --    3.64588   3.68122   3.69430   3.72412   3.72881
  Beta virt. eigenvalues --    3.74187   3.74388   3.77051   3.78747   3.79301
  Beta virt. eigenvalues --    3.80835   3.84150   3.85400   3.87968   3.88059
  Beta virt. eigenvalues --    3.88988   3.92297   3.92961   3.95288   3.97901
  Beta virt. eigenvalues --    3.99562   4.00248   4.03050   4.03646   4.05737
  Beta virt. eigenvalues --    4.06096   4.09103   4.10233   4.11923   4.15224
  Beta virt. eigenvalues --    4.16530   4.19529   4.21173   4.22242   4.25716
  Beta virt. eigenvalues --    4.27352   4.28965   4.34483   4.38581   4.40100
  Beta virt. eigenvalues --    4.40831   4.43109   4.44967   4.51530   4.54465
  Beta virt. eigenvalues --    4.55307   4.58595   4.59398   4.62944   4.64477
  Beta virt. eigenvalues --    4.67698   4.69508   4.72766   4.74870   4.76755
  Beta virt. eigenvalues --    4.77014   4.78440   4.82560   4.86077   4.87297
  Beta virt. eigenvalues --    4.89064   4.91207   4.93306   4.97370   4.99374
  Beta virt. eigenvalues --    5.02590   5.06181   5.06992   5.10500   5.11761
  Beta virt. eigenvalues --    5.15238   5.16255   5.18810   5.19986   5.23848
  Beta virt. eigenvalues --    5.24372   5.28857   5.35003   5.37222   5.42117
  Beta virt. eigenvalues --    5.44093   5.57017   5.60702   5.67750   5.69393
  Beta virt. eigenvalues --    5.74079   5.78713   5.88239   5.94315   5.97179
  Beta virt. eigenvalues --    6.03849   6.11360   6.18881   6.26986   6.32278
  Beta virt. eigenvalues --    6.35146   6.36628   6.44951   6.49054   6.68373
  Beta virt. eigenvalues --    6.79631   6.84480   7.08100   7.11242   7.28523
  Beta virt. eigenvalues --    7.41633   9.32075   9.69534  11.03001  11.13200
  Beta virt. eigenvalues --   12.19758  12.57585  13.31570  14.05629
          Condensed to atoms (all electrons):
               1          2          3          4          5          6
     1  C    4.921447   0.380313  -0.041902  -0.018595  -0.051989   0.591555
     2  C    0.380313   4.907506   0.556096  -0.030584  -0.025288  -0.040316
     3  C   -0.041902   0.556096   5.144207   0.254436  -0.023563  -0.047292
     4  C   -0.018595  -0.030584   0.254436   4.846376   0.323220  -0.033970
     5  C   -0.051989  -0.025288  -0.023563   0.323220   4.938977   0.326348
     6  C    0.591555  -0.040316  -0.047292  -0.033970   0.326348   5.002128
     7  H   -0.008239   0.002739   0.009484  -0.033426   0.378538  -0.033310
     8  H    0.007228  -0.001204   0.009735  -0.030890   0.403133  -0.035099
     9  H    0.006646  -0.043637   0.417580  -0.032654   0.005968  -0.000784
    10  H   -0.040194   0.420126  -0.045125   0.006731  -0.001008   0.006230
    11  O    0.006316  -0.004523  -0.023047   0.250884  -0.046363   0.000828
    12  H    0.000752   0.005264  -0.031049   0.411623  -0.042517   0.005940
    13  O   -0.000246  -0.000366   0.011229  -0.058197  -0.006899  -0.000125
    14  H   -0.043190   0.007145  -0.000781   0.004655  -0.035755   0.413135
    15  H    0.423084  -0.042422   0.006369  -0.001210   0.007705  -0.046613
               7          8          9         10         11         12
     1  C   -0.008239   0.007228   0.006646  -0.040194   0.006316   0.000752
     2  C    0.002739  -0.001204  -0.043637   0.420126  -0.004523   0.005264
     3  C    0.009484   0.009735   0.417580  -0.045125  -0.023047  -0.031049
     4  C   -0.033426  -0.030890  -0.032654   0.006731   0.250884   0.411623
     5  C    0.378538   0.403133   0.005968  -0.001008  -0.046363  -0.042517
     6  C   -0.033310  -0.035099  -0.000784   0.006230   0.000828   0.005940
     7  H    0.610863  -0.029039   0.000425   0.000022   0.005202  -0.002262
     8  H   -0.029039   0.578131  -0.000337   0.000059  -0.006431  -0.001860
     9  H    0.000425  -0.000337   0.539985  -0.008587   0.001558  -0.006833
    10  H    0.000022   0.000059  -0.008587   0.547838  -0.000225  -0.000353
    11  O    0.005202  -0.006431   0.001558  -0.000225   7.773962  -0.039436
    12  H   -0.002262  -0.001860  -0.006833  -0.000353  -0.039436   0.609214
    13  O   -0.000482   0.014002  -0.000096   0.000018   0.121478   0.009775
    14  H    0.001971  -0.006586   0.000088  -0.000335  -0.000767  -0.000427
    15  H   -0.000140  -0.000266  -0.000348  -0.003843   0.000157   0.000083
              13         14         15
     1  C   -0.000246  -0.043190   0.423084
     2  C   -0.000366   0.007145  -0.042422
     3  C    0.011229  -0.000781   0.006369
     4  C   -0.058197   0.004655  -0.001210
     5  C   -0.006899  -0.035755   0.007705
     6  C   -0.000125   0.413135  -0.046613
     7  H   -0.000482   0.001971  -0.000140
     8  H    0.014002  -0.006586  -0.000266
     9  H   -0.000096   0.000088  -0.000348
    10  H    0.000018  -0.000335  -0.003843
    11  O    0.121478  -0.000767   0.000157
    12  H    0.009775  -0.000427   0.000083
    13  O    8.085091  -0.000163  -0.000006
    14  H   -0.000163   0.548133  -0.009151
    15  H   -0.000006  -0.009151   0.555081
          Atomic-Atomic Spin Densities.
               1          2          3          4          5          6
     1  C   -0.001693   0.001323  -0.001348   0.001648  -0.002325   0.002551
     2  C    0.001323  -0.003833   0.002653  -0.003037   0.003364  -0.001355
     3  C   -0.001348   0.002653  -0.011239   0.013801  -0.001915   0.001284
     4  C    0.001648  -0.003037   0.013801  -0.031930  -0.008446  -0.000594
     5  C   -0.002325   0.003364  -0.001915  -0.008446   0.036537   0.001395
     6  C    0.002551  -0.001355   0.001284  -0.000594   0.001395  -0.001460
     7  H    0.000265  -0.000380  -0.000027   0.000159   0.003147  -0.000231
     8  H   -0.000320   0.000218  -0.000689   0.001266   0.002460   0.000072
     9  H   -0.000044   0.000220   0.000394  -0.000132  -0.000044   0.000034
    10  H    0.000093  -0.000181   0.000053   0.000062  -0.000069  -0.000029
    11  O    0.000260   0.000361   0.000727   0.008240  -0.012436  -0.000110
    12  H    0.000119  -0.000482  -0.001958   0.006354  -0.007662   0.000093
    13  O   -0.000071   0.000026  -0.000880  -0.004900   0.006999   0.000089
    14  H   -0.000273  -0.000034   0.000060  -0.000309  -0.000030   0.000661
    15  H   -0.000082   0.000068  -0.000031   0.000010   0.000020  -0.000042
               7          8          9         10         11         12
     1  C    0.000265  -0.000320  -0.000044   0.000093   0.000260   0.000119
     2  C   -0.000380   0.000218   0.000220  -0.000181   0.000361  -0.000482
     3  C   -0.000027  -0.000689   0.000394   0.000053   0.000727  -0.001958
     4  C    0.000159   0.001266  -0.000132   0.000062   0.008240   0.006354
     5  C    0.003147   0.002460  -0.000044  -0.000069  -0.012436  -0.007662
     6  C   -0.000231   0.000072   0.000034  -0.000029  -0.000110   0.000093
     7  H   -0.004880  -0.000052   0.000029   0.000002  -0.000204   0.000206
     8  H   -0.000052  -0.002663   0.000013  -0.000002  -0.001109  -0.000798
     9  H    0.000029   0.000013  -0.000745   0.000012  -0.000102  -0.000013
    10  H    0.000002  -0.000002   0.000012   0.000215   0.000005   0.000016
    11  O   -0.000204  -0.001109  -0.000102   0.000005   0.429042  -0.004778
    12  H    0.000206  -0.000798  -0.000013   0.000016  -0.004778   0.015536
    13  O   -0.000075   0.000508  -0.000031  -0.000000  -0.132245   0.003055
    14  H    0.000080   0.000345  -0.000000  -0.000002  -0.000100  -0.000027
    15  H    0.000001  -0.000005  -0.000000  -0.000005  -0.000001  -0.000000
              13         14         15
     1  C   -0.000071  -0.000273  -0.000082
     2  C    0.000026  -0.000034   0.000068
     3  C   -0.000880   0.000060  -0.000031
     4  C   -0.004900  -0.000309   0.000010
     5  C    0.006999  -0.000030   0.000020
     6  C    0.000089   0.000661  -0.000042
     7  H   -0.000075   0.000080   0.000001
     8  H    0.000508   0.000345  -0.000005
     9  H   -0.000031  -0.000000  -0.000000
    10  H   -0.000000  -0.000002  -0.000005
    11  O   -0.132245  -0.000100  -0.000001
    12  H    0.003055  -0.000027  -0.000000
    13  O    0.827426   0.000112  -0.000001
    14  H    0.000112  -0.000260   0.000031
    15  H   -0.000001   0.000031   0.000048
 Mulliken charges and spin densities:
               1          2
     1  C   -0.132987   0.000103
     2  C   -0.090850  -0.001068
     3  C   -0.196377   0.000883
     4  C    0.141601  -0.017808
     5  C   -0.150506   0.020994
     6  C   -0.108656   0.002359
     7  H    0.097654  -0.001959
     8  H    0.099423  -0.000755
     9  H    0.121026  -0.000409
    10  H    0.118647   0.000171
    11  O   -0.039594   0.287551
    12  H    0.082086   0.009661
    13  O   -0.175013   0.700011
    14  H    0.122028   0.000256
    15  H    0.111518   0.000011
 Sum of Mulliken charges =  -0.00000   1.00000
 Mulliken charges and spin densities with hydrogens summed into heavy atoms:
               1          2
     1  C   -0.021469   0.000114
     2  C    0.027797  -0.000897
     3  C   -0.075351   0.000474
     4  C    0.223687  -0.008148
     5  C    0.046571   0.018280
     6  C    0.013372   0.002615
    11  O   -0.039594   0.287551
    13  O   -0.175013   0.700011
 APT charges:
               1
     1  C   -0.540896
     2  C   -0.479796
     3  C   -0.640176
     4  C   -0.347992
     5  C   -0.698168
     6  C   -0.549707
     7  H    0.353325
     8  H    0.397958
     9  H    0.533667
    10  H    0.594633
    11  O   -0.029061
    12  H    0.386143
    13  O   -0.086823
    14  H    0.524607
    15  H    0.582288
 Sum of APT charges =  -0.00000
 APT charges with hydrogens summed into heavy atoms:
               1
     1  C    0.041392
     2  C    0.114837
     3  C   -0.106509
     4  C    0.038152
     5  C    0.053114
     6  C   -0.025100
    11  O   -0.029061
    13  O   -0.086823
 Electronic spatial extent (au):  <R**2>=            847.3848
 Charge=             -0.0000 electrons
 Dipole moment (field-independent basis, Debye):
    X=              2.1837    Y=             -0.1381    Z=              1.4615  Tot=              2.6313
 Quadrupole moment (field-independent basis, Debye-Ang):
   XX=            -50.7754   YY=            -42.9469   ZZ=            -47.6271
   XY=             -0.0092   XZ=             -4.1383   YZ=             -0.9971
 Traceless Quadrupole moment (field-independent basis, Debye-Ang):
   XX=             -3.6589   YY=              4.1696   ZZ=             -0.5107
   XY=             -0.0092   XZ=             -4.1383   YZ=             -0.9971
 Octapole moment (field-independent basis, Debye-Ang**2):
  XXX=              2.9454  YYY=             -0.0217  ZZZ=             -1.5010  XYY=             -4.5425
  XXY=             -4.9568  XXZ=             -3.1576  XZZ=             -4.6525  YZZ=              0.8073
  YYZ=             -0.3812  XYZ=             -0.2051
 Hexadecapole moment (field-independent basis, Debye-Ang**3):
 XXXX=           -640.2190 YYYY=           -299.6033 ZZZZ=           -162.9442 XXXY=             -4.5374
 XXXZ=            -18.4112 YYYX=             -3.3968 YYYZ=             -7.2775 ZZZX=              4.6826
 ZZZY=              0.9062 XXYY=           -149.2235 XXZZ=           -130.8775 YYZZ=            -82.0510
 XXYZ=             -1.1875 YYXZ=             -2.3623 ZZXY=              3.8117
 N-N= 3.622475488280D+02 E-N=-1.618989746190D+03  KE= 3.806852146977D+02
  Exact polarizability:       0.000       0.000       0.000       0.000       0.000       0.000
 Approx polarizability:     129.744      -7.756     123.595     -18.144      -3.146      89.872
                          Isotropic Fermi Contact Couplings
        Atom                 a.u.       MegaHertz       Gauss      10(-4) cm-1
     1  C(13)             -0.00004      -0.04577      -0.01633      -0.01527
     2  C(13)             -0.00024      -0.26831      -0.09574      -0.08950
     3  C(13)              0.00095       1.06662       0.38060       0.35579
     4  C(13)             -0.01052     -11.82134      -4.21815      -3.94318
     5  C(13)              0.00599       6.73796       2.40427       2.24754
     6  C(13)             -0.00037      -0.41673      -0.14870      -0.13901
     7  H(1)              -0.00043      -1.94400      -0.69367      -0.64845
     8  H(1)               0.00020       0.91312       0.32582       0.30458
     9  H(1)              -0.00011      -0.49164      -0.17543      -0.16399
    10  H(1)               0.00007       0.32910       0.11743       0.10978
    11  O(17)              0.03662     -22.19849      -7.92097      -7.40462
    12  H(1)               0.00285      12.73756       4.54508       4.24879
    13  O(17)              0.04154     -25.17846      -8.98430      -8.39863
    14  H(1)               0.00015       0.65861       0.23501       0.21969
    15  H(1)              -0.00000      -0.01722      -0.00614      -0.00574
 --------------------------------------------------------
       Center         ----  Spin Dipole Couplings  ----
                      3XX-RR        3YY-RR        3ZZ-RR
 --------------------------------------------------------
     1   Atom        0.004456     -0.002223     -0.002233
     2   Atom        0.005584     -0.001008     -0.004576
     3   Atom        0.006292     -0.003112     -0.003181
     4   Atom        0.003310     -0.012000      0.008690
     5   Atom       -0.009844      0.017818     -0.007975
     6   Atom        0.006726     -0.003251     -0.003475
     7   Atom        0.000260     -0.002422      0.002161
     8   Atom        0.000346      0.000125     -0.000471
     9   Atom        0.000838      0.000927     -0.001765
    10   Atom        0.002259     -0.000855     -0.001404
    11   Atom       -0.513105      1.273430     -0.760325
    12   Atom       -0.005022     -0.007106      0.012128
    13   Atom       -0.970586      2.442469     -1.471884
    14   Atom        0.001647      0.000853     -0.002500
    15   Atom        0.002588     -0.001310     -0.001279
 --------------------------------------------------------
                        XY            XZ            YZ
 --------------------------------------------------------
     1   Atom        0.001529      0.000086      0.001139
     2   Atom       -0.002183     -0.000437     -0.000485
     3   Atom       -0.006370      0.006199     -0.002515
     4   Atom       -0.007250      0.017790     -0.001612
     5   Atom        0.008173      0.008956      0.016664
     6   Atom        0.005128      0.004388      0.001337
     7   Atom        0.001168      0.005062      0.001379
     8   Atom        0.004594      0.006380      0.007945
     9   Atom       -0.003871      0.002249     -0.002335
    10   Atom       -0.001188      0.000137     -0.000097
    11   Atom        0.798588     -0.071213     -0.275857
    12   Atom       -0.004612      0.009042     -0.008291
    13   Atom        1.510472     -0.172827     -0.450810
    14   Atom        0.003671      0.000146      0.000095
    15   Atom        0.000743     -0.000736     -0.000059
 --------------------------------------------------------


 ---------------------------------------------------------------------------------
              Anisotropic Spin Dipole Couplings in Principal Axis System
 ---------------------------------------------------------------------------------

       Atom             a.u.   MegaHertz   Gauss  10(-4) cm-1        Axes

              Baa    -0.0035    -0.471    -0.168    -0.157 -0.1357  0.7431 -0.6553
     1 C(13)  Bbb    -0.0013    -0.174    -0.062    -0.058 -0.1792  0.6321  0.7539
              Bcc     0.0048     0.645     0.230     0.215  0.9744  0.2197  0.0474
 
              Baa    -0.0047    -0.630    -0.225    -0.210  0.0790  0.1758  0.9812
     2 C(13)  Bbb    -0.0016    -0.208    -0.074    -0.069  0.2765  0.9418 -0.1911
              Bcc     0.0062     0.838     0.299     0.280  0.9578 -0.2864 -0.0258
 
              Baa    -0.0067    -0.900    -0.321    -0.300  0.5642  0.6102 -0.5562
     3 C(13)  Bbb    -0.0057    -0.760    -0.271    -0.253 -0.0161  0.6816  0.7315
              Bcc     0.0124     1.660     0.592     0.554  0.8255 -0.4038  0.3944
 
              Baa    -0.0169    -2.267    -0.809    -0.756  0.5762  0.7366 -0.3542
     4 C(13)  Bbb    -0.0081    -1.083    -0.386    -0.361 -0.4846  0.6568  0.5777
              Bcc     0.0250     3.350     1.195     1.117  0.6582 -0.1612  0.7354
 
              Baa    -0.0192    -2.573    -0.918    -0.858 -0.5577 -0.2353  0.7960
     5 C(13)  Bbb    -0.0101    -1.356    -0.484    -0.452  0.7814 -0.4722  0.4080
              Bcc     0.0293     3.929     1.402     1.311  0.2798  0.8495  0.4472
 
              Baa    -0.0057    -0.765    -0.273    -0.255 -0.4756  0.7200  0.5054
     6 C(13)  Bbb    -0.0047    -0.630    -0.225    -0.210 -0.0428 -0.5928  0.8042
              Bcc     0.0104     1.395     0.498     0.465  0.8786  0.3609  0.3128
 
              Baa    -0.0039    -2.102    -0.750    -0.701  0.7712 -0.0150 -0.6365
     7 H(1)   Bbb    -0.0028    -1.483    -0.529    -0.495 -0.1121  0.9809 -0.1589
              Bcc     0.0067     3.585     1.279     1.196  0.6267  0.1939  0.7548
 
              Baa    -0.0085    -4.538    -1.619    -1.514 -0.2604 -0.5752  0.7755
     8 H(1)   Bbb    -0.0042    -2.221    -0.793    -0.741  0.8043 -0.5736 -0.1554
              Bcc     0.0127     6.760     2.412     2.255  0.5342  0.5832  0.6120
 
              Baa    -0.0031    -1.662    -0.593    -0.554 -0.0480  0.4647  0.8841
     9 H(1)   Bbb    -0.0030    -1.588    -0.567    -0.530  0.7596  0.5918 -0.2698
              Bcc     0.0061     3.250     1.160     1.084 -0.6486  0.6587 -0.3814
 
              Baa    -0.0014    -0.760    -0.271    -0.253  0.0519  0.2715  0.9611
    10 H(1)   Bbb    -0.0012    -0.663    -0.237    -0.221  0.3186  0.9076 -0.2735
              Bcc     0.0027     1.423     0.508     0.475  0.9465 -0.3204  0.0394
 
              Baa    -0.8399    60.775    21.686    20.272  0.7450 -0.3552 -0.5647
    11 O(17)  Bbb    -0.7722    55.879    19.939    18.639  0.5662 -0.1109  0.8168
              Bcc     1.6121  -116.654   -41.625   -38.912  0.3527  0.9282 -0.1185
 
              Baa    -0.0109    -5.809    -2.073    -1.938  0.5023  0.8575  0.1116
    12 H(1)   Bbb    -0.0085    -4.533    -1.617    -1.512  0.7755 -0.3897 -0.4967
              Bcc     0.0194    10.341     3.690     3.450  0.3824 -0.3360  0.8607
 
              Baa    -1.5432   111.666    39.845    37.248  0.9346 -0.3439  0.0911
    13 O(17)  Bbb    -1.5231   110.209    39.325    36.762 -0.0483  0.1310  0.9902
              Bcc     3.0663  -221.874   -79.170   -74.009  0.3524  0.9298 -0.1058
 
              Baa    -0.0025    -1.341    -0.479    -0.447 -0.2478  0.2436  0.9377
    14 H(1)   Bbb    -0.0024    -1.298    -0.463    -0.433 -0.6205  0.7034 -0.3467
              Bcc     0.0049     2.639     0.942     0.880  0.7440  0.6678  0.0231
 
              Baa    -0.0015    -0.803    -0.286    -0.268 -0.2463  0.7573 -0.6048
    15 H(1)   Bbb    -0.0014    -0.721    -0.257    -0.241  0.0265  0.6291  0.7769
              Bcc     0.0029     1.524     0.544     0.508  0.9688  0.1753 -0.1750
 

 ---------------------------------------------------------------------------------

 No NMR shielding tensors so no spin-rotation constants.
 Leave Link  601 at Sun Apr  3 21:35:41 2022, MaxMem=  1073741824 cpu:               3.4 elap:               0.5
 (Enter /home/saurabh/g16/l701.exe)
 ... and contract with generalized density number  0.
 Compute integral second derivatives.
 Leave Link  701 at Sun Apr  3 21:35:42 2022, MaxMem=  1073741824 cpu:               2.1 elap:               0.3
 (Enter /home/saurabh/g16/l702.exe)
 L702 exits ... SP integral derivatives will be done elsewhere.
 Leave Link  702 at Sun Apr  3 21:35:42 2022, MaxMem=  1073741824 cpu:               0.2 elap:               0.0
 (Enter /home/saurabh/g16/l703.exe)
 Integral derivatives from FoFJK, PRISM(SPDF).
 Compute integral second derivatives, UseDBF=F ICtDFT=           0.
 Calling FoFJK, ICntrl=    100127 FMM=F ISym2X=0 I1Cent= 0 IOpClX= 1 NMat=1 NMatS=1 NMatT=0.
 FoFJK:  IHMeth= 1 ICntrl=  100127 DoSepK=F KAlg= 0 I1Cent=           0 FoldK=F
 IRaf=         0 NMat=       1 IRICut=       1 DoRegI=T DoRafI=F ISym2E= 0 IDoP0=0 IntGTp=1.
 FoFCou: FMM=F IPFlag=           0 FMFlag=      100000 FMFlg1=         800
         NFxFlg=           0 DoJE=F BraDBF=F KetDBF=F FulRan=T
         wScrn=  0.000000 ICntrl=    100127 IOpCl=  1 I1Cent=           0 NGrid=           0
         NMat0=    1 NMatS0=      1 NMatT0=    0 NMatD0=    1 NMtDS0=    0 NMtDT0=    0
 Symmetry not used in FoFCou.
 Leave Link  703 at Sun Apr  3 21:42:29 2022, MaxMem=  1073741824 cpu:            3257.1 elap:             406.9
 (Enter /home/saurabh/g16/l716.exe)
 Dipole        = 8.59142883D-01-5.43165776D-02 5.74988236D-01
 Polarizability= 0.00000000D+00 0.00000000D+00 0.00000000D+00
                 0.00000000D+00 0.00000000D+00 0.00000000D+00
 ***** Axes restored to original set *****
 -------------------------------------------------------------------
 Center     Atomic                   Forces (Hartrees/Bohr)
 Number     Number              X              Y              Z
 -------------------------------------------------------------------
      1        6          -0.002376451    0.009090593   -0.000209062
      2        6           0.014728685    0.003533412    0.002425267
      3        6          -0.005279679   -0.013203132   -0.005755235
      4        6          -0.018858551   -0.012074085    0.048857085
      5        6           0.007997241    0.000235105   -0.000177793
      6        6          -0.010011045   -0.005700461    0.002731893
      7        1           0.004214815    0.003118031   -0.008095978
      8        1          -0.014270023   -0.001055303   -0.001670875
      9        1           0.003505247    0.001363844   -0.003565245
     10        1           0.002665270   -0.000557964    0.001100017
     11        8           0.006678495    0.017762300   -0.013299569
     12        1           0.007667581   -0.011712423   -0.011712761
     13        8           0.006907076    0.005376199   -0.014275665
[...]
 --------------------------------------------------------------------------------
 GradGradGradGradGradGradGradGradGradGradGradGradGradGradGradGradGradGrad

 Leave Link  103 at Sun Apr  3 22:19:48 2022, MaxMem=  1073741824 cpu:               0.2 elap:               0.0
 (Enter /home/saurabh/g16/l9999.exe)

 ----------------------------------------------------------------------

 Electric dipole moment (input orientation):
 (Debye = 10**-18 statcoulomb cm , SI units = C m)
                  (au)            (Debye)         (10**-30 SI)
   Tot        0.118245D+01      0.300550D+01      0.100253D+02
   x         -0.340414D+00     -0.865247D+00     -0.288615D+01
   y         -0.810409D+00     -0.205985D+01     -0.687093D+01
   z          0.790921D+00      0.201032D+01      0.670570D+01

 Dipole polarizability, Alpha (input orientation).
 (esu units = cm**3 , SI units = C**2 m**2 J**-1)
 Alpha(0;0):
               (au)            (10**-24 esu)      (10**-40 SI)
   iso        0.741423D+02      0.109868D+02      0.122244D+02
   aniso      0.344665D+02      0.510741D+01      0.568276D+01
   xx         0.820731D+02      0.121620D+02      0.135320D+02
   yx         0.547219D+01      0.810896D+00      0.902243D+00
   yy         0.878992D+02      0.130253D+02      0.144926D+02
   zx         0.212847D+01      0.315406D+00      0.350937D+00
   zy         0.501119D+00      0.742581D-01      0.826233D-01
   zz         0.524545D+02      0.777296D+01      0.864859D+01

 ----------------------------------------------------------------------

 Dipole orientation:
     6         -0.32104422         -0.46186722         -1.07727780
     6         -2.64117018          1.00587968         -1.31242294
     6         -2.75546333          3.11118255         -2.70901983
     6         -0.50304321          3.96291618         -4.17895308
     6          2.00670314          3.01713823         -3.13525086
     6          1.86803963          0.45264826         -1.94115841
     1          2.66626683          4.37495096         -1.71255310
     1          3.40067359          3.08466361         -4.65374306
     1         -4.49651505          4.16068504         -2.91120897
     1         -4.30799019          0.34689274         -0.32503652
     8         -0.89576465          2.94418507         -6.80414651
     1         -0.45407995          6.00087537         -4.44284031
     8          0.73681333          3.90241662         -8.40612908
     1          3.60680558         -0.60151107         -1.72070179
     1         -0.40388110         -2.28330128         -0.15297290

 Electric dipole moment (dipole orientation):
 (Debye = 10**-18 statcoulomb cm , SI units = C m)
                  (au)            (Debye)         (10**-30 SI)
   Tot        0.118245D+01      0.300550D+01      0.100253D+02
   x          0.000000D+00      0.000000D+00      0.000000D+00
   y          0.000000D+00      0.000000D+00      0.000000D+00
   z          0.118245D+01      0.300550D+01      0.100253D+02

 Dipole polarizability, Alpha (dipole orientation).
 (esu units = cm**3 , SI units = C**2 m**2 J**-1)
 Alpha(0;0):
               (au)            (10**-24 esu)      (10**-40 SI)
   iso        0.741423D+02      0.109868D+02      0.122244D+02
   aniso      0.344665D+02      0.510741D+01      0.568276D+01
   xx         0.796006D+02      0.117956D+02      0.131244D+02
   yx        -0.114873D+01     -0.170224D+00     -0.189400D+00
   yy         0.703876D+02      0.104304D+02      0.116053D+02
   zx        -0.757119D+01     -0.112193D+01     -0.124832D+01
   zy        -0.177184D+02     -0.262559D+01     -0.292137D+01
   zz         0.724386D+02      0.107343D+02      0.119435D+02

 ----------------------------------------------------------------------
 Unable to Open any file for archive entry.
 1\1\GINC-HEL01\Freq\UB3LYP\CC-pVTZ\C6H7O2(2)\SAURABH\03-Apr-2022\0\\#P
  Geom=AllCheck Guess=TCheck SCRF=Check GenChk UB3LYP/CC-pVTZ Freq\\Mol
 _02\\0,2\C,0.0315600068,0.2351713904,-0.5977270273\C,-1.1912292906,1.0
 23697855,-0.502095819\C,-1.1676587343,2.3378745856,-0.2502958222\C,0.1
 357253233,3.0539275466,-0.1185412664\C,1.298039648,2.1587637778,0.2902
 151505\C,1.2068363135,0.759257149,-0.2383357045\H,1.3280444808,2.11780
 82441,1.3867162601\H,2.2261717979,2.6479510908,-0.0104120592\H,-2.0780
 870504,2.919188355,-0.2064691813\H,-2.1386624715,0.5193059974,-0.64553
 34649\O,0.4018933242,3.6432377289,-1.4770441552\H,0.0730492011,3.92147
 56645,0.5346353595\O,1.4070144185,4.4864556333,-1.4478338933\H,2.11362
 35363,0.1696904831,-0.2777336113\H,-0.0369557647,-0.7874454537,-0.9437
 763785\\Version=EM64L-G16RevC.01\State=2-A\HF=-383.2725632\S2=0.754136
 \S2-1=0.\S2A=0.750011\RMSD=3.164e-09\RMSF=1.761e-05\ZeroPoint=0.117892
 \Thermal=0.1249824\ETot=-383.1475808\HTot=-383.1466366\GTot=-383.18697
 85\Dipole=-0.3404143,-0.8104086,0.7909207\DipoleDeriv=-0.2035542,0.035
 673,-0.0239559,-0.1353029,0.1298414,0.0530053,-0.0545469,0.1234374,-0.
 1264514,0.2994276,-0.1302454,0.0472091,-0.0027663,0.1015533,0.0183904,
 -0.0109907,0.0275432,-0.0886947,-0.0038954,-0.0739113,-0.0211597,0.062
 4739,-0.1837241,0.0476875,0.0652835,-0.0651316,-0.2664366,0.2209823,0.
 2648739,-0.027828,0.039315,0.5291223,-0.1039398,-0.1351592,-0.227155,0
 .4613128,-0.0808811,0.0009793,-0.0333561,0.0302438,-0.0229015,-0.02747
 79,-0.0523129,0.0282288,0.0790886,0.0722582,0.0195845,0.0360959,0.1098
 25,0.0285211,0.124071,0.1183822,0.0813852,-0.1114577,0.1150031,0.04971
 16,0.0115203,-0.0547851,0.0116322,-0.0025473,-0.0321459,-0.0041761,-0.
 1069479,-0.0028521,-0.0262173,0.0102229,-0.0613221,0.0408433,-0.016725
 7,0.0576273,0.0090595,0.0842113,-0.0604255,0.0431004,-0.0008177,0.0504
 592,0.0110217,-0.018844,-0.0077031,-0.0175511,0.1385296,-0.0734196,-0.
 0601975,-0.0223114,-0.0646152,0.027551,-0.0203053,-0.0210638,-0.032155
 8,0.1252629,-0.2805097,-0.1684696,-0.0855521,-0.1010679,-0.2549131,-0.
 0349402,0.0111162,0.0997047,-0.1991832,0.0384513,-0.0359989,0.0109495,
 -0.0022746,-0.1017232,-0.0583377,0.0376631,0.0221836,-0.0163524,-0.047
 9754,0.0054933,0.1217223,0.0691923,-0.2217304,0.1331729,0.0232941,0.08
 04464,-0.2111967,-0.0398845,0.0741572,-0.0081459,0.0665378,-0.0096091,
 -0.0232307,-0.0005845,-0.0487434,0.1196055,0.0472749,0.0014667,-0.0145
 934,-0.0059129,-0.0854848,-0.0699786,0.0011404,-0.0770757,0.1187098\Po
 lar=82.0731025,5.4721944,87.8991978,2.1284654,0.5011188,52.4545486\Qua
 drupole=2.4458051,-0.7162851,-1.72952,-1.9739883,1.3193253,3.2477326\P
 G=C01 [X(C6H7O2)]\NImag=0\\0.69964763,0.07738058,0.65245310,0.10932530
 ,0.18393108,0.20435052,-0.19766832,0.07249617,0.01029680,0.62767419,0.
 04007747,-0.14672606,-0.01984333,0.05741361,0.76964813,0.00101410,-0.0
 1776241,-0.06832805,0.03731810,0.12659896,0.16450865,0.00490373,0.0325
 9984,0.00653753,-0.11909123,-0.00247638,-0.00404447,0.59976116,0.03574
 824,-0.02683000,-0.00244581,-0.02020545,-0.48119205,-0.08183335,-0.067
 11915,0.79206003,0.01015510,-0.00401684,0.00915585,-0.01027673,-0.0742
 5064,-0.06983918,0.00068978,0.09993136,0.15857418,-0.00649041,-0.00286
 530,-0.00287956,0.00815383,-0.01787389,-0.00354518,-0.18673024,-0.0361
 4966,-0.01209181,0.48630899,-0.00264295,0.00223297,0.00008255,-0.03094
 526,-0.02402223,-0.00463500,-0.03947501,-0.10954354,-0.01659238,0.0013
 6012,0.54113984,0.00137762,0.00072335,-0.00779247,-0.00692250,-0.00119
 432,0.00621928,-0.02250096,-0.01959281,-0.07800174,0.04838867,0.147195
 29,0.36960750,-0.00195753,-0.02863720,-0.01530557,0.00377675,-0.003015
 02,0.00056952,-0.02588399,0.01734916,-0.00727408,-0.14149229,0.0403320
 5,-0.01587534,0.53006170,-0.01455848,-0.01389985,-0.01287626,0.0030383
 9,-0.00620345,0.00237336,-0.00687387,0.01530949,-0.00229037,0.04391412
 ,-0.11813543,0.00555032,0.04762930,0.49067993,-0.00953058,-0.01553909,
 0.00080982,0.00569726,-0.00031371,-0.00819622,-0.00120650,0.00102256,0
 .00623259,-0.01901825,0.00893679,-0.07167985,-0.01798891,-0.01153188,0
 .51519514,-0.40724271,-0.14147665,-0.10185583,-0.04957434,0.01458775,-
 0.00585635,-0.00210444,-0.01351874,-0.00370812,0.00307144,0.02863218,0
 .01300679,-0.09179807,-0.00354397,-0.00576799,0.80256599,-0.12463114,-
 0.17386399,-0.05587782,0.00756657,0.02427872,0.00608230,0.00017132,-0.
 00851181,-0.00454425,0.01259594,-0.02243483,-0.00810907,-0.00112441,-0
 .19143532,-0.03699563,0.01061535,0.53566604,-0.09953966,-0.05987778,-0
 .09324710,-0.00664166,0.00634534,0.00832584,-0.00014400,-0.00532621,-0
 .00124432,0.00766453,0.00717252,0.00471852,-0.00116178,-0.04425165,-0.
 08689362,0.11467857,0.13623646,0.21449909,0.00042184,-0.00070417,0.000
 27790,-0.00000025,-0.00053026,0.00041695,-0.00008937,-0.00026239,0.001
 29184,0.00004252,0.00322631,-0.02500267,-0.04259579,0.00301096,-0.0054
 4789,-0.00042512,-0.00238286,-0.00436859,0.04416744,-0.00024997,-0.002
 93754,-0.00056960,0.00187644,-0.00036397,-0.00176027,0.00019433,0.0007
 9802,0.00055313,-0.00272370,-0.00209852,0.01728548,0.00298167,-0.04266
 585,0.00535424,-0.00378735,-0.00124780,-0.03262978,-0.00260424,0.05271
 403,0.00355970,-0.00119244,0.00088492,-0.00059338,0.00127469,0.0000525
 8,-0.00024508,0.00018093,-0.00052168,0.00075257,0.00031857,-0.01009730
 ,-0.00661121,0.01514984,-0.28725516,-0.00273925,-0.00718048,-0.0122657
 4,0.00727921,-0.01033385,0.31731589,0.00194378,0.00027392,0.00109180,-
 0.00035736,0.00089924,0.00013848,-0.00240992,0.00360410,-0.00120366,-0
 .02482854,-0.00931805,0.00439304,-0.23362419,-0.09573003,0.06234461,0.
 00012877,-0.00145008,-0.00228939,0.00066440,0.00041327,0.00069522,0.25
 698596,0.00189545,-0.00488928,-0.00134422,0.00066403,-0.00018166,0.000
 97026,0.00169323,-0.00270467,0.00183246,0.01674119,0.01049243,-0.00661
 400,-0.09695711,-0.09758832,0.03245250,-0.02723366,-0.01427747,0.00840
 333,-0.00165033,-0.00076339,0.00115984,0.10510288,0.10760568,0.0012261
 3,-0.00198492,-0.00068140,-0.00016057,0.00013929,0.00038494,-0.0015758
 8,0.00184223,-0.00053239,-0.01023479,-0.00360424,0.00032050,0.06560065
 ,0.03217985,-0.06168131,-0.01385487,-0.00776290,0.00272521,0.02825494,
 0.01408649,-0.01044521,-0.06793195,-0.03501199,0.07023614,0.00170148,-
 0.00047449,-0.00047404,0.00426782,-0.00258228,-0.00043123,-0.25687015,
 0.12786870,0.00969896,-0.01768773,0.01548322,-0.00011367,-0.00228827,-
 0.00379910,0.00083973,0.00027251,-0.00090749,-0.00020792,-0.00012326,0
 .00010405,-0.00011286,-0.00103045,0.00089860,-0.00049235,0.26958042,-0
 .00246726,-0.00397278,-0.00303577,0.02893025,-0.01337232,-0.00140606,0
 .12555602,-0.13706164,-0.00994985,-0.01433268,0.01069696,0.00048021,-0
 .00253846,-0.00128731,0.00029798,-0.00041122,-0.00040321,-0.00008446,0
 .00006654,0.00004971,-0.00001750,-0.00080172,0.00053160,-0.00032681,-0
 .13606969,0.14375853,-0.00111173,-0.00233680,0.01048475,0.00545254,-0.
 00511819,0.00497164,0.00905325,-0.00778230,-0.03390347,-0.00529628,0.0
 0080660,0.00175741,0.00007699,-0.00194438,0.00177361,0.00065318,0.0002
 7394,-0.00071875,-0.00071788,0.00044614,-0.00022392,0.00004866,-0.0001
 8518,0.00027120,-0.00872698,0.01288301,0.02385306,-0.01773443,-0.01401
 519,-0.00413172,-0.26948655,-0.11171389,-0.03211822,0.00292853,0.00121
 704,0.00001787,0.00122317,0.00068508,-0.00083863,0.00042065,0.00025167
 ,0.00034989,-0.00285693,0.00414922,0.00107373,0.00000148,-0.00004627,-
 0.00005803,0.00001064,-0.00006077,-0.00000300,0.00104815,-0.00029588,0
 .00039237,0.28433586,0.01651161,0.01105775,0.00235586,-0.10996841,-0.1
 1564490,-0.02092660,-0.03031888,-0.01159186,-0.00431235,0.00173330,-0.
 00465812,-0.00342232,0.00023910,-0.00019363,0.00001289,0.00291193,-0.0
 0202309,-0.00064429,0.00001801,0.00001613,0.00000933,-0.00007318,0.000
 09379,0.00001094,0.00023928,0.00080799,0.00162029,0.11989136,0.1217275
 4,0.00127870,0.00112197,0.00381320,-0.03166132,-0.02137575,-0.04735054
 ,-0.00586980,-0.00303483,0.00531622,0.00060629,-0.00115154,0.01200153,
 0.00042239,0.00039313,-0.00048312,0.00070691,-0.00105684,0.00182677,-0
 .00015523,0.00002841,0.00004420,0.00009551,-0.00013132,0.00003256,0.00
 047822,0.00138449,-0.00683265,0.03569600,0.02466185,0.03294481,0.00016
 688,0.00047267,0.00211668,-0.00188648,0.00215365,0.00141723,-0.0147213
 9,-0.02072229,0.02475210,-0.04574360,0.00574580,-0.02023240,0.00626464
 ,0.00359541,-0.01950411,0.00078744,-0.00114918,-0.00041368,-0.00423540
 ,0.00378108,-0.00127386,-0.00040031,-0.00139153,-0.00084842,0.00030372
 ,0.00032767,-0.00049532,0.00012832,0.00029733,-0.00199954,0.29549538,0
 .00159451,-0.00044240,0.00045972,-0.00169648,0.00391915,0.00140811,-0.
 01794697,-0.01773613,0.01434489,0.01259189,-0.02649379,-0.00934209,0.0
 0197997,-0.00986435,0.02627443,-0.00091269,0.00036728,-0.00002370,0.00
 168552,-0.00345691,0.00181591,-0.00324712,-0.00083407,-0.00005233,0.00
 033989,0.00043891,-0.00005802,0.00000746,0.00028335,-0.00112986,0.1975
 7524,0.20543588,-0.00375844,0.00155890,0.00051503,0.00011255,-0.007631
 08,-0.00210513,0.01713727,0.01241138,0.00822830,-0.04697817,-0.0318674
 8,-0.10511791,-0.00770598,0.01422209,-0.02957600,0.00191170,0.00097986
 ,0.00120981,-0.00269247,0.00423019,0.00074426,0.00223593,0.00042468,0.
 00057122,-0.00066080,-0.00036073,-0.00012564,0.00012138,-0.00037084,-0
 .00118148,0.04746497,-0.00883749,0.22905719,0.00047705,0.00067051,-0.0
 0046471,-0.00572384,-0.00068328,-0.00065014,0.00277382,-0.02524340,-0.
 01856577,-0.05107888,0.01237689,0.00536471,-0.00119841,0.02357244,0.01
 381916,-0.00469645,0.00073062,-0.00210773,0.00182942,-0.00049619,0.000
 22165,0.00015863,-0.00042144,0.00030508,0.00103246,0.00061218,0.000496
 22,-0.00009762,-0.00144328,0.00125411,-0.00101639,0.00164544,0.0076530
 6,0.05564032,-0.00006287,0.00066697,0.00014871,-0.00272537,0.00077040,
 -0.00059571,0.00010839,-0.01134585,-0.00791120,0.01384813,-0.22219226,
 -0.13398547,0.00169460,-0.01507903,-0.00822300,0.00365836,0.00002941,0
 .00093766,-0.00043120,0.00040019,0.00029957,0.00046031,0.00012648,-0.0
 0010538,-0.00025309,0.00081848,0.00071470,0.00003169,-0.00065404,0.000
 49919,-0.00563770,0.00677700,0.01534058,-0.01350715,0.23765035,-0.0004
 2741,-0.00004116,-0.00022284,0.00002295,-0.00048542,0.00017726,0.00068
 834,-0.00016145,0.00283677,0.00907553,-0.12843497,-0.13082788,-0.00163
 401,0.00839635,0.00492563,-0.00227666,0.00125766,0.00068024,0.00045743
 ,0.00038438,0.00143142,-0.00031571,-0.00003835,0.00004039,-0.00024200,
 -0.00008465,-0.00001532,0.00013961,0.00001198,-0.00036744,0.00632902,-
 0.01097161,-0.04297404,-0.00822337,0.13259755,0.15909734,0.00069643,0.
 00066488,0.00077990,-0.00263574,0.00097902,0.00014131,0.00217139,-0.00
 410222,0.00635294,-0.02463312,-0.02399230,0.01913820,-0.00090237,0.002
 84317,-0.00205180,0.00026719,-0.00113364,-0.00101079,0.00051660,0.0008
 2146,-0.00049536,0.00215436,0.00090378,-0.00018122,-0.00035310,-0.0000
 9294,-0.00002521,0.00009096,-0.00009847,-0.00093382,-0.23545636,-0.193
 61071,-0.01479009,0.00159002,0.00298359,-0.00351775,0.25630774,-0.0001
 0664,0.00028440,0.00028258,-0.00189743,0.00041498,-0.00003157,0.001310
 78,-0.00256464,0.00710093,-0.02638053,-0.03176078,0.01524193,-0.001649
 61,0.00011491,0.00015901,-0.00078592,-0.00012629,-0.00023484,0.0005082
 9,0.00081969,-0.00047586,0.00010193,0.00101994,-0.00009369,-0.00075492
 ,-0.00041435,0.00019719,0.00006939,-0.00004386,-0.00089664,-0.18530699
 ,-0.15838648,-0.00019360,0.00093546,0.00274669,-0.00293325,0.21386632,
 0.18794891,0.00015036,-0.00007402,-0.00033128,0.00200118,0.00010796,0.
 00012601,0.00132940,0.00570410,-0.00657779,0.03362807,0.02353384,0.009
 67683,0.00046167,0.00181563,0.00203081,-0.00005055,0.00003493,-0.00035
 711,0.00066740,-0.00061773,0.00000177,0.00101275,0.00032396,-0.0009409
 0,0.00046865,0.00003567,-0.00002624,-0.00001991,0.00020415,0.00087005,
 -0.03634728,-0.01416099,-0.05934241,0.00017662,0.00109190,0.00459584,-
 0.00342382,-0.01813901,0.05013610,-0.02033507,0.01783599,0.00131559,-0
 .00226058,-0.00349459,-0.00320074,0.00030978,-0.00019290,0.00017256,0.
 00051441,-0.00146365,-0.00037992,0.00504052,-0.00365022,-0.00029176,-0
 .25017881,0.12666789,0.00488206,0.00000421,0.00045147,-0.00010987,0.00
 070653,0.00059333,0.00034229,0.00001581,0.00011270,0.00033460,-0.00094
 311,0.00080829,0.00014983,0.00019259,-0.00003717,-0.00007675,0.0001634
 5,-0.00014779,-0.00009663,0.00005362,0.00007732,-0.00004750,0.26578871
 ,-0.01306114,0.01054073,-0.00119997,-0.00129530,0.00051188,-0.00387965
 ,-0.00049057,0.00043049,0.00048121,-0.00267228,-0.00402281,-0.00435210
 ,0.02269496,-0.01240610,0.00095417,0.13058465,-0.13729442,-0.01168494,
 0.00021360,-0.00031532,-0.00072902,-0.00017652,0.00122775,0.00081074,0
 .00009217,0.00007244,0.00057596,-0.00052860,0.00020541,0.00014033,0.00
 027266,-0.00000704,0.00008991,0.00129613,-0.00070397,0.00047932,0.0000
 4443,0.00004742,0.00006409,-0.13693787,0.14140546,-0.00727761,0.005027
 73,0.00757058,-0.00331971,-0.00426925,0.00951699,-0.00026461,-0.000476
 54,-0.00121470,0.00009266,-0.00155280,-0.00016595,0.01001823,-0.003708
 11,0.00386527,0.00550495,-0.01423630,-0.04049312,-0.00053177,0.0011312
 9,-0.00020626,-0.00050841,-0.00044444,0.00050857,0.00011520,0.00029435
 ,-0.00148961,-0.00068417,0.00058167,-0.00001227,-0.00081631,0.00018621
 ,0.00015171,0.00063015,-0.00074914,0.00068774,-0.00002085,0.00011596,0
 .00006488,-0.00411352,0.01575628,0.02748485,-0.05853035,-0.01422157,-0
 .00663007,0.00481208,0.02625885,0.00883064,-0.00494770,0.00172897,-0.0
 0001098,-0.00062955,-0.00000443,0.00019706,-0.00382334,0.00030022,-0.0
 0224285,0.00178354,-0.02971811,-0.01041369,-0.00017871,-0.00071606,-0.
 00026946,-0.00010231,-0.00077766,-0.00044605,0.00013059,0.00140448,-0.
 00013443,0.00093087,-0.00074798,-0.00006825,0.00012094,0.00003123,0.00
 002586,0.00014641,-0.00001989,0.00002069,0.00013237,0.00001257,-0.0000
 0703,0.00092793,-0.00003632,0.00117579,0.05922721,-0.01542742,-0.30367
 401,-0.09006772,-0.00325175,-0.01183660,-0.00460235,0.00306693,0.00048
 417,-0.00037610,0.00021335,0.00080011,0.00013562,-0.00097901,0.0026543
 1,-0.00286124,0.00067999,-0.00872322,-0.00433764,-0.00016378,-0.000948
 46,-0.00027954,-0.00005896,0.00014120,-0.00012727,-0.00018485,-0.00066
 301,-0.00009296,0.00035768,0.00061755,0.00054740,-0.00001381,-0.000000
 41,0.00000362,-0.00004492,-0.00001079,0.00002362,-0.00007637,-0.000100
 53,0.00007554,-0.00062280,0.00030808,0.00234308,0.01650571,0.32095160,
 -0.00644157,-0.08953756,-0.06698153,-0.00132550,0.00001544,0.00153593,
 0.00041575,-0.00043926,0.00149139,-0.00016429,-0.00020775,-0.00061848,
 -0.00359257,-0.00347791,0.01093241,-0.00035247,-0.00910186,0.00123429,
 0.00027083,0.00241149,0.00054022,0.00019311,-0.00179752,-0.00080950,-0
 .00013892,-0.00010986,0.00022393,0.00006284,0.00020745,-0.00062183,-0.
 00014908,0.00008684,-0.00005492,0.00009097,-0.00005996,-0.00006511,0.0
 0003837,-0.00009914,0.00007344,0.00111976,0.00249366,-0.00626865,0.009
 97278,0.09961594,0.05938840\\-0.00000009,-0.00000451,0.00000083,-0.000
 00586,-0.00000013,-0.00000300,0.00000335,0.00002282,-0.00000016,-0.000
 02201,-0.00003808,0.00006543,-0.00000908,-0.00000883,-0.00000357,0.000
 02381,0.00000478,0.00001462,0.00000082,-0.00000565,0.00000114,0.000000
 32,0.00000158,-0.00000010,-0.00000318,-0.00000122,-0.00000054,-0.00000
 039,0.00000114,-0.00000263,0.00001414,0.00003803,-0.00006548,-0.000002
 44,-0.00000272,0.00000322,-0.00000112,-0.00000543,-0.00001048,0.000001
 05,-0.00000120,-0.00000079,0.00000068,-0.00000059,0.00000151\\\@
 The archive entry for this job was punched.


 THE TEST OF A FIRST RATE INTELLIGENCE IS THE ABILITY TO HOLD TWO OPPOSED
 IDEAS IN THE MIND AT THE SAME TIME, AND STILL RETAIN THE ABILITY TO FUNCTION.
 ONE SHOULD, FOR EXAMPLE, BE ABLE TO SEE THAT THINGS ARE HOPELESS AND YET BE
 DETERMINED TO MAKE THEM OTHERWISE.

                                                       -- F. SCOTT FITZGERALD
 Job cpu time:       0 days  2 hours 27 minutes 45.1 seconds.
 Elapsed time:       0 days  0 hours 18 minutes 27.8 seconds.
 File lengths (MBytes):  RWF=    280 Int=      0 D2E=      0 Chk=     14 Scr=      1
 Normal termination of Gaussian 16 at Sun Apr  3 22:19:48 2022.
