 Entering Gaussian System, Link 0=g16
 Input=Mol_01.com
 Output=Mol_01.log
 Initial command:
 /home/saurabh/gaussian/g16/l1.exe "/home/saurabh/gaussian/gauss_scr/Gau-33964.inp" -scrdir="/home/saurabh/gaussian/gauss_scr/"
 Entering Link 1 = /home/saurabh/gaussian/g16/l1.exe PID=     33965.
  
 Copyright (c) 1988-2019, Gaussian, Inc.  All Rights Reserved.
  
 This is part of the Gaussian(R) 16 program.  It is based on
 the Gaussian(R) 09 system (copyright 2009, Gaussian, Inc.),
 the Gaussian(R) 03 system (copyright 2003, Gaussian, Inc.),
 the Gaussian(R) 98 system (copyright 1998, Gaussian, Inc.),
 the Gaussian(R) 94 system (copyright 1995, Gaussian, Inc.),
 the Gaussian 92(TM) system (copyright 1992, Gaussian, Inc.),
 the Gaussian 90(TM) system (copyright 1990, Gaussian, Inc.),
 the Gaussian 88(TM) system (copyright 1988, Gaussian, Inc.),
 the Gaussian 86(TM) system (copyright 1986, Carnegie Mellon
 University), and the Gaussian 82(TM) system (copyright 1983,
 Carnegie Mellon University). Gaussian is a federally registered
 trademark of Gaussian, Inc.
  
 This software contains proprietary and confidential information,
 including trade secrets, belonging to Gaussian, Inc.
  
 This software is provided under written license and may be
 used, copied, transmitted, or stored only in accord with that
 written license.
  
 The following legend is applicable only to US Government
 contracts under FAR:
  
                    RESTRICTED RIGHTS LEGEND
  
 Use, reproduction and disclosure by the US Government is
 subject to restrictions as set forth in subparagraphs (a)
 and (c) of the Commercial Computer Software - Restricted
 Rights clause in FAR 52.227-19.
  
 Gaussian, Inc.
 340 Quinnipiac St., Bldg. 40, Wallingford CT 06492
  
  
 ---------------------------------------------------------------
 Warning -- This program may not be used in any manner that
 competes with the business of Gaussian, Inc. or will provide
 assistance to any competitor of Gaussian, Inc.  The licensee
 of this program is prohibited from giving any competitor of
 Gaussian, Inc. access to this program.  By using this program,
 the user acknowledges that Gaussian, Inc. is engaged in the
 business of creating and licensing software in the field of
 computational chemistry and represents and warrants to the
 licensee that it is not a competitor of Gaussian, Inc. and that
 it will not use this program in any manner prohibited above.
 ---------------------------------------------------------------
  

 Cite this work as:
 Gaussian 16, Revision C.01,
 M. J. Frisch, G. W. Trucks, H. B. Schlegel, G. E. Scuseria, 
 M. A. Robb, J. R. Cheeseman, G. Scalmani, V. Barone, 
 G. A. Petersson, H. Nakatsuji, X. Li, M. Caricato, A. V. Marenich, 
 J. Bloino, B. G. Janesko, R. Gomperts, B. Mennucci, H. P. Hratchian, 
 J. V. Ortiz, A. F. Izmaylov, J. L. Sonnenberg, D. Williams-Young, 
 F. Ding, F. Lipparini, F. Egidi, J. Goings, B. Peng, A. Petrone, 
 T. Henderson, D. Ranasinghe, V. G. Zakrzewski, J. Gao, N. Rega, 
 G. Zheng, W. Liang, M. Hada, M. Ehara, K. Toyota, R. Fukuda, 
 J. Hasegawa, M. Ishida, T. Nakajima, Y. Honda, O. Kitao, H. Nakai, 
 T. Vreven, K. Throssell, J. A. Montgomery, Jr., J. E. Peralta, 
 F. Ogliaro, M. J. Bearpark, J. J. Heyd, E. N. Brothers, K. N. Kudin, 
 V. N. Staroverov, T. A. Keith, R. Kobayashi, J. Normand, 
 K. Raghavachari, A. P. Rendell, J. C. Burant, S. S. Iyengar, 
 J. Tomasi, M. Cossi, J. M. Millam, M. Klene, C. Adamo, R. Cammi, 
 J. W. Ochterski, R. L. Martin, K. Morokuma, O. Farkas, 
 J. B. Foresman, and D. J. Fox, Gaussian, Inc., Wallingford CT, 2019.
 
 ******************************************
 Gaussian 16:  ES64L-G16RevC.01  3-Jul-2019
                 6-Apr-2022 
 ******************************************
 %mem=8gb
 %nproc=8
 Will use up to    8 processors via shared memory.
 %chk=Mol_01.chk
 ----------------------------------------------------------------------
 #p B3LYP/cc-PVTZ scf(verytight, maxcycles=1000) opt(calcfc, maxcyc=100
 0) freq(hpmodes) int(grid=ultrafine)
 ----------------------------------------------------------------------
 1/6=1000,10=4,18=20,19=15,26=4,38=1/1,3;
 2/9=110,12=2,17=6,18=5,40=1/2;
 3/5=16,6=1,11=2,25=1,30=1,71=2,74=-5,75=-5,140=1/1,2,3;
 4//1;
 5/5=2,7=1000,17=3,38=5/2;
 8/6=4,10=90,11=11/1;
 11/6=1,8=1,9=11,15=111,16=1/1,2,10;
 10/6=1,13=1/2;
 6/7=2,8=2,9=2,10=2,28=1/1;
 7/10=1,25=1/1,2,3,16;
 1/6=1000,10=4,18=20,19=15,26=4/3(2);
 2/9=110/2;
 99//99;
 2/9=110/2;
 3/5=16,6=1,11=2,25=1,30=1,71=1,74=-5,75=-5/1,2,3;
 4/5=5,16=3,69=1/1;
 5/5=2,7=1000,17=3,38=5/2;
 7//1,2,3,16;
 1/6=1000,18=20,19=15,26=4/3(-5);
 2/9=110/2;
 6/7=2,8=2,9=2,10=2,19=2,28=1/1;
 99/9=1/99;
 Leave Link    1 at Wed Apr  6 22:44:03 2022, MaxMem=  1073741824 cpu:               0.5 elap:               0.1
 (Enter /home/saurabh/gaussian/g16/l101.exe)
 ------
 Mol_01
 ------
 Symbolic Z-matrix:
 Charge =  0 Multiplicity = 2
 C                     0.70929   1.23266   0.00005 
 C                     1.45446  -0.04242   0.00004 
 C                     0.81868  -1.21846   0.00002 
 C                    -0.6799   -1.28753   0.00003 
 C                    -1.48087   0.01924  -0.00008 
 C                    -0.6322    1.26793  -0.00001 
 H                    -2.12949   0.03113   0.90045 
 H                    -2.12929   0.03111  -0.90076 
 H                    -1.1957   -2.27027  -0.00002 
 H                     1.39215  -2.13989   0.00001 
 H                     2.53973  -0.02082   0.00004 
 H                    -1.13211   2.23178  -0.00003 
 H                     1.26555   2.16483   0.00008 
 
 ITRead=  0  0  0  0  0  0  0  0  0  0  0  0  0
 MicOpt= -1 -1 -1 -1 -1 -1 -1 -1 -1 -1 -1 -1 -1
 NAtoms=     13 NQM=       13 NQMF=       0 NMMI=      0 NMMIF=      0
                NMic=       0 NMicF=      0.
                    Isotopes and Nuclear Properties:
 (Nuclear quadrupole moments (NQMom) in fm**2, nuclear magnetic moments (NMagM)
  in nuclear magnetons)

  Atom         1           2           3           4           5           6           7           8           9          10
 IAtWgt=          12          12          12          12          12          12           1           1           1           1
 AtmWgt=  12.0000000  12.0000000  12.0000000  12.0000000  12.0000000  12.0000000   1.0078250   1.0078250   1.0078250   1.0078250
 NucSpn=           0           0           0           0           0           0           1           1           1           1
 AtZEff=  -0.0000000  -0.0000000  -0.0000000  -0.0000000  -0.0000000  -0.0000000  -0.0000000  -0.0000000  -0.0000000  -0.0000000
 NQMom=    0.0000000   0.0000000   0.0000000   0.0000000   0.0000000   0.0000000   0.0000000   0.0000000   0.0000000   0.0000000
 NMagM=    0.0000000   0.0000000   0.0000000   0.0000000   0.0000000   0.0000000   2.7928460   2.7928460   2.7928460   2.7928460
 AtZNuc=   6.0000000   6.0000000   6.0000000   6.0000000   6.0000000   6.0000000   1.0000000   1.0000000   1.0000000   1.0000000

  Atom        11          12          13
 IAtWgt=           1           1           1
 AtmWgt=   1.0078250   1.0078250   1.0078250
 NucSpn=           1           1           1
 AtZEff=  -0.0000000  -0.0000000  -0.0000000
 NQMom=    0.0000000   0.0000000   0.0000000
 NMagM=    2.7928460   2.7928460   2.7928460
 AtZNuc=   1.0000000   1.0000000   1.0000000
 Leave Link  101 at Wed Apr  6 22:44:04 2022, MaxMem=  1073741824 cpu:               1.8 elap:               0.3
 (Enter /home/saurabh/gaussian/g16/l103.exe)

 GradGradGradGradGradGradGradGradGradGradGradGradGradGradGradGradGradGrad
 Berny optimization.
 Initialization pass.
                           ----------------------------
                           !    Initial Parameters    !
                           ! (Angstroms and Degrees)  !
 --------------------------                            --------------------------
 ! Name  Definition              Value          Derivative Info.                !
 --------------------------------------------------------------------------------
 ! R1    R(1,2)                  1.4769         calculate D2E/DX2 analytically  !
 ! R2    R(1,6)                  1.342          calculate D2E/DX2 analytically  !
 ! R3    R(1,13)                 1.0855         calculate D2E/DX2 analytically  !
 ! R4    R(2,3)                  1.3369         calculate D2E/DX2 analytically  !
 ! R5    R(2,11)                 1.0855         calculate D2E/DX2 analytically  !
 ! R6    R(3,4)                  1.5002         calculate D2E/DX2 analytically  !
 ! R7    R(3,10)                 1.0853         calculate D2E/DX2 analytically  !
 ! R8    R(4,5)                  1.5327         calculate D2E/DX2 analytically  !
 ! R9    R(4,9)                  1.1099         calculate D2E/DX2 analytically  !
 ! R10   R(5,6)                  1.5098         calculate D2E/DX2 analytically  !
 ! R11   R(5,7)                  1.1099         calculate D2E/DX2 analytically  !
 ! R12   R(5,8)                  1.1099         calculate D2E/DX2 analytically  !
 ! R13   R(6,12)                 1.0858         calculate D2E/DX2 analytically  !
 ! A1    A(2,1,6)              121.8085         calculate D2E/DX2 analytically  !
 ! A2    A(2,1,13)             118.8716         calculate D2E/DX2 analytically  !
 ! A3    A(6,1,13)             119.3199         calculate D2E/DX2 analytically  !
 ! A4    A(1,2,3)              121.3018         calculate D2E/DX2 analytically  !
 ! A5    A(1,2,11)             119.1624         calculate D2E/DX2 analytically  !
 ! A6    A(3,2,11)             119.5358         calculate D2E/DX2 analytically  !
 ! A7    A(2,3,4)              121.0346         calculate D2E/DX2 analytically  !
 ! A8    A(2,3,10)             119.7075         calculate D2E/DX2 analytically  !
 ! A9    A(4,3,10)             119.2579         calculate D2E/DX2 analytically  !
 ! A10   A(3,4,5)              118.8672         calculate D2E/DX2 analytically  !
 ! A11   A(3,4,9)              120.3321         calculate D2E/DX2 analytically  !
 ! A12   A(5,4,9)              120.8007         calculate D2E/DX2 analytically  !
 ! A13   A(4,5,6)              114.292          calculate D2E/DX2 analytically  !
 ! A14   A(4,5,7)              108.3291         calculate D2E/DX2 analytically  !
 ! A15   A(4,5,8)              108.3303         calculate D2E/DX2 analytically  !
 ! A16   A(6,5,7)              108.6393         calculate D2E/DX2 analytically  !
 ! A17   A(6,5,8)              108.6385         calculate D2E/DX2 analytically  !
 ! A18   A(7,5,8)              108.476          calculate D2E/DX2 analytically  !
 ! A19   A(1,6,5)              122.6959         calculate D2E/DX2 analytically  !
 ! A20   A(1,6,12)             118.9205         calculate D2E/DX2 analytically  !
 ! A21   A(5,6,12)             118.3836         calculate D2E/DX2 analytically  !
 ! D1    D(6,1,2,3)             -0.0026         calculate D2E/DX2 analytically  !
 ! D2    D(6,1,2,11)           179.9973         calculate D2E/DX2 analytically  !
 ! D3    D(13,1,2,3)           179.9987         calculate D2E/DX2 analytically  !
 ! D4    D(13,1,2,11)           -0.0014         calculate D2E/DX2 analytically  !
 ! D5    D(2,1,6,5)              0.0005         calculate D2E/DX2 analytically  !
 ! D6    D(2,1,6,12)          -179.9983         calculate D2E/DX2 analytically  !
 ! D7    D(13,1,6,5)           179.9992         calculate D2E/DX2 analytically  !
 ! D8    D(13,1,6,12)            0.0004         calculate D2E/DX2 analytically  !
 ! D9    D(1,2,3,4)             -0.001          calculate D2E/DX2 analytically  !
 ! D10   D(1,2,3,10)          -179.9999         calculate D2E/DX2 analytically  !
 ! D11   D(11,2,3,4)           179.9991         calculate D2E/DX2 analytically  !
 ! D12   D(11,2,3,10)            0.0001         calculate D2E/DX2 analytically  !
 ! D13   D(2,3,4,5)              0.0064         calculate D2E/DX2 analytically  !
 ! D14   D(2,3,4,9)            179.9976         calculate D2E/DX2 analytically  !
 ! D15   D(10,3,4,5)          -179.9947         calculate D2E/DX2 analytically  !
 ! D16   D(10,3,4,9)            -0.0035         calculate D2E/DX2 analytically  !
 ! D17   D(3,4,5,6)             -0.0079         calculate D2E/DX2 analytically  !
 ! D18   D(3,4,5,7)           -121.2678         calculate D2E/DX2 analytically  !
 ! D19   D(3,4,5,8)            121.2519         calculate D2E/DX2 analytically  !
 ! D20   D(9,4,5,6)           -179.999          calculate D2E/DX2 analytically  !
 ! D21   D(9,4,5,7)             58.7411         calculate D2E/DX2 analytically  !
 ! D22   D(9,4,5,8)            -58.7393         calculate D2E/DX2 analytically  !
 ! D23   D(4,5,6,1)              0.0047         calculate D2E/DX2 analytically  !
 ! D24   D(4,5,6,12)          -179.9965         calculate D2E/DX2 analytically  !
 ! D25   D(7,5,6,1)            121.0932         calculate D2E/DX2 analytically  !
 ! D26   D(7,5,6,12)           -58.908          calculate D2E/DX2 analytically  !
 ! D27   D(8,5,6,1)           -121.0848         calculate D2E/DX2 analytically  !
 ! D28   D(8,5,6,12)            58.9141         calculate D2E/DX2 analytically  !
 --------------------------------------------------------------------------------
 Trust Radius=3.00D-01 FncErr=1.00D-07 GrdErr=1.00D-06 EigMax=2.50D+02 EigMin=1.00D-04
 Number of steps in this run=    100 maximum allowed number of steps=    100.
 GradGradGradGradGradGradGradGradGradGradGradGradGradGradGradGradGradGrad

 Leave Link  103 at Wed Apr  6 22:44:04 2022, MaxMem=  1073741824 cpu:               0.1 elap:               0.0
 (Enter /home/saurabh/gaussian/g16/l202.exe)
                          Input orientation:                          
 ---------------------------------------------------------------------
 Center     Atomic      Atomic             Coordinates (Angstroms)
 Number     Number       Type             X           Y           Z
 ---------------------------------------------------------------------
      1          6           0        0.709291    1.232662    0.000048
      2          6           0        1.454457   -0.042416    0.000037
      3          6           0        0.818685   -1.218459    0.000020
      4          6           0       -0.679896   -1.287526    0.000033
      5          6           0       -1.480870    0.019240   -0.000083
      6          6           0       -0.632196    1.267933   -0.000011
      7          1           0       -2.129490    0.031125    0.900453
      8          1           0       -2.129294    0.031112   -0.900760
      9          1           0       -1.195702   -2.270270   -0.000021
     10          1           0        1.392152   -2.139892    0.000014
     11          1           0        2.539726   -0.020820    0.000042
     12          1           0       -1.132113    2.231778   -0.000028
     13          1           0        1.265548    2.164830    0.000084
 ---------------------------------------------------------------------
                    Distance matrix (angstroms):
                    1          2          3          4          5
     1  C    0.000000
     2  C    1.476854   0.000000
     3  C    2.453561   1.336894   0.000000
     4  C    2.877705   2.470984   1.500172   0.000000
     5  C    2.503837   2.935975   2.611485   1.532709   0.000000
     6  C    1.341951   2.463968   2.878750   2.555904   1.509796
     7  H    3.211401   3.696057   3.326256   2.156599   1.109871
     8  H    3.211346   3.695959   3.326171   2.156615   1.109871
     9  H    3.987422   3.462178   2.272457   1.109884   2.307201
    10  H    3.440991   2.098402   1.085313   2.240516   3.593899
    11  H    2.218493   1.085484   2.096741   3.459842   4.020796
    12  H    2.094995   3.444170   3.963552   3.548238   2.239856
    13  H    1.085523   2.215316   3.412673   3.962766   3.485165
                    6          7          8          9         10
     6  C    0.000000
     7  H    2.140659   0.000000
     8  H    2.140649   1.801212   0.000000
     9  H    3.582795   2.641824   2.641833   0.000000
    10  H    3.963743   4.233919   4.233820   2.591136   0.000000
    11  H    3.423737   4.755525   4.755406   4.360441   2.409853
    12  H    1.085778   2.578468   2.578491   4.502497   5.048110
    13  H    2.099014   4.109702   4.109651   5.072265   4.306584
                   11         12         13
    11  H    0.000000
    12  H    4.307738   0.000000
    13  H    2.529940   2.398596   0.000000
 Stoichiometry    C6H7(2)
 Framework group  C1[X(C6H7)]
 Deg. of freedom    33
 Full point group                 C1      NOp   1
 Largest Abelian subgroup         C1      NOp   1
 Largest concise Abelian subgroup C1      NOp   1
                         Standard orientation:                         
 ---------------------------------------------------------------------
 Center     Atomic      Atomic             Coordinates (Angstroms)
 Number     Number       Type             X           Y           Z
 ---------------------------------------------------------------------
      1          6           0       -0.279378    1.400392   -0.000047
      2          6           0       -1.395224    0.432930   -0.000036
      3          6           0       -1.171717   -0.885148   -0.000019
      4          6           0        0.224927   -1.432780   -0.000032
      5          6           0        1.403810   -0.453275    0.000084
      6          6           0        1.002104    1.002100    0.000013
      7          1           0        2.021753   -0.650746   -0.900452
      8          1           0        2.021563   -0.650696    0.900761
      9          1           0        0.397051   -2.529236    0.000023
     10          1           0       -2.011196   -1.573028   -0.000012
     11          1           0       -2.415817    0.802613   -0.000041
     12          1           0        1.785593    1.753804    0.000029
     13          1           0       -0.506077    2.461979   -0.000083
 ---------------------------------------------------------------------
 Rotational constants (GHZ):           5.2884030           5.0249316           2.6203337
 Leave Link  202 at Wed Apr  6 22:44:04 2022, MaxMem=  1073741824 cpu:               0.1 elap:               0.0
 (Enter /home/saurabh/gaussian/g16/l301.exe)
 Standard basis: CC-pVTZ (5D, 7F)
 Ernie: Thresh=  0.10000D-02 Tol=  0.10000D-05 Strict=F.
 Ernie:  18 primitive shells out of 212 were deleted.
 There are   315 symmetry adapted cartesian basis functions of A   symmetry.
 There are   278 symmetry adapted basis functions of A   symmetry.
   278 basis functions,   431 primitive gaussians,   315 cartesian basis functions
    22 alpha electrons       21 beta electrons
       nuclear repulsion energy       207.1890302703 Hartrees.
 IExCor=  402 DFT=T Ex+Corr=B3LYP ExCW=0 ScaHFX=  0.200000
 ScaDFX=  0.800000  0.720000  1.000000  0.810000 ScalE2=  1.000000  1.000000
 IRadAn=      5 IRanWt=     -1 IRanGd=            0 ICorTp=0 IEmpDi=  4
 NAtoms=   13 NActive=   13 NUniq=   13 SFac= 1.00D+00 NAtFMM=   60 NAOKFM=F Big=F
 Integral buffers will be    131072 words long.
 Raffenetti 2 integral format.
 Two-electron integral symmetry is turned on.
 Leave Link  301 at Wed Apr  6 22:44:04 2022, MaxMem=  1073741824 cpu:               0.5 elap:               0.1
 (Enter /home/saurabh/gaussian/g16/l302.exe)
 NPDir=0 NMtPBC=     1 NCelOv=     1 NCel=       1 NClECP=     1 NCelD=      1
         NCelK=      1 NCelE2=     1 NClLst=     1 CellRange=     0.0.
 One-electron integrals computed using PRISM.
 One-electron integral symmetry used in STVInt
 NBasis=   278 RedAO= T EigKep=  6.22D-05  NBF=   278
 NBsUse=   278 1.00D-06 EigRej= -1.00D+00 NBFU=   278
 Precomputing XC quadrature grid using
 IXCGrd= 4 IRadAn=           5 IRanWt=          -1 IRanGd=           0 AccXCQ= 0.00D+00.
 Generated NRdTot=       0 NPtTot=           0 NUsed=           0 NTot=          32
 NSgBfM=   315   315   315   315   315 MxSgAt=    13 MxSgA2=    13.
 Leave Link  302 at Wed Apr  6 22:44:04 2022, MaxMem=  1073741824 cpu:               1.9 elap:               0.3
 (Enter /home/saurabh/gaussian/g16/l303.exe)
 DipDrv:  MaxL=1.
 Leave Link  303 at Wed Apr  6 22:44:04 2022, MaxMem=  1073741824 cpu:               0.3 elap:               0.1
 (Enter /home/saurabh/gaussian/g16/l401.exe)
 ExpMin= 1.03D-01 ExpMax= 8.24D+03 ExpMxC= 2.81D+02 IAcc=3 IRadAn=         5 AccDes= 0.00D+00
 Harris functional with IExCor=  402 and IRadAn=       5 diagonalized for initial guess.
 HarFok:  IExCor=  402 AccDes= 0.00D+00 IRadAn=         5 IDoV= 1 UseB2=F ITyADJ=14
 ICtDFT=  3500011 ScaDFX=  1.000000  1.000000  1.000000  1.000000
 FoFCou: FMM=F IPFlag=           0 FMFlag=      100000 FMFlg1=           0
         NFxFlg=           0 DoJE=T BraDBF=F KetDBF=T FulRan=T
         wScrn=  0.000000 ICntrl=       500 IOpCl=  0 I1Cent=   200000004 NGrid=           0
         NMat0=    1 NMatS0=      1 NMatT0=    0 NMatD0=    1 NMtDS0=    0 NMtDT0=    0
 Petite list used in FoFCou.
 Harris En= -232.892240256607    
 JPrj=0 DoOrth=F DoCkMO=F.
 Initial guess <Sx>= 0.0000 <Sy>= 0.0000 <Sz>= 0.5000 <S**2>= 0.7500 S= 0.5000
 Leave Link  401 at Wed Apr  6 22:44:05 2022, MaxMem=  1073741824 cpu:               7.5 elap:               1.0
 (Enter /home/saurabh/gaussian/g16/l502.exe)
 Integral symmetry usage will be decided dynamically.
 UHF open shell SCF:
 Using DIIS extrapolation, IDIIS=  1040.
 NGot=  1073741824 LenX=  1073537716 LenY=  1073438050
 Requested convergence on RMS density matrix=1.00D-08 within1000 cycles.
 Requested convergence on MAX density matrix=1.00D-06.
 Requested convergence on             energy=1.00D-06.
 No special actions if energy rises.
 Fock matrices will be formed incrementally for  20 cycles.
 Integral accuracy reduced to 1.0D-05 until final iterations.

 Cycle   1  Pass 0  IDiag  1:
 FoFJK:  IHMeth= 1 ICntrl=       0 DoSepK=F KAlg= 0 I1Cent=           0 FoldK=F
 IRaf= 980000000 NMat=       1 IRICut=       1 DoRegI=T DoRafI=F ISym2E= 0 IDoP0=0 IntGTp=1.
 FoFCou: FMM=F IPFlag=           0 FMFlag=      100000 FMFlg1=           0
         NFxFlg=           0 DoJE=F BraDBF=F KetDBF=F FulRan=T
         wScrn=  0.000000 ICntrl=         0 IOpCl=  1 I1Cent=           0 NGrid=           0
         NMat0=    1 NMatS0=      1 NMatT0=    0 NMatD0=    1 NMtDS0=    0 NMtDT0=    0
 Symmetry not used in FoFCou.
 E= -232.677934438350    
 DIIS: error= 3.08D-02 at cycle   1 NSaved=   1.
 NSaved= 1 IEnMin= 1 EnMin= -232.677934438350     IErMin= 1 ErrMin= 3.08D-02
 ErrMax= 3.08D-02  0.00D+00 EMaxC= 1.00D-01 BMatC= 7.09D-01 BMatP= 7.09D-01
 IDIUse=3 WtCom= 6.92D-01 WtEn= 3.08D-01
 Coeff-Com:  0.100D+01
 Coeff-En:   0.100D+01
 Coeff:      0.100D+01
 Gap=     0.167 Goal=   None    Shift=    0.000
 Gap=     0.143 Goal=   None    Shift=    0.000
 GapD=    0.143 DampG=1.000 DampE=0.500 DampFc=0.5000 IDamp=-1.
 Damping current iteration by 5.00D-01
 RMSDP=2.47D-03 MaxDP=1.51D-01              OVMax= 2.07D-01

 Cycle   2  Pass 0  IDiag  1:
 RMSU=  1.23D-03    CP:  9.87D-01
 E= -232.753205276608     Delta-E=       -0.075270838258 Rises=F Damp=T
 DIIS: error= 8.63D-03 at cycle   2 NSaved=   2.
 NSaved= 2 IEnMin= 2 EnMin= -232.753205276608     IErMin= 2 ErrMin= 8.63D-03
 ErrMax= 8.63D-03  0.00D+00 EMaxC= 1.00D-01 BMatC= 5.08D-02 BMatP= 7.09D-01
 IDIUse=3 WtCom= 9.14D-01 WtEn= 8.63D-02
 Coeff-Com:  0.637D-01 0.936D+00
 Coeff-En:   0.158D+00 0.842D+00
 Coeff:      0.718D-01 0.928D+00
 Gap=     0.217 Goal=   None    Shift=    0.000
 Gap=     0.169 Goal=   None    Shift=    0.000
 RMSDP=7.14D-04 MaxDP=1.84D-02 DE=-7.53D-02 OVMax= 1.75D-01

 Cycle   3  Pass 0  IDiag  1:
 RMSU=  5.91D-04    CP:  9.91D-01  6.76D-01
 E= -232.854012591090     Delta-E=       -0.100807314482 Rises=F Damp=F
 DIIS: error= 7.19D-03 at cycle   3 NSaved=   3.
 NSaved= 3 IEnMin= 3 EnMin= -232.854012591090     IErMin= 3 ErrMin= 7.19D-03
 ErrMax= 7.19D-03  0.00D+00 EMaxC= 1.00D-01 BMatC= 2.74D-02 BMatP= 5.08D-02
 IDIUse=3 WtCom= 9.28D-01 WtEn= 7.19D-02
 Coeff-Com: -0.369D-01 0.408D+00 0.629D+00
 Coeff-En:   0.000D+00 0.000D+00 0.100D+01
 Coeff:     -0.343D-01 0.379D+00 0.656D+00
 Gap=     0.154 Goal=   None    Shift=    0.000
 Gap=     0.167 Goal=   None    Shift=    0.000
 RMSDP=3.25D-04 MaxDP=2.07D-02 DE=-1.01D-01 OVMax= 7.06D-02

 Cycle   4  Pass 0  IDiag  1:
 RMSU=  2.49D-04    CP:  9.90D-01  7.65D-01  6.99D-01
 E= -232.858778329557     Delta-E=       -0.004765738467 Rises=F Damp=F
 DIIS: error= 6.25D-03 at cycle   4 NSaved=   4.
 NSaved= 4 IEnMin= 4 EnMin= -232.858778329557     IErMin= 4 ErrMin= 6.25D-03
 ErrMax= 6.25D-03  0.00D+00 EMaxC= 1.00D-01 BMatC= 1.11D-02 BMatP= 2.74D-02
 IDIUse=3 WtCom= 9.38D-01 WtEn= 6.25D-02
 Coeff-Com: -0.295D-01 0.153D+00 0.421D+00 0.456D+00
 Coeff-En:   0.000D+00 0.000D+00 0.284D+00 0.716D+00
 Coeff:     -0.276D-01 0.143D+00 0.412D+00 0.472D+00
 Gap=     0.152 Goal=   None    Shift=    0.000
 Gap=     0.170 Goal=   None    Shift=    0.000
 RMSDP=1.55D-04 MaxDP=7.44D-03 DE=-4.77D-03 OVMax= 3.83D-02

 Cycle   5  Pass 0  IDiag  1:
 RMSU=  9.05D-05    CP:  9.90D-01  7.65D-01  7.92D-01  5.42D-01
 E= -232.861827983171     Delta-E=       -0.003049653614 Rises=F Damp=F
 DIIS: error= 1.45D-03 at cycle   5 NSaved=   5.
 NSaved= 5 IEnMin= 5 EnMin= -232.861827983171     IErMin= 5 ErrMin= 1.45D-03
 ErrMax= 1.45D-03  0.00D+00 EMaxC= 1.00D-01 BMatC= 7.63D-04 BMatP= 1.11D-02
 IDIUse=3 WtCom= 9.85D-01 WtEn= 1.45D-02
 Coeff-Com: -0.789D-02-0.289D-03 0.881D-01 0.235D+00 0.685D+00
 Coeff-En:   0.000D+00 0.000D+00 0.000D+00 0.000D+00 0.100D+01
 Coeff:     -0.777D-02-0.285D-03 0.868D-01 0.232D+00 0.690D+00
 Gap=     0.154 Goal=   None    Shift=    0.000
 Gap=     0.172 Goal=   None    Shift=    0.000
 RMSDP=4.69D-05 MaxDP=3.49D-03 DE=-3.05D-03 OVMax= 1.24D-02

 Cycle   6  Pass 0  IDiag  1:
 RMSU=  3.00D-05    CP:  9.90D-01  7.64D-01  8.07D-01  6.79D-01  9.14D-01
 E= -232.862109665878     Delta-E=       -0.000281682707 Rises=F Damp=F
 DIIS: error= 6.44D-04 at cycle   6 NSaved=   6.
 NSaved= 6 IEnMin= 6 EnMin= -232.862109665878     IErMin= 6 ErrMin= 6.44D-04
 ErrMax= 6.44D-04  0.00D+00 EMaxC= 1.00D-01 BMatC= 7.49D-05 BMatP= 7.63D-04
 IDIUse=3 WtCom= 9.94D-01 WtEn= 6.44D-03
 Coeff-Com:  0.370D-03-0.124D-01-0.102D-01 0.149D-01 0.175D+00 0.833D+00
 Coeff-En:   0.000D+00 0.000D+00 0.000D+00 0.000D+00 0.000D+00 0.100D+01
 Coeff:      0.368D-03-0.124D-01-0.101D-01 0.148D-01 0.174D+00 0.834D+00
 Gap=     0.156 Goal=   None    Shift=    0.000
 Gap=     0.173 Goal=   None    Shift=    0.000
 RMSDP=2.56D-05 MaxDP=1.75D-03 DE=-2.82D-04 OVMax= 7.83D-03

 Cycle   7  Pass 0  IDiag  1:
 RMSU=  1.82D-05    CP:  9.90D-01  7.63D-01  8.15D-01  7.12D-01  1.06D+00
                    CP:  1.23D+00
 E= -232.862151835926     Delta-E=       -0.000042170048 Rises=F Damp=F
 DIIS: error= 4.42D-04 at cycle   7 NSaved=   7.
 NSaved= 7 IEnMin= 7 EnMin= -232.862151835926     IErMin= 7 ErrMin= 4.42D-04
 ErrMax= 4.42D-04  0.00D+00 EMaxC= 1.00D-01 BMatC= 7.12D-05 BMatP= 7.49D-05
 IDIUse=3 WtCom= 9.96D-01 WtEn= 4.42D-03
 Coeff-Com:  0.496D-02-0.107D-01-0.610D-01-0.128D+00-0.265D+00 0.717D+00
 Coeff-Com:  0.743D+00
 Coeff-En:   0.000D+00 0.000D+00 0.000D+00 0.000D+00 0.000D+00 0.000D+00
 Coeff-En:   0.100D+01
 Coeff:      0.494D-02-0.106D-01-0.608D-01-0.127D+00-0.264D+00 0.714D+00
 Coeff:      0.744D+00
 Gap=     0.157 Goal=   None    Shift=    0.000
 Gap=     0.174 Goal=   None    Shift=    0.000
 RMSDP=2.13D-05 MaxDP=1.25D-03 DE=-4.22D-05 OVMax= 6.52D-03

 Cycle   8  Pass 0  IDiag  1:
 RMSU=  6.89D-06    CP:  9.90D-01  7.63D-01  8.21D-01  7.38D-01  1.17D+00
                    CP:  1.75D+00  8.24D-01
 E= -232.862187618578     Delta-E=       -0.000035782652 Rises=F Damp=F
 DIIS: error= 8.75D-05 at cycle   8 NSaved=   8.
 NSaved= 8 IEnMin= 8 EnMin= -232.862187618578     IErMin= 8 ErrMin= 8.75D-05
 ErrMax= 8.75D-05  0.00D+00 EMaxC= 1.00D-01 BMatC= 1.23D-06 BMatP= 7.12D-05
 IDIUse=1 WtCom= 1.00D+00 WtEn= 0.00D+00
 Coeff-Com:  0.146D-03 0.786D-03-0.424D-02-0.110D-01-0.400D-01-0.165D-01
 Coeff-Com:  0.782D-01 0.993D+00
 Coeff:      0.146D-03 0.786D-03-0.424D-02-0.110D-01-0.400D-01-0.165D-01
 Coeff:      0.782D-01 0.993D+00
 Gap=     0.157 Goal=   None    Shift=    0.000
 Gap=     0.174 Goal=   None    Shift=    0.000
 RMSDP=4.54D-06 MaxDP=3.04D-04 DE=-3.58D-05 OVMax= 1.48D-03

 Initial convergence to 1.0D-05 achieved.  Increase integral accuracy.
 Cycle   9  Pass 1  IDiag  1:
 E= -232.862172091251     Delta-E=        0.000015527327 Rises=F Damp=F
 DIIS: error= 3.63D-05 at cycle   1 NSaved=   1.
 NSaved= 1 IEnMin= 1 EnMin= -232.862172091251     IErMin= 1 ErrMin= 3.63D-05
 ErrMax= 3.63D-05  0.00D+00 EMaxC= 1.00D-01 BMatC= 9.51D-07 BMatP= 9.51D-07
 IDIUse=1 WtCom= 1.00D+00 WtEn= 0.00D+00
 Coeff-Com:  0.100D+01
 Coeff:      0.100D+01
 Gap=     0.157 Goal=   None    Shift=    0.000
 Gap=     0.174 Goal=   None    Shift=    0.000
 RMSDP=4.54D-06 MaxDP=3.04D-04 DE= 1.55D-05 OVMax= 6.72D-04

 Cycle  10  Pass 1  IDiag  1:
 RMSU=  8.66D-06    CP:  1.00D+00
 E= -232.862172252735     Delta-E=       -0.000000161484 Rises=F Damp=F
 DIIS: error= 5.07D-05 at cycle   2 NSaved=   2.
 NSaved= 2 IEnMin= 2 EnMin= -232.862172252735     IErMin= 1 ErrMin= 3.63D-05
 ErrMax= 5.07D-05  0.00D+00 EMaxC= 1.00D-01 BMatC= 9.17D-07 BMatP= 9.51D-07
 IDIUse=1 WtCom= 1.00D+00 WtEn= 0.00D+00
 Coeff-Com:  0.494D+00 0.506D+00
 Coeff:      0.494D+00 0.506D+00
 Gap=     0.157 Goal=   None    Shift=    0.000
 Gap=     0.174 Goal=   None    Shift=    0.000
 RMSDP=1.42D-06 MaxDP=8.54D-05 DE=-1.61D-07 OVMax= 3.73D-04

 Cycle  11  Pass 1  IDiag  1:
 RMSU=  1.42D-06    CP:  1.00D+00  1.00D+00
 E= -232.862172511707     Delta-E=       -0.000000258972 Rises=F Damp=F
 DIIS: error= 1.75D-05 at cycle   3 NSaved=   3.
 NSaved= 3 IEnMin= 3 EnMin= -232.862172511707     IErMin= 3 ErrMin= 1.75D-05
 ErrMax= 1.75D-05  0.00D+00 EMaxC= 1.00D-01 BMatC= 1.28D-07 BMatP= 9.17D-07
 IDIUse=1 WtCom= 1.00D+00 WtEn= 0.00D+00
 Coeff-Com: -0.691D-01 0.223D+00 0.846D+00
 Coeff:     -0.691D-01 0.223D+00 0.846D+00
 Gap=     0.157 Goal=   None    Shift=    0.000
 Gap=     0.174 Goal=   None    Shift=    0.000
 RMSDP=1.01D-06 MaxDP=7.89D-05 DE=-2.59D-07 OVMax= 2.95D-04

 Cycle  12  Pass 1  IDiag  1:
 RMSU=  9.51D-07    CP:  1.00D+00  1.04D+00  9.93D-01
 E= -232.862172606336     Delta-E=       -0.000000094629 Rises=F Damp=F
 DIIS: error= 1.06D-05 at cycle   4 NSaved=   4.
 NSaved= 4 IEnMin= 4 EnMin= -232.862172606336     IErMin= 4 ErrMin= 1.06D-05
 ErrMax= 1.06D-05  0.00D+00 EMaxC= 1.00D-01 BMatC= 1.96D-08 BMatP= 1.28D-07
 IDIUse=1 WtCom= 1.00D+00 WtEn= 0.00D+00
 Coeff-Com: -0.536D-01-0.787D-01-0.688D-01 0.120D+01
 Coeff:     -0.536D-01-0.787D-01-0.688D-01 0.120D+01
 Gap=     0.157 Goal=   None    Shift=    0.000
 Gap=     0.174 Goal=   None    Shift=    0.000
 RMSDP=7.58D-07 MaxDP=5.63D-05 DE=-9.46D-08 OVMax= 2.66D-04

 Cycle  13  Pass 1  IDiag  1:
 RMSU=  2.55D-07    CP:  1.00D+00  1.06D+00  1.19D+00  1.67D+00
 E= -232.862172639458     Delta-E=       -0.000000033122 Rises=F Damp=F
 DIIS: error= 7.91D-06 at cycle   5 NSaved=   5.
 NSaved= 5 IEnMin= 5 EnMin= -232.862172639458     IErMin= 5 ErrMin= 7.91D-06
 ErrMax= 7.91D-06  0.00D+00 EMaxC= 1.00D-01 BMatC= 1.90D-08 BMatP= 1.96D-08
 IDIUse=1 WtCom= 1.00D+00 WtEn= 0.00D+00
 Coeff-Com: -0.898D-03-0.214D+00-0.607D+00 0.106D+01 0.767D+00
 Coeff:     -0.898D-03-0.214D+00-0.607D+00 0.106D+01 0.767D+00
 Gap=     0.157 Goal=   None    Shift=    0.000
 Gap=     0.174 Goal=   None    Shift=    0.000
 RMSDP=7.32D-07 MaxDP=6.35D-05 DE=-3.31D-08 OVMax= 2.08D-04

 Cycle  14  Pass 1  IDiag  1:
 RMSU=  1.06D-07    CP:  1.00D+00  1.08D+00  1.33D+00  2.38D+00  8.41D-01
 E= -232.862172654804     Delta-E=       -0.000000015345 Rises=F Damp=F
 DIIS: error= 1.57D-06 at cycle   6 NSaved=   6.
 NSaved= 6 IEnMin= 6 EnMin= -232.862172654804     IErMin= 6 ErrMin= 1.57D-06
 ErrMax= 1.57D-06  0.00D+00 EMaxC= 1.00D-01 BMatC= 1.36D-09 BMatP= 1.90D-08
 IDIUse=1 WtCom= 1.00D+00 WtEn= 0.00D+00
 Coeff-Com:  0.339D-02-0.109D+00-0.320D+00 0.486D+00 0.411D+00 0.528D+00
 Coeff:      0.339D-02-0.109D+00-0.320D+00 0.486D+00 0.411D+00 0.528D+00
 Gap=     0.157 Goal=   None    Shift=    0.000
 Gap=     0.174 Goal=   None    Shift=    0.000
 RMSDP=6.86D-08 MaxDP=5.15D-06 DE=-1.53D-08 OVMax= 2.39D-05

 Cycle  15  Pass 1  IDiag  1:
 RMSU=  4.32D-08    CP:  1.00D+00  1.08D+00  1.35D+00  2.42D+00  9.34D-01
                    CP:  8.52D-01
 E= -232.862172655225     Delta-E=       -0.000000000421 Rises=F Damp=F
 DIIS: error= 6.81D-07 at cycle   7 NSaved=   7.
 NSaved= 7 IEnMin= 7 EnMin= -232.862172655225     IErMin= 7 ErrMin= 6.81D-07
 ErrMax= 6.81D-07  0.00D+00 EMaxC= 1.00D-01 BMatC= 1.36D-10 BMatP= 1.36D-09
 IDIUse=1 WtCom= 1.00D+00 WtEn= 0.00D+00
 Coeff-Com:  0.145D-02-0.563D-02-0.207D-01 0.153D-01 0.246D-01 0.213D+00
 Coeff-Com:  0.772D+00
 Coeff:      0.145D-02-0.563D-02-0.207D-01 0.153D-01 0.246D-01 0.213D+00
 Coeff:      0.772D+00
 Gap=     0.157 Goal=   None    Shift=    0.000
 Gap=     0.174 Goal=   None    Shift=    0.000
 RMSDP=2.64D-08 MaxDP=1.50D-06 DE=-4.21D-10 OVMax= 6.52D-06

 Cycle  16  Pass 1  IDiag  1:
 RMSU=  2.34D-08    CP:  1.00D+00  1.08D+00  1.35D+00  2.42D+00  9.46D-01
                    CP:  9.60D-01  9.82D-01
 E= -232.862172655276     Delta-E=       -0.000000000051 Rises=F Damp=F
 DIIS: error= 4.83D-07 at cycle   8 NSaved=   8.
 NSaved= 8 IEnMin= 8 EnMin= -232.862172655276     IErMin= 8 ErrMin= 4.83D-07
 ErrMax= 4.83D-07  0.00D+00 EMaxC= 1.00D-01 BMatC= 4.49D-11 BMatP= 1.36D-10
 IDIUse=1 WtCom= 1.00D+00 WtEn= 0.00D+00
 Coeff-Com:  0.854D-04 0.219D-01 0.612D-01-0.100D+00-0.838D-01-0.148D-01
 Coeff-Com:  0.415D+00 0.701D+00
 Coeff:      0.854D-04 0.219D-01 0.612D-01-0.100D+00-0.838D-01-0.148D-01
 Coeff:      0.415D+00 0.701D+00
 Gap=     0.157 Goal=   None    Shift=    0.000
 Gap=     0.174 Goal=   None    Shift=    0.000
 RMSDP=1.52D-08 MaxDP=7.98D-07 DE=-5.13D-11 OVMax= 5.12D-06

 Cycle  17  Pass 1  IDiag  1:
 RMSU=  9.88D-09    CP:  1.00D+00  1.08D+00  1.35D+00  2.42D+00  9.54D-01
                    CP:  1.02D+00  1.18D+00  8.25D-01
 E= -232.862172655292     Delta-E=       -0.000000000016 Rises=F Damp=F
 DIIS: error= 1.62D-07 at cycle   9 NSaved=   9.
 NSaved= 9 IEnMin= 9 EnMin= -232.862172655292     IErMin= 9 ErrMin= 1.62D-07
 ErrMax= 1.62D-07  0.00D+00 EMaxC= 1.00D-01 BMatC= 1.72D-11 BMatP= 4.49D-11
 IDIUse=1 WtCom= 1.00D+00 WtEn= 0.00D+00
 Coeff-Com: -0.347D-03 0.162D-01 0.466D-01-0.721D-01-0.638D-01-0.604D-01
 Coeff-Com:  0.103D+00 0.474D+00 0.557D+00
 Coeff:     -0.347D-03 0.162D-01 0.466D-01-0.721D-01-0.638D-01-0.604D-01
 Coeff:      0.103D+00 0.474D+00 0.557D+00
 Gap=     0.157 Goal=   None    Shift=    0.000
 Gap=     0.174 Goal=   None    Shift=    0.000
 RMSDP=6.56D-09 MaxDP=6.25D-07 DE=-1.64D-11 OVMax= 1.76D-06

 SCF Done:  E(UB3LYP) =  -232.862172655     A.U. after   17 cycles
            NFock= 17  Conv=0.66D-08     -V/T= 2.0084
 <Sx>= 0.0000 <Sy>= 0.0000 <Sz>= 0.5000 <S**2>= 0.7860 S= 0.5179
 <L.S>=  0.00000000000    
 KE= 2.309231711290D+02 PE=-9.533584978301D+02 EE= 2.823841237755D+02
 Annihilation of the first spin contaminant:
 S**2 before annihilation     0.7860,   after     0.7506
 Leave Link  502 at Wed Apr  6 22:44:54 2022, MaxMem=  1073741824 cpu:             394.1 elap:              49.3
 (Enter /home/saurabh/gaussian/g16/l801.exe)
 DoSCS=F DFT=T ScalE2(SS,OS)=  1.000000  1.000000
 Range of M.O.s used for correlation:     1   278
 NBasis=   278 NAE=    22 NBE=    21 NFC=     0 NFV=     0
 NROrb=    278 NOA=    22 NOB=    21 NVA=   256 NVB=   257

 **** Warning!!: The largest alpha MO coefficient is  0.21982761D+02


 **** Warning!!: The largest beta MO coefficient is  0.24977382D+02

 Leave Link  801 at Wed Apr  6 22:44:54 2022, MaxMem=  1073741824 cpu:               0.2 elap:               0.0
 (Enter /home/saurabh/gaussian/g16/l1101.exe)
 Using compressed storage, NAtomX=    13.
 Will process     14 centers per pass.
 Leave Link 1101 at Wed Apr  6 22:44:55 2022, MaxMem=  1073741824 cpu:               2.1 elap:               0.3
 (Enter /home/saurabh/gaussian/g16/l1102.exe)
 Symmetrizing basis deriv contribution to polar:
 IMax=3 JMax=2 DiffMx= 0.00D+00
 Leave Link 1102 at Wed Apr  6 22:44:55 2022, MaxMem=  1073741824 cpu:               0.3 elap:               0.1
 (Enter /home/saurabh/gaussian/g16/l1110.exe)
 Forming Gx(P) for the SCF density, NAtomX=    13.
 Integral derivatives from FoFJK, PRISM(SPDF).
 Do as many integral derivatives as possible in FoFJK.
 G2DrvN: MDV=    1073740349.
 G2DrvN: will do    14 centers at a time, making    1 passes.
 Calling FoFCou, ICntrl=  3107 FMM=F I1Cent=   0 AccDes= 0.00D+00.
 FoFJK:  IHMeth= 1 ICntrl=    3107 DoSepK=F KAlg= 0 I1Cent=           0 FoldK=F
 IRaf=         0 NMat=       1 IRICut=       1 DoRegI=T DoRafI=F ISym2E= 0 IDoP0=0 IntGTp=1.
 FoFCou: FMM=F IPFlag=           0 FMFlag=      100000 FMFlg1=           0
         NFxFlg=           0 DoJE=F BraDBF=F KetDBF=F FulRan=T
         wScrn=  0.000000 ICntrl=      3107 IOpCl=  1 I1Cent=           0 NGrid=           0
         NMat0=    1 NMatS0=      1 NMatT0=    0 NMatD0=    1 NMtDS0=    0 NMtDT0=    0
 Symmetry not used in FoFCou.
 End of G2Drv F.D. properties file   721 does not exist.
 End of G2Drv F.D. properties file   722 does not exist.
 End of G2Drv F.D. properties file   788 does not exist.
 Leave Link 1110 at Wed Apr  6 22:46:00 2022, MaxMem=  1073741824 cpu:             521.6 elap:              65.2
 (Enter /home/saurabh/gaussian/g16/l1002.exe)
 Minotr:  UHF open shell wavefunction.
          IDoAtm=1111111111111
          Direct CPHF calculation.
          Differentiating once with respect to nuclear coordinates.
          Requested convergence is 1.0D-08 RMS, and 1.0D-07 maximum.
          Secondary convergence is 1.0D-12 RMS, and 1.0D-12 maximum.
          NewPWx=T KeepS1=F KeepF1=F KeepIn=T MapXYZ=F SortEE=F KeepMc=T.
         3833 words used for storage of precomputed grid.
 Two-electron integrals replicated using symmetry.
          MDV=    1073741824 using IRadAn=       1.
          Solving linear equations simultaneously, MaxMat=     384.
 FoF2E skips out because all densities are zero.
 CalDSu exits because no D1Ps are significant.
 FoFJK:  IHMeth= 1 ICntrl=       0 DoSepK=F KAlg= 0 I1Cent=           0 FoldK=F
 IRaf= 970000000 NMat=      39 IRICut=      97 DoRegI=T DoRafI=T ISym2E= 2 IDoP0=3 IntGTp=3.
 FoFCou: FMM=F IPFlag=           0 FMFlag=      100000 FMFlg1=           0
         NFxFlg=           0 DoJE=F BraDBF=F KetDBF=F FulRan=T
         wScrn=  0.000000 ICntrl=         0 IOpCl=  1 I1Cent=           0 NGrid=           0
         NMat0=   39 NMatS0=     39 NMatT0=    0 NMatD0=   39 NMtDS0=    0 NMtDT0=    0
 Integrals replicated using symmetry in FoFCou.
 Raff kept on since  95.66% of shell-pairs survive, threshold=   0.20 IRatSp=96.
          There are    42 degrees of freedom in the 1st order CPHF.  IDoFFX=6 NUNeed=     0.
     36 vectors produced by pass  0 Test12= 2.63D-14 2.38D-09 XBig12= 3.16D-01 2.40D-01.
 AX will form    36 AO Fock derivatives at one time.
     36 vectors produced by pass  1 Test12= 2.63D-14 2.38D-09 XBig12= 1.01D-01 1.13D-01.
     36 vectors produced by pass  2 Test12= 2.63D-14 2.38D-09 XBig12= 5.22D-03 2.25D-02.
     36 vectors produced by pass  3 Test12= 2.63D-14 2.38D-09 XBig12= 1.04D-04 1.96D-03.
     36 vectors produced by pass  4 Test12= 2.63D-14 2.38D-09 XBig12= 7.24D-07 1.03D-04.
     36 vectors produced by pass  5 Test12= 2.63D-14 2.38D-09 XBig12= 9.04D-09 1.13D-05.
     33 vectors produced by pass  6 Test12= 2.63D-14 2.38D-09 XBig12= 4.31D-11 7.43D-07.
     12 vectors produced by pass  7 Test12= 2.63D-14 2.38D-09 XBig12= 1.27D-13 3.62D-08.
      1 vectors produced by pass  8 Test12= 2.63D-14 2.38D-09 XBig12= 6.49D-16 3.28D-09.
 InvSVY:  IOpt=1 It=  1 EMax= 1.33D-15
 Solved reduced A of dimension   262 with    36 vectors.
 End of Minotr F.D. properties file   721 does not exist.
 End of Minotr F.D. properties file   722 does not exist.
 End of Minotr F.D. properties file   788 does not exist.
 Leave Link 1002 at Wed Apr  6 22:48:15 2022, MaxMem=  1073741824 cpu:            1079.1 elap:             134.9
 (Enter /home/saurabh/gaussian/g16/l601.exe)
 Copying SCF densities to generalized density rwf, IOpCl= 1 IROHF=0.

 **********************************************************************

            Population analysis using the SCF Density.

 **********************************************************************

 Orbital symmetries:
 Alpha Orbitals:
       Occupied  (A) (A) (A) (A) (A) (A) (A) (A) (A) (A) (A) (A)
                 (A) (A) (A) (A) (A) (A) (A) (A) (A) (A)
       Virtual   (A) (A) (A) (A) (A) (A) (A) (A) (A) (A) (A) (A)
                 (A) (A) (A) (A) (A) (A) (A) (A) (A) (A) (A) (A)
                 (A) (A) (A) (A) (A) (A) (A) (A) (A) (A) (A) (A)
                 (A) (A) (A) (A) (A) (A) (A) (A) (A) (A) (A) (A)
                 (A) (A) (A) (A) (A) (A) (A) (A) (A) (A) (A) (A)
                 (A) (A) (A) (A) (A) (A) (A) (A) (A) (A) (A) (A)
                 (A) (A) (A) (A) (A) (A) (A) (A) (A) (A) (A) (A)
                 (A) (A) (A) (A) (A) (A) (A) (A) (A) (A) (A) (A)
                 (A) (A) (A) (A) (A) (A) (A) (A) (A) (A) (A) (A)
                 (A) (A) (A) (A) (A) (A) (A) (A) (A) (A) (A) (A)
                 (A) (A) (A) (A) (A) (A) (A) (A) (A) (A) (A) (A)
                 (A) (A) (A) (A) (A) (A) (A) (A) (A) (A) (A) (A)
                 (A) (A) (A) (A) (A) (A) (A) (A) (A) (A) (A) (A)
                 (A) (A) (A) (A) (A) (A) (A) (A) (A) (A) (A) (A)
                 (A) (A) (A) (A) (A) (A) (A) (A) (A) (A) (A) (A)
                 (A) (A) (A) (A) (A) (A) (A) (A) (A) (A) (A) (A)
                 (A) (A) (A) (A) (A) (A) (A) (A) (A) (A) (A) (A)
                 (A) (A) (A) (A) (A) (A) (A) (A) (A) (A) (A) (A)
                 (A) (A) (A) (A) (A) (A) (A) (A) (A) (A) (A) (A)
                 (A) (A) (A) (A) (A) (A) (A) (A) (A) (A) (A) (A)
                 (A) (A) (A) (A) (A) (A) (A) (A) (A) (A) (A) (A)
                 (A) (A) (A) (A)
 Beta  Orbitals:
       Occupied  (A) (A) (A) (A) (A) (A) (A) (A) (A) (A) (A) (A)
                 (A) (A) (A) (A) (A) (A) (A) (A) (A)
       Virtual   (A) (A) (A) (A) (A) (A) (A) (A) (A) (A) (A) (A)
                 (A) (A) (A) (A) (A) (A) (A) (A) (A) (A) (A) (A)
                 (A) (A) (A) (A) (A) (A) (A) (A) (A) (A) (A) (A)
                 (A) (A) (A) (A) (A) (A) (A) (A) (A) (A) (A) (A)
                 (A) (A) (A) (A) (A) (A) (A) (A) (A) (A) (A) (A)
                 (A) (A) (A) (A) (A) (A) (A) (A) (A) (A) (A) (A)
                 (A) (A) (A) (A) (A) (A) (A) (A) (A) (A) (A) (A)
                 (A) (A) (A) (A) (A) (A) (A) (A) (A) (A) (A) (A)
                 (A) (A) (A) (A) (A) (A) (A) (A) (A) (A) (A) (A)
                 (A) (A) (A) (A) (A) (A) (A) (A) (A) (A) (A) (A)
                 (A) (A) (A) (A) (A) (A) (A) (A) (A) (A) (A) (A)
                 (A) (A) (A) (A) (A) (A) (A) (A) (A) (A) (A) (A)
                 (A) (A) (A) (A) (A) (A) (A) (A) (A) (A) (A) (A)
                 (A) (A) (A) (A) (A) (A) (A) (A) (A) (A) (A) (A)
                 (A) (A) (A) (A) (A) (A) (A) (A) (A) (A) (A) (A)
                 (A) (A) (A) (A) (A) (A) (A) (A) (A) (A) (A) (A)
                 (A) (A) (A) (A) (A) (A) (A) (A) (A) (A) (A) (A)
                 (A) (A) (A) (A) (A) (A) (A) (A) (A) (A) (A) (A)
                 (A) (A) (A) (A) (A) (A) (A) (A) (A) (A) (A) (A)
                 (A) (A) (A) (A) (A) (A) (A) (A) (A) (A) (A) (A)
                 (A) (A) (A) (A) (A) (A) (A) (A) (A) (A) (A) (A)
                 (A) (A) (A) (A) (A)
 The electronic state is 2-A.
 Alpha  occ. eigenvalues --  -10.19641 -10.19112 -10.18005 -10.17921 -10.17579
 Alpha  occ. eigenvalues --  -10.17547  -0.83832  -0.75328  -0.73582  -0.61639
 Alpha  occ. eigenvalues --   -0.59194  -0.51019  -0.47312  -0.44227  -0.43364
 Alpha  occ. eigenvalues --   -0.42229  -0.40082  -0.34360  -0.33213  -0.33124
 Alpha  occ. eigenvalues --   -0.26724  -0.17367
 Alpha virt. eigenvalues --   -0.01695   0.03703   0.06515   0.07162   0.08110
 Alpha virt. eigenvalues --    0.08993   0.09779   0.10768   0.12219   0.17494
 Alpha virt. eigenvalues --    0.20541   0.23292   0.25894   0.26265   0.27455
 Alpha virt. eigenvalues --    0.28940   0.28974   0.31789   0.33718   0.34708
 Alpha virt. eigenvalues --    0.35168   0.36633   0.36711   0.38958   0.39899
 Alpha virt. eigenvalues --    0.40517   0.43392   0.43449   0.44216   0.46362
 Alpha virt. eigenvalues --    0.46362   0.46818   0.48102   0.48407   0.50090
 Alpha virt. eigenvalues --    0.51713   0.53671   0.54256   0.54542   0.56913
 Alpha virt. eigenvalues --    0.58948   0.64750   0.66057   0.69600   0.71564
 Alpha virt. eigenvalues --    0.71902   0.72168   0.72271   0.76451   0.81415
 Alpha virt. eigenvalues --    0.83405   0.88645   0.90068   0.90406   0.91688
 Alpha virt. eigenvalues --    0.95566   0.99407   1.00391   1.01916   1.03471
 Alpha virt. eigenvalues --    1.03696   1.04117   1.06738   1.08624   1.10922
 Alpha virt. eigenvalues --    1.14058   1.14556   1.16894   1.17216   1.20103
 Alpha virt. eigenvalues --    1.20265   1.20847   1.21761   1.26842   1.27945
 Alpha virt. eigenvalues --    1.28418   1.32292   1.33501   1.34310   1.35183
 Alpha virt. eigenvalues --    1.37887   1.38155   1.40895   1.41489   1.41612
 Alpha virt. eigenvalues --    1.43974   1.48065   1.51381   1.51834   1.53296
 Alpha virt. eigenvalues --    1.59351   1.61164   1.85452   1.86854   1.92308
 Alpha virt. eigenvalues --    1.96797   1.96886   1.99962   2.09441   2.09588
 Alpha virt. eigenvalues --    2.11201   2.12605   2.16022   2.19580   2.23124
 Alpha virt. eigenvalues --    2.25525   2.36509   2.37659   2.38164   2.39289
 Alpha virt. eigenvalues --    2.41380   2.46079   2.48008   2.50887   2.52023
 Alpha virt. eigenvalues --    2.54320   2.55514   2.60119   2.61888   2.64166
 Alpha virt. eigenvalues --    2.65372   2.69863   2.70889   2.71715   2.72276
 Alpha virt. eigenvalues --    2.74949   2.75354   2.78547   2.80128   2.81293
 Alpha virt. eigenvalues --    2.84553   2.87481   2.88347   2.90382   2.91316
 Alpha virt. eigenvalues --    2.93509   2.93866   2.96082   2.96662   2.98584
 Alpha virt. eigenvalues --    3.02536   3.02856   3.04790   3.04856   3.05861
 Alpha virt. eigenvalues --    3.06908   3.08350   3.10591   3.14817   3.17731
 Alpha virt. eigenvalues --    3.18872   3.21003   3.23289   3.24214   3.24752
 Alpha virt. eigenvalues --    3.26736   3.28574   3.29059   3.30788   3.35005
 Alpha virt. eigenvalues --    3.35012   3.36115   3.37276   3.41740   3.44866
 Alpha virt. eigenvalues --    3.46011   3.48493   3.49644   3.50875   3.54441
 Alpha virt. eigenvalues --    3.57642   3.60047   3.63598   3.64890   3.69090
 Alpha virt. eigenvalues --    3.69539   3.69643   3.72339   3.72675   3.74518
 Alpha virt. eigenvalues --    3.78173   3.79498   3.82619   3.83637   3.85529
 Alpha virt. eigenvalues --    3.87303   3.88274   3.91366   3.91933   3.92247
 Alpha virt. eigenvalues --    3.94097   3.99880   4.01758   4.02919   4.06783
 Alpha virt. eigenvalues --    4.07337   4.09881   4.11101   4.12716   4.13882
 Alpha virt. eigenvalues --    4.16176   4.18582   4.22209   4.24062   4.24924
 Alpha virt. eigenvalues --    4.27029   4.27190   4.33931   4.36877   4.38324
 Alpha virt. eigenvalues --    4.39061   4.40574   4.44258   4.56263   4.56724
 Alpha virt. eigenvalues --    4.60246   4.61542   4.64693   4.66550   4.69089
 Alpha virt. eigenvalues --    4.72912   4.75451   4.77498   4.79304   4.84592
 Alpha virt. eigenvalues --    4.86544   4.89402   4.91059   4.96085   4.99607
 Alpha virt. eigenvalues --    5.00090   5.07018   5.09852   5.10498   5.12472
 Alpha virt. eigenvalues --    5.18910   5.21229   5.31520   5.36581   5.39255
 Alpha virt. eigenvalues --    5.48636   5.52061   5.60235   5.65786   5.77666
 Alpha virt. eigenvalues --    5.81821   5.86014   5.97754   6.13495   6.51703
 Alpha virt. eigenvalues --    9.25885  10.96916  11.37901  12.48471  13.33520
 Alpha virt. eigenvalues --   14.65816
  Beta  occ. eigenvalues --  -10.19186 -10.18635 -10.18221 -10.17763 -10.17666
  Beta  occ. eigenvalues --  -10.16970  -0.83173  -0.74798  -0.72689  -0.60351
  Beta  occ. eigenvalues --   -0.58756  -0.50825  -0.46745  -0.43077  -0.42943
  Beta  occ. eigenvalues --   -0.42120  -0.39588  -0.34093  -0.32901  -0.31516
  Beta  occ. eigenvalues --   -0.24758
  Beta virt. eigenvalues --   -0.07349  -0.00247   0.03822   0.06604   0.07254
  Beta virt. eigenvalues --    0.09136   0.09369   0.09871   0.11649   0.12389
  Beta virt. eigenvalues --    0.17708   0.20906   0.23569   0.25949   0.26359
  Beta virt. eigenvalues --    0.27642   0.29386   0.29675   0.32632   0.34840
  Beta virt. eigenvalues --    0.35040   0.36346   0.36943   0.38673   0.39345
  Beta virt. eigenvalues --    0.40327   0.40887   0.43616   0.43816   0.44563
  Beta virt. eigenvalues --    0.46857   0.47091   0.47232   0.48283   0.48637
  Beta virt. eigenvalues --    0.50415   0.52113   0.53895   0.54468   0.55255
  Beta virt. eigenvalues --    0.57280   0.59133   0.65075   0.66636   0.69822
  Beta virt. eigenvalues --    0.71738   0.72609   0.72614   0.72869   0.76861
  Beta virt. eigenvalues --    0.81777   0.83526   0.89188   0.90229   0.90631
  Beta virt. eigenvalues --    0.92302   0.96152   0.99576   1.00759   1.02001
  Beta virt. eigenvalues --    1.03598   1.04292   1.04873   1.07346   1.08881
  Beta virt. eigenvalues --    1.11173   1.14347   1.15105   1.17241   1.17396
  Beta virt. eigenvalues --    1.20568   1.20788   1.21031   1.22361   1.27862
  Beta virt. eigenvalues --    1.28035   1.29145   1.32559   1.33927   1.34683
  Beta virt. eigenvalues --    1.35466   1.38508   1.38788   1.41442   1.41670
  Beta virt. eigenvalues --    1.41913   1.45007   1.48130   1.52276   1.52400
  Beta virt. eigenvalues --    1.53537   1.59986   1.61471   1.85706   1.87029
  Beta virt. eigenvalues --    1.92540   1.96951   1.97691   2.00249   2.09634
  Beta virt. eigenvalues --    2.09920   2.11360   2.16402   2.16612   2.20644
  Beta virt. eigenvalues --    2.23666   2.26789   2.37784   2.38149   2.38551
  Beta virt. eigenvalues --    2.40029   2.41859   2.46724   2.48397   2.51089
  Beta virt. eigenvalues --    2.52677   2.54587   2.56283   2.60977   2.62835
  Beta virt. eigenvalues --    2.65143   2.66205   2.70460   2.71525   2.72466
  Beta virt. eigenvalues --    2.72919   2.75502   2.76037   2.79474   2.80219
  Beta virt. eigenvalues --    2.81745   2.85072   2.88035   2.88853   2.91610
  Beta virt. eigenvalues --    2.92447   2.94279   2.94443   2.96818   2.97526
  Beta virt. eigenvalues --    2.99151   3.03146   3.03738   3.04986   3.05071
  Beta virt. eigenvalues --    3.06553   3.07270   3.09332   3.11267   3.15816
  Beta virt. eigenvalues --    3.17950   3.20672   3.21891   3.23511   3.24727
  Beta virt. eigenvalues --    3.25541   3.27282   3.29054   3.29607   3.31173
  Beta virt. eigenvalues --    3.35502   3.35546   3.36889   3.37469   3.42664
  Beta virt. eigenvalues --    3.45432   3.46801   3.48871   3.50403   3.51177
  Beta virt. eigenvalues --    3.54563   3.58307   3.60551   3.63801   3.65413
  Beta virt. eigenvalues --    3.69418   3.69969   3.70194   3.72917   3.73248
  Beta virt. eigenvalues --    3.74703   3.78311   3.79984   3.82673   3.84302
  Beta virt. eigenvalues --    3.85853   3.87522   3.88688   3.91846   3.92653
  Beta virt. eigenvalues --    3.93036   3.94421   4.00474   4.02259   4.03450
  Beta virt. eigenvalues --    4.07426   4.07586   4.10539   4.11443   4.12993
  Beta virt. eigenvalues --    4.14269   4.16247   4.19284   4.22463   4.24301
  Beta virt. eigenvalues --    4.25094   4.27197   4.28126   4.34065   4.37366
  Beta virt. eigenvalues --    4.38551   4.39864   4.40678   4.44734   4.56410
  Beta virt. eigenvalues --    4.56950   4.60469   4.62373   4.64939   4.67220
  Beta virt. eigenvalues --    4.69516   4.73733   4.75591   4.78202   4.79510
  Beta virt. eigenvalues --    4.84988   4.86681   4.89687   4.91835   4.96437
  Beta virt. eigenvalues --    4.99801   5.00323   5.07151   5.10075   5.11136
  Beta virt. eigenvalues --    5.12537   5.19553   5.21582   5.31640   5.37181
  Beta virt. eigenvalues --    5.39697   5.48875   5.52293   5.60425   5.65940
  Beta virt. eigenvalues --    5.77768   5.81922   5.86622   5.97894   6.13554
  Beta virt. eigenvalues --    6.51809   9.26179  10.98044  11.38291  12.48571
  Beta virt. eigenvalues --   13.33738  14.66071
          Condensed to atoms (all electrons):
               1          2          3          4          5          6
     1  C    4.881175   0.406622  -0.044678  -0.022594  -0.046802   0.604685
     2  C    0.406622   4.960597   0.533100  -0.065915  -0.013552  -0.061074
     3  C   -0.044678   0.533100   4.858259   0.477385  -0.043208  -0.020463
     4  C   -0.022594  -0.065915   0.477385   5.150352   0.341911  -0.023203
     5  C   -0.046802  -0.013552  -0.043208   0.341911   4.778557   0.349699
     6  C    0.604685  -0.061074  -0.020463  -0.023203   0.349699   4.967518
     7  H    0.000555   0.001246   0.002881  -0.039962   0.400161  -0.037139
     8  H    0.000554   0.001246   0.002880  -0.039963   0.400160  -0.037146
     9  H    0.000194   0.004433  -0.033182   0.411427  -0.034783   0.003941
    10  H    0.007792  -0.053277   0.424682  -0.038847   0.005335  -0.000687
    11  H   -0.042986   0.427512  -0.052421   0.007865  -0.000618   0.006043
    12  H   -0.047342   0.007229  -0.000517   0.005056  -0.041239   0.420793
    13  H    0.426772  -0.043632   0.006234  -0.000626   0.008350  -0.051099
               7          8          9         10         11         12
     1  C    0.000555   0.000554   0.000194   0.007792  -0.042986  -0.047342
     2  C    0.001246   0.001246   0.004433  -0.053277   0.427512   0.007229
     3  C    0.002881   0.002880  -0.033182   0.424682  -0.052421  -0.000517
     4  C   -0.039962  -0.039963   0.411427  -0.038847   0.007865   0.005056
     5  C    0.400161   0.400160  -0.034783   0.005335  -0.000618  -0.041239
     6  C   -0.037139  -0.037146   0.003941  -0.000687   0.006043   0.420793
     7  H    0.624827  -0.040721  -0.002012  -0.000275   0.000075  -0.002527
     8  H   -0.040721   0.624835  -0.002012  -0.000275   0.000075  -0.002526
     9  H   -0.002012  -0.002012   0.547696  -0.004121  -0.000350  -0.000268
    10  H   -0.000275  -0.000275  -0.004121   0.559791  -0.010587   0.000092
    11  H    0.000075   0.000075  -0.000350  -0.010587   0.566803  -0.000374
    12  H   -0.002527  -0.002526  -0.000268   0.000092  -0.000374   0.559513
    13  H   -0.000385  -0.000385   0.000060  -0.000346  -0.005488  -0.010559
              13
     1  C    0.426772
     2  C   -0.043632
     3  C    0.006234
     4  C   -0.000626
     5  C    0.008350
     6  C   -0.051099
     7  H   -0.000385
     8  H   -0.000385
     9  H    0.000060
    10  H   -0.000346
    11  H   -0.005488
    12  H   -0.010559
    13  H    0.566324
          Atomic-Atomic Spin Densities.
               1          2          3          4          5          6
     1  C   -0.114766  -0.013497   0.005444   0.003087   0.000502   0.011954
     2  C   -0.013497   0.456791   0.003653  -0.040028   0.004930  -0.023056
     3  C    0.005444   0.003653  -0.207738  -0.002026   0.000511   0.001247
     4  C    0.003087  -0.040028  -0.002026   0.794149  -0.039796   0.020388
     5  C    0.000502   0.004930   0.000511  -0.039796  -0.040753  -0.016372
     6  C    0.011954  -0.023056   0.001247   0.020388  -0.016372   0.237518
     7  H   -0.000434   0.001429   0.000032  -0.021914   0.018115  -0.011085
     8  H   -0.000432   0.001428   0.000034  -0.021926   0.018127  -0.011099
     9  H   -0.000150  -0.000163   0.000038   0.010140   0.001022   0.000034
    10  H    0.000003  -0.000263  -0.002795  -0.000897  -0.000006   0.000007
    11  H    0.000909   0.007009   0.000576  -0.000195  -0.000035  -0.000219
    12  H   -0.000150  -0.000029  -0.000070   0.000098   0.000782   0.003404
    13  H   -0.001551  -0.000557   0.000045  -0.000019   0.000051  -0.000357
               7          8          9         10         11         12
     1  C   -0.000434  -0.000432  -0.000150   0.000003   0.000909  -0.000150
     2  C    0.001429   0.001428  -0.000163  -0.000263   0.007009  -0.000029
     3  C    0.000032   0.000034   0.000038  -0.002795   0.000576  -0.000070
     4  C   -0.021914  -0.021926   0.010140  -0.000897  -0.000195   0.000098
     5  C    0.018115   0.018127   0.001022  -0.000006  -0.000035   0.000782
     6  C   -0.011085  -0.011099   0.000034   0.000007  -0.000219   0.003404
     7  H    0.079465  -0.019372   0.000083  -0.000006  -0.000001   0.000032
     8  H   -0.019372   0.079487   0.000081  -0.000005  -0.000001   0.000032
     9  H    0.000083   0.000081  -0.036276   0.000129   0.000029   0.000020
    10  H   -0.000006  -0.000005   0.000129   0.009838   0.000336  -0.000002
    11  H   -0.000001  -0.000001   0.000029   0.000336  -0.026099   0.000019
    12  H    0.000032   0.000032   0.000020  -0.000002   0.000019  -0.012180
    13  H   -0.000006  -0.000006  -0.000002  -0.000011   0.000171   0.000051
              13
     1  C   -0.001551
     2  C   -0.000557
     3  C    0.000045
     4  C   -0.000019
     5  C    0.000051
     6  C   -0.000357
     7  H   -0.000006
     8  H   -0.000006
     9  H   -0.000002
    10  H   -0.000011
    11  H    0.000171
    12  H    0.000051
    13  H    0.005666
 Mulliken charges and spin densities:
               1          2
     1  C   -0.123948  -0.109081
     2  C   -0.104535   0.397646
     3  C   -0.110950  -0.201048
     4  C   -0.162886   0.701059
     5  C   -0.103971  -0.052922
     6  C   -0.121868   0.212363
     7  H    0.093276   0.046339
     8  H    0.093278   0.046350
     9  H    0.108978  -0.025014
    10  H    0.110724   0.006326
    11  H    0.104453  -0.017500
    12  H    0.112670  -0.007993
    13  H    0.104779   0.003476
 Sum of Mulliken charges =  -0.00000   1.00000
 Mulliken charges and spin densities with hydrogens summed into heavy atoms:
               1          2
     1  C   -0.019169  -0.105606
     2  C   -0.000082   0.380146
     3  C   -0.000226  -0.194721
     4  C   -0.053908   0.676045
     5  C    0.082583   0.039767
     6  C   -0.009198   0.204370
 APT charges:
               1
     1  C   -0.535550
     2  C   -0.495461
     3  C   -0.540939
     4  C   -0.528367
     5  C   -0.752667
     6  C   -0.479315
     7  H    0.377950
     8  H    0.377931
     9  H    0.526949
    10  H    0.522423
    11  H    0.510814
    12  H    0.507825
    13  H    0.508407
 Sum of APT charges =  -0.00000
 APT charges with hydrogens summed into heavy atoms:
               1
     1  C   -0.027143
     2  C    0.015354
     3  C   -0.018516
     4  C   -0.001418
     5  C    0.003213
     6  C    0.028511
 Electronic spatial extent (au):  <R**2>=            502.8105
 Charge=             -0.0000 electrons
 Dipole moment (field-independent basis, Debye):
    X=              0.4153    Y=             -0.0440    Z=              0.0001  Tot=              0.4176
 Quadrupole moment (field-independent basis, Debye-Ang):
   XX=            -33.3868   YY=            -34.1610   ZZ=            -39.6414
   XY=             -0.2074   XZ=              0.0002   YZ=             -0.0002
 Traceless Quadrupole moment (field-independent basis, Debye-Ang):
   XX=              2.3430   YY=              1.5687   ZZ=             -3.9116
   XY=             -0.2074   XZ=              0.0002   YZ=             -0.0002
 Octapole moment (field-independent basis, Debye-Ang**2):
  XXX=             -2.3936  YYY=              0.8620  ZZZ=              0.0008  XYY=             -0.5740
  XXY=              0.5721  XXZ=             -0.0001  XZZ=              2.8248  YZZ=             -0.5188
  YYZ=              0.0001  XYZ=              0.0002
 Hexadecapole moment (field-independent basis, Debye-Ang**3):
 XXXX=           -322.0335 YYYY=           -297.7400 ZZZZ=            -53.1725 XXXY=              3.7910
 XXXZ=             -0.0054 YYYX=             -0.0978 YYYZ=              0.0002 ZZZX=             -0.0044
 ZZZY=              0.0012 XXYY=           -102.8848 XXZZ=            -66.6231 YYZZ=            -69.3450
 XXYZ=              0.0008 YYXZ=             -0.0013 ZZXY=             -2.0395
 N-N= 2.071890302703D+02 E-N=-9.533584961774D+02  KE= 2.309231711290D+02
  Exact polarizability:       0.000       0.000       0.000       0.000       0.000       0.000
 Approx polarizability:     128.974      -8.054     120.464       0.002       0.000      62.088
                          Isotropic Fermi Contact Couplings
        Atom                 a.u.       MegaHertz       Gauss      10(-4) cm-1
     1  C(13)             -0.01746     -19.63336      -7.00567      -6.54898
     2  C(13)              0.01708      19.20558       6.85303       6.40629
     3  C(13)             -0.02937     -33.02196     -11.78306     -11.01494
     4  C(13)              0.03812      42.84957      15.28979      14.29308
     5  C(13)             -0.02733     -30.71925     -10.96139     -10.24684
     6  C(13)              0.00947      10.65079       3.80047       3.55272
     7  H(1)               0.02884     128.89143      45.99167      42.99355
     8  H(1)               0.02884     128.91487      46.00003      43.00137
     9  H(1)              -0.00969     -43.31960     -15.45751     -14.44986
    10  H(1)               0.00239      10.67096       3.80767       3.55945
    11  H(1)              -0.00612     -27.36118      -9.76315      -9.12671
    12  H(1)              -0.00335     -14.95306      -5.33562      -4.98780
    13  H(1)               0.00134       5.97660       2.13260       1.99358
 --------------------------------------------------------
       Center         ----  Spin Dipole Couplings  ----
                      3XX-RR        3YY-RR        3ZZ-RR
 --------------------------------------------------------
     1   Atom        0.060458      0.050764     -0.111223
     2   Atom       -0.231053     -0.245273      0.476326
     3   Atom        0.096351      0.104105     -0.200457
     4   Atom       -0.409401     -0.400879      0.810280
     5   Atom       -0.011686     -0.005925      0.017611
     6   Atom       -0.129216     -0.118540      0.247756
     7   Atom        0.006539     -0.003092     -0.003447
     8   Atom        0.006534     -0.003092     -0.003443
     9   Atom       -0.047727      0.047442      0.000284
    10   Atom        0.006162      0.002308     -0.008470
    11   Atom        0.023108     -0.024865      0.001757
    12   Atom       -0.000196      0.001832     -0.001636
    13   Atom        0.005077      0.000506     -0.005583
 --------------------------------------------------------
                        XY            XZ            YZ
 --------------------------------------------------------
     1   Atom        0.000164      0.000005     -0.000006
     2   Atom       -0.005938      0.000003      0.000012
     3   Atom       -0.013203     -0.000001     -0.000003
     4   Atom        0.000083     -0.000043     -0.000001
     5   Atom        0.006616      0.000000      0.000004
     6   Atom        0.006028     -0.000019      0.000006
     7   Atom        0.002912     -0.008701      0.000351
     8   Atom        0.002912      0.008703     -0.000351
     9   Atom       -0.014633     -0.000001     -0.000003
    10   Atom       -0.008548     -0.000000      0.000000
    11   Atom       -0.020535     -0.000000      0.000001
    12   Atom        0.017649     -0.000000      0.000001
    13   Atom        0.002272      0.000000     -0.000000
 --------------------------------------------------------


 ---------------------------------------------------------------------------------
              Anisotropic Spin Dipole Couplings in Principal Axis System
 ---------------------------------------------------------------------------------

       Atom             a.u.   MegaHertz   Gauss  10(-4) cm-1        Axes

              Baa    -0.1112   -14.925    -5.326    -4.978 -0.0000  0.0000  1.0000
     1 C(13)  Bbb     0.0508     6.812     2.431     2.272 -0.0169  0.9999 -0.0000
              Bcc     0.0605     8.113     2.895     2.706  0.9999  0.0169  0.0000
 
              Baa    -0.2474   -33.202   -11.847   -11.075  0.3409  0.9401 -0.0000
     2 C(13)  Bbb    -0.2289   -30.716   -10.960   -10.246  0.9401 -0.3409  0.0000
              Bcc     0.4763    63.918    22.808    21.321  0.0000  0.0000  1.0000
 
              Baa    -0.2005   -26.899    -9.598    -8.973  0.0000  0.0000  1.0000
     3 C(13)  Bbb     0.0865    11.603     4.140     3.870  0.8005  0.5993 -0.0000
              Bcc     0.1140    15.296     5.458     5.102 -0.5993  0.8005 -0.0000
 
              Baa    -0.4094   -54.938   -19.603   -18.325  1.0000 -0.0098  0.0000
     4 C(13)  Bbb    -0.4009   -53.794   -19.195   -17.944  0.0098  1.0000  0.0000
              Bcc     0.8103   108.732    38.798    36.269 -0.0000 -0.0000  1.0000
 
              Baa    -0.0160    -2.150    -0.767    -0.717  0.8364 -0.5481  0.0001
     5 C(13)  Bbb    -0.0016    -0.213    -0.076    -0.071  0.5481  0.8364 -0.0002
              Bcc     0.0176     2.363     0.843     0.788  0.0001  0.0002  1.0000
 
              Baa    -0.1319   -17.704    -6.317    -5.905  0.9119 -0.4105  0.0001
     6 C(13)  Bbb    -0.1158   -15.543    -5.546    -5.185  0.4105  0.9119  0.0000
              Bcc     0.2478    33.246    11.863    11.090 -0.0000  0.0000  1.0000
 
              Baa    -0.0090    -4.820    -1.720    -1.608  0.5075 -0.2965  0.8090
     7 H(1)   Bbb    -0.0029    -1.554    -0.555    -0.519  0.0175  0.9423  0.3344
              Bcc     0.0119     6.374     2.275     2.126  0.8615  0.1555 -0.4834
 
              Baa    -0.0090    -4.820    -1.720    -1.608 -0.5077  0.2966  0.8089
     8 H(1)   Bbb    -0.0029    -1.554    -0.555    -0.518  0.0176  0.9423 -0.3344
              Bcc     0.0119     6.374     2.274     2.126  0.8614  0.1555  0.4836
 
              Baa    -0.0499   -26.638    -9.505    -8.886  0.9889  0.1486  0.0000
     9 H(1)   Bbb     0.0003     0.152     0.054     0.051 -0.0000  0.0001  1.0000
              Bcc     0.0496    26.486     9.451     8.835 -0.1486  0.9889 -0.0001
 
              Baa    -0.0085    -4.519    -1.613    -1.508  0.0000  0.0000  1.0000
    10 H(1)   Bbb    -0.0045    -2.415    -0.862    -0.806  0.6245  0.7810 -0.0001
              Bcc     0.0130     6.935     2.475     2.313  0.7810 -0.6245 -0.0000
 
              Baa    -0.0325   -17.316    -6.179    -5.776  0.3467  0.9380 -0.0000
    11 H(1)   Bbb     0.0018     0.937     0.334     0.313  0.0000  0.0000  1.0000
              Bcc     0.0307    16.379     5.844     5.463  0.9380 -0.3467 -0.0000
 
              Baa    -0.0169    -8.996    -3.210    -3.001  0.7271 -0.6865  0.0000
    12 H(1)   Bbb    -0.0016    -0.873    -0.311    -0.291 -0.0000  0.0000  1.0000
              Bcc     0.0185     9.869     3.521     3.292  0.6865  0.7271  0.0000
 
              Baa    -0.0056    -2.979    -1.063    -0.994 -0.0000  0.0000  1.0000
    13 H(1)   Bbb    -0.0004    -0.230    -0.082    -0.077 -0.3813  0.9245 -0.0000
              Bcc     0.0060     3.209     1.145     1.070  0.9245  0.3813  0.0000
 

 ---------------------------------------------------------------------------------

 No NMR shielding tensors so no spin-rotation constants.
 Leave Link  601 at Wed Apr  6 22:48:15 2022, MaxMem=  1073741824 cpu:               2.5 elap:               0.4
 (Enter /home/saurabh/gaussian/g16/l701.exe)
 ... and contract with generalized density number  0.
 Compute integral second derivatives.
 Leave Link  701 at Wed Apr  6 22:48:16 2022, MaxMem=  1073741824 cpu:               1.7 elap:               0.2
 (Enter /home/saurabh/gaussian/g16/l702.exe)
 L702 exits ... SP integral derivatives will be done elsewhere.
 Leave Link  702 at Wed Apr  6 22:48:16 2022, MaxMem=  1073741824 cpu:               0.2 elap:               0.0
 (Enter /home/saurabh/gaussian/g16/l703.exe)
 Integral derivatives from FoFJK, PRISM(SPDF).
 Compute integral second derivatives, UseDBF=F ICtDFT=           0.
 Calling FoFJK, ICntrl=    100127 FMM=F ISym2X=0 I1Cent= 0 IOpClX= 1 NMat=1 NMatS=1 NMatT=0.
 FoFJK:  IHMeth= 1 ICntrl=  100127 DoSepK=F KAlg= 0 I1Cent=           0 FoldK=F
 IRaf=         0 NMat=       1 IRICut=       1 DoRegI=T DoRafI=F ISym2E= 0 IDoP0=0 IntGTp=1.
 FoFCou: FMM=F IPFlag=           0 FMFlag=      100000 FMFlg1=         800
         NFxFlg=           0 DoJE=F BraDBF=F KetDBF=F FulRan=T
         wScrn=  0.000000 ICntrl=    100127 IOpCl=  1 I1Cent=           0 NGrid=           0
         NMat0=    1 NMatS0=      1 NMatT0=    0 NMatD0=    1 NMtDS0=    0 NMtDT0=    0
 Symmetry not used in FoFCou.
 Leave Link  703 at Wed Apr  6 22:50:22 2022, MaxMem=  1073741824 cpu:            1007.8 elap:             126.0
 (Enter /home/saurabh/gaussian/g16/l716.exe)
 Dipole        = 1.63396766D-01-1.73253356D-02 5.76769261D-05
 Polarizability= 0.00000000D+00 0.00000000D+00 0.00000000D+00
                 0.00000000D+00 0.00000000D+00 0.00000000D+00
 ***** Axes restored to original set *****
 -------------------------------------------------------------------
 Center     Atomic                   Forces (Hartrees/Bohr)
 Number     Number              X              Y              Z
 -------------------------------------------------------------------
      1        6           0.010968275   -0.015840237   -0.000001327
      2        6           0.009079859    0.047054878    0.000000587
      3        6          -0.079216242   -0.034570752    0.000001824
      4        6           0.052913449    0.006660296   -0.000008706
      5        6           0.008240487   -0.013952486    0.000005800
      6        6           0.001833375   -0.004474175    0.000000445
      7        1          -0.002015329    0.000497959   -0.009055487
      8        1          -0.002017429    0.000496043    0.009053684
      9        1           0.008113193    0.017604771    0.000002033
     10        1          -0.003991220   -0.000094851    0.000000615
     11        1          -0.002427985    0.002403341    0.000000092
     12        1          -0.001915150   -0.003077557    0.000000287
     13        1           0.000434716   -0.002707231    0.000000153
 -------------------------------------------------------------------
 Cartesian Forces:  Max     0.079216242 RMS     0.018855005
 Force constants in Cartesian coordinates: 
                1             2             3             4             5 
      1  0.740488D+00
      2  0.905219D-01  0.581765D+00
      3  0.266399D-04  0.114423D-04  0.128987D+00
      4 -0.135590D+00  0.504059D-01  0.000000D+00  0.686169D+00
      5 -0.164354D-01 -0.157383D+00 -0.200235D-05  0.117524D+00  0.621149D+00
      6  0.000000D+00 -0.181828D-05 -0.612701D-01  0.456570D-05  0.683079D-05
      7  0.576657D-01 -0.163313D-01  0.000000D+00 -0.167352D+00 -0.681606D-01
      8  0.228883D-01 -0.578822D-01  0.000000D+00 -0.166899D+00 -0.366288D+00
      9  0.000000D+00  0.000000D+00  0.502175D-02 -0.270955D-05 -0.469155D-05
     10 -0.277240D-01  0.187716D-01  0.000000D+00 -0.432136D-01 -0.851777D-01
     11  0.894988D-03  0.346501D-02  0.000000D+00 -0.367127D-01 -0.360911D-03
     12  0.138411D-05 -0.171539D-05 -0.463736D-02  0.254414D-05  0.565068D-05
     13 -0.244173D-01 -0.258318D-01 -0.287401D-05  0.195923D-02 -0.275554D-02
     14 -0.120003D-01  0.652045D-02  0.000000D+00 -0.178102D-03 -0.674513D-02
     15 -0.296313D-05  0.000000D+00  0.961831D-02  0.000000D+00 -0.244497D-05
     16 -0.464424D+00 -0.188100D-01 -0.188956D-04 -0.255975D-01  0.587160D-01
     17  0.132427D-01 -0.114226D+00  0.000000D+00  0.336720D-01  0.147160D-02
     18 -0.199554D-04  0.000000D+00 -0.549991D-01  0.000000D+00  0.000000D+00
     19  0.281094D-02 -0.432842D-02  0.301446D-03 -0.860715D-03  0.155498D-02
     20 -0.529740D-03 -0.426902D-02  0.186852D-03  0.101014D-02  0.110122D-02
     21 -0.176340D-02  0.934870D-03 -0.745831D-03  0.235113D-03 -0.500920D-03
     22  0.281076D-02 -0.432796D-02 -0.301105D-03 -0.861290D-03  0.155446D-02
     23 -0.529220D-03 -0.426898D-02 -0.187294D-03  0.101077D-02  0.110261D-02
     24  0.176470D-02 -0.935975D-03 -0.745777D-03 -0.236006D-03  0.501405D-03
     25 -0.103628D-03  0.773842D-03  0.000000D+00 -0.603519D-02  0.153212D-02
     26  0.304897D-03 -0.793104D-04  0.000000D+00  0.734809D-03  0.137247D-02
     27  0.000000D+00  0.000000D+00 -0.470692D-03  0.000000D+00 -0.148223D-05
     28 -0.385611D-03 -0.275114D-02  0.000000D+00  0.113471D-01 -0.139182D-01
     29 -0.406109D-02 -0.253150D-02  0.000000D+00  0.180691D-01 -0.210025D-01
     30  0.000000D+00  0.000000D+00  0.827565D-02  0.000000D+00 -0.158327D-05
     31 -0.100472D-01 -0.316902D-02  0.000000D+00 -0.326605D+00 -0.676890D-02
     32  0.262762D-01  0.517400D-02  0.000000D+00 -0.330252D-02 -0.599991D-01
     33  0.000000D+00  0.000000D+00  0.188456D-02 -0.135306D-05 -0.139882D-05
     34 -0.131052D-01  0.312756D-01  0.000000D+00 -0.478252D-02 -0.183763D-02
     35 -0.135659D-02  0.119147D-02  0.000000D+00  0.522514D-04  0.203725D-02
     36  0.000000D+00  0.135766D-05  0.678458D-02  0.000000D+00  0.000000D+00
     37 -0.127979D+00 -0.116199D+00 -0.507023D-05  0.114228D-01  0.141726D-01
     38 -0.119217D+00 -0.257475D+00 -0.837886D-05 -0.153867D-01 -0.164550D-01
     39 -0.481683D-05 -0.793450D-05 -0.377030D-01  0.000000D+00  0.000000D+00
                6             7             8             9            10 
      6  0.107512D+00
      7 -0.241340D-05  0.403325D+00
      8 -0.487329D-05 -0.181564D-01  0.791646D+00
      9 -0.431873D-01  0.379531D-05  0.619808D-05  0.119487D+00
     10  0.000000D+00 -0.981065D-01  0.523124D-01  0.000000D+00  0.395627D+00
     11  0.000000D+00  0.328639D-02 -0.117575D+00  0.000000D+00  0.532063D-01
     12  0.789896D-02 -0.109624D-04 -0.373551D-05 -0.557858D-01  0.221352D-04
     13  0.000000D+00 -0.126714D-01  0.228989D-01 -0.228306D-05 -0.108654D+00
     14  0.000000D+00  0.931125D-02  0.748769D-02  0.000000D+00  0.331435D-01
     15 -0.922749D-02  0.478237D-05  0.109559D-05  0.546211D-02 -0.849608D-05
     16  0.000000D+00 -0.275497D-01 -0.203051D-01  0.000000D+00  0.315098D-01
     17  0.112720D-05 -0.102903D-02  0.524001D-03  0.000000D+00 -0.106485D-01
     18  0.823262D-02  0.000000D+00  0.000000D+00 -0.469282D-03  0.214550D-05
     19  0.171829D-03 -0.293896D-03  0.231092D-02  0.628476D-03 -0.144665D-01
     20  0.530229D-03 -0.975532D-03 -0.365681D-02 -0.824400D-03  0.200664D-01
     21 -0.196824D-03 -0.884705D-03 -0.224757D-03 -0.137803D-02  0.799873D-03
     22 -0.171683D-03 -0.292866D-03  0.231049D-02 -0.627908D-03 -0.144638D-01
     23 -0.530248D-03 -0.977910D-03 -0.365689D-02  0.824724D-03  0.200631D-01
     24 -0.196930D-03  0.884874D-03  0.225332D-03 -0.137825D-02 -0.804716D-03
     25  0.000000D+00 -0.517492D-02 -0.251420D-01 -0.154342D-05 -0.109364D+00
     26  0.000000D+00  0.228423D-02  0.316268D-02  0.000000D+00 -0.942067D-01
     27  0.483488D-02  0.271777D-05  0.142800D-05  0.578192D-03 -0.100032D-04
     28  0.000000D+00 -0.133838D+00  0.123744D+00  0.151563D-05 -0.938314D-02
     29  0.000000D+00  0.117134D+00 -0.253899D+00 -0.119399D-05 -0.158689D-02
     30  0.527300D-02  0.206385D-05  0.000000D+00 -0.372266D-01  0.000000D+00
     31 -0.130378D-05 -0.136930D-01  0.150238D-02  0.000000D+00  0.131998D-02
     32  0.000000D+00 -0.297941D-01  0.292962D-02  0.000000D+00 -0.198326D-02
     33 -0.309648D-01  0.000000D+00  0.000000D+00  0.658519D-02  0.000000D+00
     34  0.000000D+00 -0.574785D-03 -0.496908D-03  0.000000D+00 -0.249253D-02
     35  0.000000D+00 -0.612979D-03  0.188191D-03  0.000000D+00 -0.465322D-02
     36  0.968034D-02  0.000000D+00  0.000000D+00 -0.593159D-03  0.000000D+00
     37  0.000000D+00 -0.144408D-02  0.303208D-02  0.000000D+00 -0.589031D-03
     38  0.000000D+00  0.402213D-02 -0.297968D-02  0.000000D+00  0.692963D-03
     39  0.161157D-02  0.000000D+00  0.000000D+00  0.288432D-02  0.000000D+00
               11            12            13            14            15 
     11  0.533507D+00
     12  0.195914D-05  0.116685D+00
     13  0.263970D-01 -0.401124D-05  0.470051D+00
     14 -0.145182D+00  0.462910D-05  0.213279D-01  0.421213D+00
     15  0.652376D-05 -0.562567D-01 -0.864319D-05  0.255978D-05  0.478585D+00
     16  0.105698D-01  0.139149D-05 -0.117817D+00 -0.475615D-01 -0.215169D-05
     17 -0.300527D-01  0.000000D+00 -0.412163D-01 -0.164838D+00 -0.377482D-05
     18  0.121353D-05 -0.158784D-02 -0.287517D-05 -0.511804D-05 -0.706485D-01
     19  0.749091D-02  0.106249D-01 -0.111336D+00 -0.740804D-03  0.106825D+00
     20 -0.167783D-02 -0.175271D-01  0.391708D-03 -0.457420D-01 -0.373468D-02
     21 -0.358160D-02  0.407726D-02  0.101576D+00 -0.536696D-03 -0.186689D+00
     22  0.749071D-02 -0.106295D-01 -0.111288D+00 -0.742492D-03 -0.106809D+00
     23 -0.167835D-02  0.175305D-01  0.389045D-03 -0.457400D-01  0.373208D-02
     24  0.358455D-02  0.407429D-02 -0.101558D+00  0.533338D-03 -0.186732D+00
     25 -0.930440D-01 -0.626313D-05  0.104183D-01  0.137456D-01  0.000000D+00
     26 -0.240135D+00 -0.865645D-05 -0.136551D-01 -0.121918D-01 -0.158460D-05
     27 -0.129992D-04 -0.234022D-01  0.140266D-05  0.244988D-05 -0.102701D-02
     28  0.250804D-01  0.000000D+00 -0.406095D-02 -0.254790D-02  0.000000D+00
     29  0.539716D-02  0.000000D+00 -0.116628D-02  0.944775D-03  0.000000D+00
     30  0.000000D+00  0.984931D-03  0.000000D+00  0.000000D+00  0.627652D-02
     31 -0.255558D-02  0.000000D+00  0.618942D-03 -0.124211D-03  0.000000D+00
     32 -0.452824D-02  0.000000D+00 -0.303184D-03 -0.291584D-03  0.000000D+00
     33  0.000000D+00  0.564038D-02  0.000000D+00  0.000000D+00 -0.121130D-02
     34 -0.263312D-02  0.000000D+00  0.108255D-01 -0.159937D-01  0.000000D+00
     35 -0.155527D-02  0.000000D+00  0.127146D-01 -0.167128D-01  0.000000D+00
     36  0.000000D+00  0.237369D-02  0.119966D-05  0.000000D+00  0.446432D-03
     37  0.528919D-03  0.000000D+00 -0.362936D-02  0.236075D-02  0.000000D+00
     38  0.376316D-03  0.000000D+00  0.809008D-03  0.127672D-02  0.000000D+00
     39  0.000000D+00 -0.642923D-04  0.000000D+00  0.000000D+00  0.114038D-01
               16            17            18            19            20 
     16  0.770199D+00
     17 -0.651869D-01  0.578092D+00
     18  0.307305D-04  0.376633D-05  0.140090D+00
     19 -0.178322D-01 -0.491260D-02  0.140178D-01  0.131875D+00
     20 -0.187920D-01  0.119172D-02  0.208152D-01 -0.856409D-03  0.520757D-01
     21  0.104414D-02  0.228458D-02  0.318744D-02 -0.116097D+00  0.170853D-02
     22 -0.178294D-01 -0.491408D-02 -0.140222D-01  0.102949D-01 -0.394824D-03
     23 -0.187878D-01  0.119114D-02 -0.208184D-01 -0.395203D-03  0.199572D-03
     24 -0.104935D-02 -0.228646D-02  0.318503D-02 -0.144335D-01  0.110977D-03
     25 -0.266697D-02  0.223828D-02  0.000000D+00  0.446240D-03 -0.695552D-03
     26  0.462413D-02 -0.182958D-02  0.000000D+00  0.140673D-03  0.180168D-03
     27  0.000000D+00  0.000000D+00  0.161270D-02 -0.464857D-03  0.584061D-03
     28 -0.205648D-03 -0.747467D-03  0.000000D+00 -0.602046D-03  0.711011D-03
     29 -0.620738D-03  0.103701D-03  0.000000D+00 -0.611018D-04  0.765613D-04
     30  0.000000D+00  0.000000D+00 -0.524425D-03 -0.136262D-03  0.679468D-03
     31  0.482880D-03  0.294776D-02  0.000000D+00 -0.148659D-04 -0.415545D-04
     32  0.182750D-02 -0.521665D-02  0.000000D+00  0.631967D-05  0.116964D-03
     33  0.000000D+00  0.000000D+00  0.249751D-02  0.142132D-03 -0.382112D-04
     34 -0.113618D+00  0.107003D+00 -0.324853D-05  0.576008D-03  0.770831D-03
     35  0.112379D+00 -0.269781D+00  0.311812D-05 -0.142096D-03  0.365556D-03
     36 -0.365516D-05  0.284862D-05 -0.346809D-01 -0.542624D-03 -0.811741D-03
     37 -0.146520D-01 -0.304486D-01 -0.133273D-05 -0.597229D-03 -0.664542D-03
     38  0.194728D-02  0.336990D-02  0.000000D+00 -0.671708D-04  0.381528D-04
     39  0.000000D+00 -0.137700D-05  0.410435D-02 -0.103724D-02 -0.167912D-02
               21            22            23            24            25 
     21  0.204422D+00
[...]
 ! A3    A(6,1,13)             119.4333         -DE/DX =    0.0                 !
 ! A4    A(1,2,3)              119.5053         -DE/DX =    0.0                 !
 ! A5    A(1,2,11)             120.2474         -DE/DX =    0.0                 !
 ! A6    A(3,2,11)             120.2473         -DE/DX =    0.0                 !
 ! A7    A(2,3,4)              121.5237         -DE/DX =    0.0                 !
 ! A8    A(2,3,10)             119.041          -DE/DX =    0.0                 !
 ! A9    A(4,3,10)             119.4353         -DE/DX =    0.0                 !
 ! A10   A(3,4,5)              122.0009         -DE/DX =    0.0                 !
 ! A11   A(3,4,9)              120.2721         -DE/DX =    0.0                 !
 ! A12   A(5,4,9)              117.727          -DE/DX =    0.0                 !
 ! A13   A(4,5,6)              113.4446         -DE/DX =    0.0                 !
 ! A14   A(4,5,7)              109.9873         -DE/DX =    0.0                 !
 ! A15   A(4,5,8)              109.9873         -DE/DX =    0.0                 !
 ! A16   A(6,5,7)              109.9878         -DE/DX =    0.0                 !
 ! A17   A(6,5,8)              109.9878         -DE/DX =    0.0                 !
 ! A18   A(7,5,8)              102.9349         -DE/DX =    0.0                 !
 ! A19   A(1,6,5)              122.0003         -DE/DX =    0.0                 !
 ! A20   A(1,6,12)             120.2733         -DE/DX =    0.0                 !
 ! A21   A(5,6,12)             117.7264         -DE/DX =    0.0                 !
 ! D1    D(6,1,2,3)              0.0001         -DE/DX =    0.0                 !
 ! D2    D(6,1,2,11)          -179.9999         -DE/DX =    0.0                 !
 ! D3    D(13,1,2,3)          -179.9999         -DE/DX =    0.0                 !
 ! D4    D(13,1,2,11)            0.0001         -DE/DX =    0.0                 !
 ! D5    D(2,1,6,5)              0.0            -DE/DX =    0.0                 !
 ! D6    D(2,1,6,12)           180.0            -DE/DX =    0.0                 !
 ! D7    D(13,1,6,5)           180.0            -DE/DX =    0.0                 !
 ! D8    D(13,1,6,12)            0.0            -DE/DX =    0.0                 !
 ! D9    D(1,2,3,4)              0.0            -DE/DX =    0.0                 !
 ! D10   D(1,2,3,10)           180.0            -DE/DX =    0.0                 !
 ! D11   D(11,2,3,4)           180.0            -DE/DX =    0.0                 !
 ! D12   D(11,2,3,10)            0.0            -DE/DX =    0.0                 !
 ! D13   D(2,3,4,5)             -0.0003         -DE/DX =    0.0                 !
 ! D14   D(2,3,4,9)            180.0            -DE/DX =    0.0                 !
 ! D15   D(10,3,4,5)           179.9998         -DE/DX =    0.0                 !
 ! D16   D(10,3,4,9)             0.0            -DE/DX =    0.0                 !
 ! D17   D(3,4,5,6)              0.0004         -DE/DX =    0.0                 !
 ! D18   D(3,4,5,7)           -123.6545         -DE/DX =    0.0                 !
 ! D19   D(3,4,5,8)            123.6553         -DE/DX =    0.0                 !
 ! D20   D(9,4,5,6)            180.0002         -DE/DX =    0.0                 !
 ! D21   D(9,4,5,7)             56.3453         -DE/DX =    0.0                 !
 ! D22   D(9,4,5,8)            -56.3449         -DE/DX =    0.0                 !
 ! D23   D(4,5,6,1)             -0.0003         -DE/DX =    0.0                 !
 ! D24   D(4,5,6,12)           179.9998         -DE/DX =    0.0                 !
 ! D25   D(7,5,6,1)            123.6543         -DE/DX =    0.0                 !
 ! D26   D(7,5,6,12)           -56.3457         -DE/DX =    0.0                 !
 ! D27   D(8,5,6,1)           -123.6549         -DE/DX =    0.0                 !
 ! D28   D(8,5,6,12)            56.3451         -DE/DX =    0.0                 !
 --------------------------------------------------------------------------------
 GradGradGradGradGradGradGradGradGradGradGradGradGradGradGradGradGradGrad

 Leave Link  103 at Wed Apr  6 23:01:01 2022, MaxMem=  1073741824 cpu:               0.2 elap:               0.1
 (Enter /home/saurabh/gaussian/g16/l9999.exe)

 ----------------------------------------------------------------------

 Electric dipole moment (input orientation):
 (Debye = 10**-18 statcoulomb cm , SI units = C m)
                  (au)            (Debye)         (10**-30 SI)
   Tot        0.197253D+00      0.501367D+00      0.167238D+01
   x         -0.197253D+00     -0.501367D+00     -0.167238D+01
   y         -0.110029D-03     -0.279666D-03     -0.932865D-03
   z          0.000000D+00      0.000000D+00      0.000000D+00

 Dipole polarizability, Alpha (input orientation).
 (esu units = cm**3 , SI units = C**2 m**2 J**-1)
 Alpha(0;0):
               (au)            (10**-24 esu)      (10**-40 SI)
   iso        0.660149D+02      0.978240D+01      0.108844D+02
   aniso      0.410709D+02      0.608608D+01      0.677168D+01
   xx         0.831255D+02      0.123179D+02      0.137055D+02
   yx         0.384277D-02      0.569440D-03      0.633587D-03
   yy         0.759715D+02      0.112578D+02      0.125260D+02
   zx         0.201605D-02      0.298747D-03      0.332401D-03
   zy         0.166338D-03      0.246487D-04      0.274254D-04
   zz         0.389476D+02      0.577144D+01      0.642159D+01

 ----------------------------------------------------------------------

 Dipole orientation:
     6         -0.00128620          2.30846942         -1.39446990
     6          0.00000482          0.00000980         -2.74059674
     6          0.00127028         -2.30851460         -1.39446509
     6          0.00127808         -2.36576309          1.17440219
     6         -0.00003470          0.00000737          2.72709627
     6         -0.00133740          2.36575851          1.17439542
     1          1.63013012          0.00090155          4.02530751
     1         -1.63020659         -0.00090085          4.02529803
     1          0.00225880         -4.15501142          2.16601356
     1          0.00225310         -4.06824823         -2.43981540
     1          0.00002336          0.00002025         -4.78227452
     1         -0.00233754          4.15498233          2.16600361
     1         -0.00225513          4.06822494         -2.43978634

 Electric dipole moment (dipole orientation):
 (Debye = 10**-18 statcoulomb cm , SI units = C m)
                  (au)            (Debye)         (10**-30 SI)
   Tot        0.197253D+00      0.501367D+00      0.167238D+01
   x          0.000000D+00      0.000000D+00      0.000000D+00
   y          0.000000D+00      0.000000D+00      0.000000D+00
   z          0.197253D+00      0.501367D+00      0.167238D+01

 Dipole polarizability, Alpha (dipole orientation).
 (esu units = cm**3 , SI units = C**2 m**2 J**-1)
 Alpha(0;0):
               (au)            (10**-24 esu)      (10**-40 SI)
   iso        0.660149D+02      0.978240D+01      0.108844D+02
   aniso      0.410709D+02      0.608608D+01      0.677168D+01
   xx         0.389476D+02      0.577144D+01      0.642159D+01
   yx        -0.204870D-01     -0.303586D-02     -0.337784D-02
   yy         0.759715D+02      0.112578D+02      0.125260D+02
   zx        -0.340676D-03     -0.504829D-04     -0.561698D-04
   zy         0.147590D-03      0.218706D-04      0.243343D-04
   zz         0.831255D+02      0.123179D+02      0.137055D+02

 ----------------------------------------------------------------------
 Unable to Open any file for archive entry.
 1\1\GINC-MEDIAWIKI\Freq\UB3LYP\CC-pVTZ\C6H7(2)\SAURABH\06-Apr-2022\0\\
 #P Geom=AllCheck Guess=TCheck SCRF=Check GenChk UB3LYP/CC-pVTZ Freq\\M
 ol_01\\0,2\C,0.7372401667,1.222001028,0.0000287706\C,1.4502611085,0.00
 08141514,0.000057558\C,0.7386004555,-1.2212016945,0.0000187672\C,-0.62
 07684567,-1.252254557,-0.000045564\C,-1.4431169737,-0.0008010717,-0.00
 00730949\C,-0.6221615151,1.2515588398,-0.0000329715\H,-2.1301333825,-0
 .0011922994,0.8625470529\H,-2.130062938,-0.0011836729,-0.8627490965\H,
 -1.1449783617,-2.1993766981,-0.0000746374\H,1.2922953664,-2.1521040656
 ,0.0000403963\H,2.5306702892,0.001422334,0.0001083493\H,-1.1474260328,
 2.1980826093,-0.0000539854\H,1.2898782742,2.1535320969,0.0000564554\\V
 ersion=ES64L-G16RevC.01\State=2-A\HF=-232.8787664\S2=0.785461\S2-1=0.\
 S2A=0.750721\RMSD=1.198e-09\RMSF=9.589e-06\ZeroPoint=0.1084733\Thermal
 =0.1135235\ETot=-232.7652429\HTot=-232.7642987\GTot=-232.7990466\Dipol
 e=-0.1972531,-0.00011,-0.0000075\DipoleDeriv=-0.0125279,0.0493689,0.00
 00046,0.0117064,0.1535244,0.0000013,0.0000045,0.0000025,-0.1157259,0.0
 899156,0.0001251,0.0000123,0.0001232,-0.1158052,0.0000003,0.0000121,0.
 0000004,-0.1633479,-0.0124675,-0.049561,0.0000046,-0.0118881,0.1534545
 ,0.0000006,0.0000052,-0.0000005,-0.1157285,0.0490945,-0.0070915,0.0000
 118,0.0012685,0.0138238,0.000002,0.0000092,-0.0000008,-0.2102875,-0.00
 86691,0.0000235,-0.0000123,0.0000371,-0.0734416,-0.0000017,-0.0000101,
 -0.0000016,0.2634833,0.0490793,0.007149,0.0000118,-0.001224,0.0138255,
 0.0000003,0.0000107,0.0000015,-0.2102882,-0.0484919,-0.0000727,0.09244
 31,-0.0000733,0.079918,0.0000529,0.1593838,0.0000897,-0.0464378,-0.048
 4705,-0.0000717,-0.0924435,-0.0000719,0.0799175,-0.0000515,-0.1593838,
 -0.0000883,-0.0464586,0.0104245,-0.0555138,-0.0000056,-0.0685681,-0.09
 31199,-0.0000045,-0.000005,-0.000003,0.1261802,0.0136664,0.0829207,-0.
 000005,0.0859785,-0.0818463,0.000003,-0.000005,0.0000028,0.1291193,-0.
 105696,-0.0000845,-0.0000112,-0.0000888,0.0447671,-0.0000004,-0.000011
 2,-0.0000003,0.1341935,0.010289,0.0556244,-0.0000051,0.0686781,-0.0929
 732,0.0000024,-0.0000049,0.0000019,0.1261821,0.0138538,-0.0828164,-0.0
 000055,-0.0858776,-0.0820446,-0.0000045,-0.0000055,-0.0000043,0.129116
 1\Polar=83.1255312,0.0038428,75.9715184,0.002016,0.0001663,38.9475808\
 Quadrupole=1.8750649,1.0085326,-2.8835975,0.000424,0.0002171,0.0000135
 \PG=C01 [X(C6H7)]\NImag=0\\0.66579254,0.07992983,0.65079005,0.00002488
 ,0.00000522,0.12375233,-0.14660853,0.08803241,-0.00000400,0.69880311,-
 0.00331872,-0.22032761,-0.00000066,0.00006352,0.53718332,-0.00000434,0
 .00000354,-0.05431282,0.00002802,0.00000176,0.10306995,0.06651503,-0.0
 2211541,0.00000272,-0.14650342,0.00342344,-0.00000425,0.66596906,0.022
 25567,-0.05925232,0.00000076,-0.08792215,-0.22038161,-0.00000486,-0.07
 994500,0.65057026,0.00000293,-0.00000129,0.00547419,-0.00000472,-0.000
 00063,-0.05431728,0.00002504,-0.00000123,0.12375695,-0.03328625,0.0211
 9942,-0.00000134,-0.03964705,-0.08304159,-0.00000273,-0.38121437,0.040
 98014,-0.00001525,0.71231747,0.00173824,0.00205398,0.00000008,-0.03752
 829,0.00105657,-0.00000184,-0.00833000,-0.11550405,-0.00000071,0.06532
 643,0.59450743,-0.00000148,0.00000108,-0.00267008,-0.00000258,-0.00000
 410,0.00979112,-0.00001518,0.00000167,-0.05334737,0.00002717,0.0000058
 9,0.12772972,-0.02313266,-0.02482529,-0.00000147,0.00296346,0.00000648
 ,0.00000061,-0.02317505,0.02479050,-0.00000125,-0.12070285,0.04427070,
 -0.00000213,0.50936709,-0.01383551,0.00747315,-0.00000064,0.00000682,-
 0.00872516,0.00000003,0.01380067,0.00751612,0.00000062,0.05198097,-0.1
 7792106,0.00000150,0.00002468,0.47509615,-0.00000146,-0.00000120,0.008
 86471,0.00000065,0.00000007,-0.01071262,-0.00000153,0.00000115,0.00886
 411,-0.00000200,0.00000120,-0.06723299,0.00000246,-0.00000002,0.469668
 24,-0.38117144,-0.04127596,-0.00001499,-0.03978615,0.08300109,-0.00000
 197,-0.03326047,-0.02123908,-0.00000152,0.03519531,0.01090557,0.000001
 70,-0.12059865,-0.05192071,-0.00000266,0.71247064,0.00803823,-0.115539
 67,0.00000017,0.03748353,0.00119027,0.00000171,-0.00177716,0.00202923,
 -0.00000006,-0.01082962,-0.03338925,-0.00000061,-0.04421083,-0.1780340
 2,-0.00000233,-0.06520729,0.59438449,-0.00001475,-0.00000211,-0.053346
 00,-0.00000220,0.00000382,0.00979142,-0.00000140,-0.00000096,-0.002670
 59,0.00000154,0.00000029,-0.00106810,-0.00000255,-0.00000253,-0.067232
 48,0.00002618,-0.00000173,0.12772218,0.00261615,-0.00402498,0.00072499
 ,-0.00163682,-0.00000196,0.00011864,0.00261252,0.00403292,0.00072556,-
 0.01764270,0.00627896,0.01222520,-0.12022715,-0.00004196,0.11431507,-0
 .01761351,-0.00629974,0.01220238,0.14266210,0.00056909,-0.00444303,0.0
 0048919,-0.00000194,0.00163315,0.00000004,-0.00056102,-0.00443917,-0.0
 0048843,0.01987159,0.00081670,-0.02038639,-0.00004205,-0.04656567,0.00
 006502,-0.01989227,0.00078736,0.02039985,0.00005260,0.05030329,-0.0016
 8799,0.00058342,-0.00102306,0.00059003,0.00000037,-0.00027552,-0.00168
 738,-0.00058535,-0.00102297,0.00016840,-0.00266853,0.00395004,0.111585
 58,0.00006325,-0.18137991,0.00016520,0.00266884,0.00395046,-0.12372852
 ,-0.00007025,0.20372671,0.00261606,-0.00402495,-0.00072471,-0.00163671
 ,-0.00000193,-0.00011878,0.00261237,0.00403289,-0.00072521,-0.01764166
 ,0.00627876,-0.01222692,-0.12020899,-0.00004081,-0.11431027,-0.0176124
 9,-0.00629928,-0.01220422,0.00939284,0.00000456,0.01405971,0.14264219,
 0.00056907,-0.00444303,-0.00048914,-0.00000195,0.00163307,-0.00000003,
 -0.00056098,-0.00443918,0.00048832,0.01986987,0.00081653,0.02038806,-0
 .00004092,-0.04656582,-0.00006368,-0.01989057,0.00078763,-0.02040156,0
 .00000470,0.00109356,0.00000797,0.00005133,0.05030338,0.00168827,-0.00
 058377,-0.00102297,-0.00059009,-0.00000034,-0.00027559,0.00168763,0.00
 058563,-0.00102286,-0.00016989,0.00266894,0.00394924,-0.11158092,-0.00
 006190,-0.18139864,-0.00016708,-0.00266930,0.00394919,-0.01405659,-0.0
 0000767,-0.02881550,0.12372372,0.00006870,0.20374718,-0.00039008,0.000
 64098,0.00000002,-0.00529472,0.00161669,-0.00000062,-0.01146449,-0.030
 32011,-0.00000093,-0.12153234,-0.11438513,-0.00000478,0.01132421,0.016
 13179,0.00000056,-0.00243737,0.00262696,-0.00000019,0.00050084,-0.0007
 4685,0.00034783,0.00050082,-0.00074677,-0.00034784,0.12757705,0.000550
 03,0.00007131,0.00000003,0.00044133,0.00217004,-0.00000002,0.00162312,
 0.00225764,0.00000006,-0.11793038,-0.26926539,-0.00000673,-0.01400314,
 -0.01746130,-0.00000072,0.00485878,-0.00210672,0.00000018,0.00016150,0
 .00034777,-0.00056925,0.00016144,0.00034779,0.00056926,0.12548141,0.28
 364598,0.00000003,0.00000003,-0.00066390,-0.00000063,0.00000007,0.0080
 5546,-0.00000082,-0.00000146,0.00557729,-0.00000475,-0.00000647,-0.030
 72745,0.00000036,0.00000057,0.00079009,-0.00000017,0.00000011,0.002360
 59,-0.00070311,0.00089176,0.00051404,0.00070312,-0.00089182,0.00051407
 ,0.00000562,0.00000721,0.01968207,-0.00087212,-0.00316767,-0.00000029,
 0.01195620,-0.01394696,0.00000035,-0.13000916,0.11778262,-0.00000377,-
 0.01338923,0.03030690,-0.00000060,-0.00384457,-0.00237147,-0.00000069,
 -0.00058266,-0.00054315,-0.00000002,-0.00057748,0.00066222,-0.00008883
 ,-0.00057757,0.00066237,0.00008880,0.00110245,-0.00039027,0.00000032,0
 .13549611,-0.00395523,-0.00298002,-0.00000022,0.01634703,-0.01876819,0
 .00000065,0.11850522,-0.26056079,0.00000450,-0.00119241,0.00365031,-0.
 00000005,-0.00084960,0.00147130,-0.00000007,-0.00083587,0.00035348,-0.
 00000004,0.00004667,0.00000586,0.00005285,0.00004667,0.00000587,-0.000
 05285,0.00026101,0.00110828,0.00000004,-0.12893642,0.27571696,-0.00000
 028,-0.00000020,0.00510789,0.00000053,-0.00000070,0.00298713,-0.000003
 82,0.00000443,-0.03854982,-0.00000076,0.00000143,0.00368240,-0.0000006
 4,-0.00000017,0.01011207,-0.00000003,-0.00000003,-0.00030541,-0.000644
 96,0.00136604,-0.00013292,0.00064491,-0.00136597,-0.00013286,0.0000003
 2,0.00000002,-0.00574445,0.00000451,-0.00000486,0.02636513,-0.01084187
 ,-0.00304095,-0.00000065,-0.33927597,-0.00015662,-0.00001478,-0.010813
 39,0.00302309,-0.00000062,0.00055695,-0.00277696,-0.00000017,0.0007569
 1,0.00000060,0.00000009,0.00055148,0.00278324,-0.00000015,-0.00001026,
 -0.00000006,0.00001750,-0.00001024,-0.00000006,-0.00001751,-0.00066289
 ,0.00015430,-0.00000004,0.00077207,-0.00037943,0.00000015,0.35886903,0
 .02745302,0.00513286,0.00000129,-0.00015771,-0.06005969,-0.00000014,-0
 .02746996,0.00510575,-0.00000128,-0.00221017,-0.00506169,-0.00000015,0
 .00000063,-0.00029416,0.,0.00221650,-0.00505594,0.00000007,-0.00000006
 ,0.00010668,0.,-0.00000006,0.00010668,0.,-0.00144455,-0.00002784,-0.00
 000007,0.00065685,0.00106643,0.00000005,0.00016880,0.05794112,-0.00000
 048,-0.00000017,0.00281436,-0.00001478,-0.00000009,-0.02484405,-0.0000
 0077,0.00000013,0.00281377,-0.00000016,-0.00000017,0.00388836,0.000000
 09,0.,-0.00124478,-0.00000017,0.00000010,0.00388882,0.00016687,0.00000
 010,0.00012750,-0.00016688,-0.00000010,0.00012749,-0.00000005,0.,0.000
 27633,0.00000016,0.,-0.00254802,0.00001607,0.00000017,0.01697236,-0.01
 149574,0.03030452,-0.00000068,-0.00529234,-0.00162498,-0.00000061,-0.0
 0038870,-0.00064150,0.,-0.00242909,-0.00262735,-0.00000021,0.01132671,
 -0.01610053,0.00000041,-0.12179668,0.11456226,-0.00000379,0.00050018,0
 .00074702,0.00034723,0.00050016,0.00074694,-0.00034722,0.00065135,-0.0
 0100487,0.,0.00012491,0.00012233,0.00000005,-0.00066434,0.00144377,-0.
 00000004,0.12786125,-0.00163899,0.00229009,-0.00000008,-0.00044982,0.0
 0216773,-0.00000003,-0.00055056,0.00006990,-0.00000002,-0.00485905,-0.
 00211507,-0.00000021,0.01403522,-0.01746455,0.00000056,0.11810704,-0.2
 6902410,0.00000466,-0.00016131,0.00034844,0.00056964,-0.00016127,0.000
 34846,-0.00056965,0.00100677,-0.00108747,0.00000004,0.00010340,0.00000
 015,0.,-0.00015502,-0.00002638,-0.00000001,-0.12566674,0.28338432,-0.0
 0000080,0.00000137,0.00557666,-0.00000061,-0.00000009,0.00805516,0.000
 00002,-0.00000003,-0.00066391,-0.00000023,-0.00000014,0.00236057,0.000
 00048,-0.00000077,0.00079041,-0.00000376,0.00000451,-0.03072306,-0.000
 70215,-0.00089259,0.00051405,0.00070216,0.00089264,0.00051409,0.000000
 02,-0.00000005,0.00029561,0.00000005,0.00000001,-0.00092968,-0.0000000
 4,0.00000006,0.00027639,0.00000454,-0.00000492,0.01967802,-0.12974111,
 -0.11763195,-0.00000449,0.01195893,0.01398154,0.00000046,-0.00087993,0
 .00317001,-0.00000026,-0.00058417,0.00054217,-0.00000001,-0.00384846,0
 .00236546,-0.00000063,-0.01335800,-0.03032712,-0.00000085,-0.00057671,
 -0.00066289,-0.00008877,-0.00057679,-0.00066303,0.00008873,0.00012517,
 -0.00010326,0.00000005,0.00040104,0.00082005,0.00000002,0.00077252,-0.
 00065705,0.00000015,0.00110233,0.00039032,0.00000031,0.13520517,-0.118
 35471,-0.26082575,-0.00000600,-0.01631276,-0.01877188,-0.00000081,0.00
 395763,-0.00297178,0.00000017,0.00083481,0.00035499,0.00000004,0.00084
 362,0.00147503,0.00000001,0.00117276,0.00361723,0.00000005,-0.00004732
 ,0.00000506,-0.00005296,-0.00004733,0.00000505,0.00005296,-0.00012220,
 -0.00000010,0.,-0.00081842,-0.00106966,-0.00000005,0.00037907,0.001066
 19,0.00000003,-0.00026090,0.00110847,0.,0.12877576,0.27600715,-0.00000
 453,-0.00000592,-0.03855132,0.00000038,0.00000053,0.00298764,-0.000000
 26,0.00000013,0.00510849,-0.00000002,0.00000003,-0.00030547,-0.0000006
 2,0.00000006,0.01011178,-0.00000074,-0.00000138,0.00368296,-0.00064339
 ,-0.00136668,-0.00013292,0.00064335,0.00136661,-0.00013284,0.00000005,
 0.,-0.00092975,0.00000001,0.00000004,0.00008854,0.00000016,-0.00000002
 ,-0.00254854,0.00000031,0.00000004,-0.00574432,0.00000531,0.00000656,0
 .02636574\\0.00002807,-0.00002726,0.,-0.00001896,0.00001449,-0.0000000
 5,0.00002474,0.00000683,0.00000008,-0.00001484,0.00000370,-0.00000028,
 0.00001365,0.00000367,0.00000018,-0.00001232,0.00000549,0.,-0.00000822
 ,-0.00000021,-0.00000041,-0.00000821,-0.00000025,0.00000041,-0.0000038
 0,-0.00000731,0.00000002,0.00000183,0.00000102,0.00000006,0.00000013,0
 .00000052,0.00000002,-0.00000182,-0.00000043,0.,-0.00000025,-0.0000002
 5,-0.00000002\\\@
 The archive entry for this job was punched.


 I WISH TO HAVE NO CONNECTION WITH ANY SHIP THAT DOES NOT SAIL FAST,
 FOR I INTEND TO GO IN HARM'S WAY.
     -- JOHN PAUL JONES, USN 1747-1792
 Job cpu time:       0 days  0 hours 48 minutes 10.2 seconds.
 Elapsed time:       0 days  0 hours  6 minutes  1.7 seconds.
 File lengths (MBytes):  RWF=    149 Int=      0 D2E=      0 Chk=     10 Scr=      1
 Normal termination of Gaussian 16 at Wed Apr  6 23:01:01 2022.
