 Entering Gaussian System, Link 0=g16
 Initial command:
 /apps/chpc/chem/gaussian16/B01/g16/l1.exe "/mnt/lustre/users/kotukile/Kgalaletso/4322499.sched01/Gau-25438.inp" -scrdir="/mnt/lustre/users/kotukile/Kgalaletso/4322499.sched01/"
 Entering Link 1 = /apps/chpc/chem/gaussian16/B01/g16/l1.exe PID=     25440.
  
 Copyright (c) 1988-2017, Gaussian, Inc.  All Rights Reserved.
  
 This is part of the Gaussian(R) 16 program.  It is based on
 the Gaussian(R) 09 system (copyright 2009, Gaussian, Inc.),
 the Gaussian(R) 03 system (copyright 2003, Gaussian, Inc.),
 the Gaussian(R) 98 system (copyright 1998, Gaussian, Inc.),
 the Gaussian(R) 94 system (copyright 1995, Gaussian, Inc.),
 the Gaussian 92(TM) system (copyright 1992, Gaussian, Inc.),
 the Gaussian 90(TM) system (copyright 1990, Gaussian, Inc.),
 the Gaussian 88(TM) system (copyright 1988, Gaussian, Inc.),
 the Gaussian 86(TM) system (copyright 1986, Carnegie Mellon
 University), and the Gaussian 82(TM) system (copyright 1983,
 Carnegie Mellon University). Gaussian is a federally registered
 trademark of Gaussian, Inc.
  
 This software contains proprietary and confidential information,
 including trade secrets, belonging to Gaussian, Inc.
  
 This software is provided under written license and may be
 used, copied, transmitted, or stored only in accord with that
 written license.
  
 The following legend is applicable only to US Government
 contracts under FAR:
  
                    RESTRICTED RIGHTS LEGEND
  
 Use, reproduction and disclosure by the US Government is
 subject to restrictions as set forth in subparagraphs (a)
 and (c) of the Commercial Computer Software - Restricted
 Rights clause in FAR 52.227-19.
  
 Gaussian, Inc.
 340 Quinnipiac St., Bldg. 40, Wallingford CT 06492
  
  
 ---------------------------------------------------------------
 Warning -- This program may not be used in any manner that
 competes with the business of Gaussian, Inc. or will provide
 assistance to any competitor of Gaussian, Inc.  The licensee
 of this program is prohibited from giving any competitor of
 Gaussian, Inc. access to this program.  By using this program,
 the user acknowledges that Gaussian, Inc. is engaged in the
 business of creating and licensing software in the field of
 computational chemistry and represents and warrants to the
 licensee that it is not a competitor of Gaussian, Inc. and that
 it will not use this program in any manner prohibited above.
 ---------------------------------------------------------------
  

 Cite this work as:
 Gaussian 16, Revision B.01,
 M. J. Frisch, G. W. Trucks, H. B. Schlegel, G. E. Scuseria, 
 M. A. Robb, J. R. Cheeseman, G. Scalmani, V. Barone, 
 G. A. Petersson, H. Nakatsuji, X. Li, M. Caricato, A. V. Marenich, 
 J. Bloino, B. G. Janesko, R. Gomperts, B. Mennucci, H. P. Hratchian, 
 J. V. Ortiz, A. F. Izmaylov, J. L. Sonnenberg, D. Williams-Young, 
 F. Ding, F. Lipparini, F. Egidi, J. Goings, B. Peng, A. Petrone, 
 T. Henderson, D. Ranasinghe, V. G. Zakrzewski, J. Gao, N. Rega, 
 G. Zheng, W. Liang, M. Hada, M. Ehara, K. Toyota, R. Fukuda, 
 J. Hasegawa, M. Ishida, T. Nakajima, Y. Honda, O. Kitao, H. Nakai, 
 T. Vreven, K. Throssell, J. A. Montgomery, Jr., J. E. Peralta, 
 F. Ogliaro, M. J. Bearpark, J. J. Heyd, E. N. Brothers, K. N. Kudin, 
 V. N. Staroverov, T. A. Keith, R. Kobayashi, J. Normand, 
 K. Raghavachari, A. P. Rendell, J. C. Burant, S. S. Iyengar, 
 J. Tomasi, M. Cossi, J. M. Millam, M. Klene, C. Adamo, R. Cammi, 
 J. W. Ochterski, R. L. Martin, K. Morokuma, O. Farkas, 
 J. B. Foresman, and D. J. Fox, Gaussian, Inc., Wallingford CT, 2016.
 
 ******************************************
 Gaussian 16:  ES64L-G16RevB.01 20-Dec-2017
                30-Jul-2022 
 ******************************************
 %nprocshared=24
 Will use up to   24 processors via shared memory.
 %lindaworkers=cnode1182.cm.cluster
 %mem=20GB
 %chk=QOOH-OOH-Elim-ortho-TS-b3lyp.chk
 SetLPE:    new flags="-opt 'Tsnet.Node.lindarsharg: ssh'  -nodelist 'cnode1182.cm.cluster' -env GAUSS_MDEF=2684354560 -env GAUSS_EXEDIR="/apps/chpc/chem/gaussian16/B01/g16/bsd:/apps/chpc/chem/gaussian16/B01/g16""
 Will use up to    1 processors via Linda.
 ----------------------------------------------------------------------
 # opt=(ts,noeigentest,calcfc) freq ub3lyp cc-pvtz+d int=grid=ultrafine
 ----------------------------------------------------------------------
 1/5=1,10=4,11=1,18=20,26=4,38=1/1,3;
 2/9=110,12=2,17=6,18=5,40=1/2;
 3/5=16,6=1,7=9,11=2,25=1,30=1,71=2,74=-5,75=-5,116=2,140=1/1,2,3;
 4//1;
 5/5=2,38=5/2;
 8/6=4,10=90,11=11/1;
 11/6=1,8=1,9=11,15=111,16=1/1,2,10;
 10/6=1,13=1/2;
 6/7=2,8=2,9=2,10=2,28=1/1;
 7/10=1,18=20,25=1/1,2,3,16;
 1/5=1,10=4,11=1,18=20,26=4/3(2);
 2/9=110/2;
 99//99;
 2/9=110/2;
 3/5=16,6=1,7=9,11=2,25=1,30=1,71=1,74=-5,75=-5,116=2/1,2,3;
 4/5=5,16=3,69=1/1;
 5/5=2,38=5/2;
 7//1,2,3,16;
 1/5=1,11=1,18=20,26=4/3(-5);
 2/9=110/2;
 6/7=2,8=2,9=2,10=2,19=2,28=1/1;
 99/9=1/99;
 ----------------------------
 QOOH-OOH-Elim-ortho-TS-b3lyp
 ----------------------------
 Symbolic Z-matrix:
 Charge =  0 Multiplicity = 2
 C                     2.13521   0.31604  -0.42249 
 C                     1.75643  -1.01625  -0.18142 
 C                     0.54581  -1.30621   0.38938 
 C                    -0.40551  -0.25568   0.67724 
 C                     0.06531   1.10207   0.52472 
 C                     1.28338   1.36569  -0.04962 
 H                    -0.58627   1.90966   0.83015 
 H                     0.25501  -2.32893   0.58345 
 H                     2.43947  -1.81698  -0.433 
 O                    -1.6046   -0.4832   -0.59183 
 H                    -1.10256  -0.44026   1.48554 
 O                    -2.79877   0.17364  -0.19723 
 H                    -2.75328   0.99825  -0.70059 
 H                     3.09241   0.53125  -0.87693 
 H                     1.59848   2.38949  -0.20309 
 
 Add virtual bond connecting atoms O10        and C4         Dist= 3.33D+00.

 GradGradGradGradGradGradGradGradGradGradGradGradGradGradGradGradGradGrad
 Berny optimization.
 Initialization pass.
                           ----------------------------
                           !    Initial Parameters    !
                           ! (Angstroms and Degrees)  !
 --------------------------                            --------------------------
 ! Name  Definition              Value          Derivative Info.                !
 --------------------------------------------------------------------------------
 ! R1    R(1,2)                  1.4059         calculate D2E/DX2 analytically  !
 ! R2    R(1,6)                  1.4023         calculate D2E/DX2 analytically  !
 ! R3    R(1,14)                 1.0812         calculate D2E/DX2 analytically  !
 ! R4    R(2,3)                  1.3695         calculate D2E/DX2 analytically  !
 ! R5    R(2,9)                  1.0821         calculate D2E/DX2 analytically  !
 ! R6    R(3,4)                  1.4462         calculate D2E/DX2 analytically  !
 ! R7    R(3,8)                  1.0808         calculate D2E/DX2 analytically  !
 ! R8    R(4,5)                  1.4451         calculate D2E/DX2 analytically  !
 ! R9    R(4,10)                 1.7607         calculate D2E/DX2 analytically  !
 ! R10   R(4,11)                 1.0832         calculate D2E/DX2 analytically  !
 ! R11   R(5,6)                  1.3722         calculate D2E/DX2 analytically  !
 ! R12   R(5,7)                  1.0817         calculate D2E/DX2 analytically  !
 ! R13   R(6,15)                 1.0821         calculate D2E/DX2 analytically  !
 ! R14   R(10,12)                1.4189         calculate D2E/DX2 analytically  !
 ! R15   R(12,13)                0.9672         calculate D2E/DX2 analytically  !
 ! A1    A(2,1,6)              120.0045         calculate D2E/DX2 analytically  !
 ! A2    A(2,1,14)             119.9472         calculate D2E/DX2 analytically  !
 ! A3    A(6,1,14)             120.0364         calculate D2E/DX2 analytically  !
 ! A4    A(1,2,3)              120.6822         calculate D2E/DX2 analytically  !
 ! A5    A(1,2,9)              119.4252         calculate D2E/DX2 analytically  !
 ! A6    A(3,2,9)              119.8815         calculate D2E/DX2 analytically  !
 ! A7    A(2,3,4)              120.708          calculate D2E/DX2 analytically  !
 ! A8    A(2,3,8)              120.8656         calculate D2E/DX2 analytically  !
 ! A9    A(4,3,8)              118.3352         calculate D2E/DX2 analytically  !
 ! A10   A(3,4,5)              116.5619         calculate D2E/DX2 analytically  !
 ! A11   A(3,4,10)             102.1604         calculate D2E/DX2 analytically  !
 ! A12   A(3,4,11)             116.6191         calculate D2E/DX2 analytically  !
 ! A13   A(5,4,10)             105.4981         calculate D2E/DX2 analytically  !
 ! A14   A(5,4,11)             116.6487         calculate D2E/DX2 analytically  !
 ! A15   A(10,4,11)             94.4498         calculate D2E/DX2 analytically  !
 ! A16   A(4,5,6)              120.9207         calculate D2E/DX2 analytically  !
 ! A17   A(4,5,7)              118.3857         calculate D2E/DX2 analytically  !
 ! A18   A(6,5,7)              120.6275         calculate D2E/DX2 analytically  !
 ! A19   A(1,6,5)              120.445          calculate D2E/DX2 analytically  !
 ! A20   A(1,6,15)             119.5761         calculate D2E/DX2 analytically  !
 ! A21   A(5,6,15)             119.972          calculate D2E/DX2 analytically  !
 ! A22   A(4,10,12)            108.2342         calculate D2E/DX2 analytically  !
 ! A23   A(10,12,13)           102.1436         calculate D2E/DX2 analytically  !
 ! D1    D(6,1,2,3)              1.4702         calculate D2E/DX2 analytically  !
 ! D2    D(6,1,2,9)           -177.3188         calculate D2E/DX2 analytically  !
 ! D3    D(14,1,2,3)          -179.7874         calculate D2E/DX2 analytically  !
 ! D4    D(14,1,2,9)             1.4236         calculate D2E/DX2 analytically  !
 ! D5    D(2,1,6,5)             -1.4208         calculate D2E/DX2 analytically  !
 ! D6    D(2,1,6,15)           177.6207         calculate D2E/DX2 analytically  !
 ! D7    D(14,1,6,5)           179.838          calculate D2E/DX2 analytically  !
 ! D8    D(14,1,6,15)           -1.1205         calculate D2E/DX2 analytically  !
 ! D9    D(1,2,3,4)              4.0335         calculate D2E/DX2 analytically  !
 ! D10   D(1,2,3,8)           -179.4954         calculate D2E/DX2 analytically  !
 ! D11   D(9,2,3,4)           -177.183          calculate D2E/DX2 analytically  !
 ! D12   D(9,2,3,8)             -0.7119         calculate D2E/DX2 analytically  !
 ! D13   D(2,3,4,5)             -9.141          calculate D2E/DX2 analytically  !
 ! D14   D(2,3,4,10)           105.2727         calculate D2E/DX2 analytically  !
 ! D15   D(2,3,4,11)          -153.3791         calculate D2E/DX2 analytically  !
 ! D16   D(8,3,4,5)            174.3004         calculate D2E/DX2 analytically  !
 ! D17   D(8,3,4,10)           -71.286          calculate D2E/DX2 analytically  !
 ! D18   D(8,3,4,11)            30.0623         calculate D2E/DX2 analytically  !
 ! D19   D(3,4,5,6)              9.2075         calculate D2E/DX2 analytically  !
 ! D20   D(3,4,5,7)           -173.7312         calculate D2E/DX2 analytically  !
 ! D21   D(10,4,5,6)          -103.3132         calculate D2E/DX2 analytically  !
 ! D22   D(10,4,5,7)            73.7481         calculate D2E/DX2 analytically  !
 ! D23   D(11,4,5,6)           153.4349         calculate D2E/DX2 analytically  !
 ! D24   D(11,4,5,7)           -29.5038         calculate D2E/DX2 analytically  !
 ! D25   D(3,4,10,12)          161.2798         calculate D2E/DX2 analytically  !
 ! D26   D(5,4,10,12)          -76.4142         calculate D2E/DX2 analytically  !
 ! D27   D(11,4,10,12)          42.8231         calculate D2E/DX2 analytically  !
 ! D28   D(4,5,6,1)             -4.1385         calculate D2E/DX2 analytically  !
 ! D29   D(4,5,6,15)           176.8238         calculate D2E/DX2 analytically  !
 ! D30   D(7,5,6,1)            178.866          calculate D2E/DX2 analytically  !
 ! D31   D(7,5,6,15)            -0.1717         calculate D2E/DX2 analytically  !
 ! D32   D(4,10,12,13)         100.3671         calculate D2E/DX2 analytically  !
 --------------------------------------------------------------------------------
 Trust Radius=3.00D-01 FncErr=1.00D-07 GrdErr=1.00D-06 EigMax=2.50D+02 EigMin=1.00D-04
 Number of steps in this run=     80 maximum allowed number of steps=    100.
 Search for a saddle point of order  1.
 GradGradGradGradGradGradGradGradGradGradGradGradGradGradGradGradGradGrad

                          Input orientation:                          
 ---------------------------------------------------------------------
 Center     Atomic      Atomic             Coordinates (Angstroms)
 Number     Number       Type             X           Y           Z
 ---------------------------------------------------------------------
      1          6           0        2.135212    0.316044   -0.422489
      2          6           0        1.756427   -1.016249   -0.181418
      3          6           0        0.545809   -1.306205    0.389382
      4          6           0       -0.405510   -0.255677    0.677244
      5          6           0        0.065306    1.102074    0.524716
      6          6           0        1.283381    1.365685   -0.049616
      7          1           0       -0.586265    1.909656    0.830150
      8          1           0        0.255007   -2.328932    0.583454
      9          1           0        2.439465   -1.816979   -0.432997
     10          8           0       -1.604603   -0.483199   -0.591828
     11          1           0       -1.102556   -0.440262    1.485543
     12          8           0       -2.798773    0.173636   -0.197228
     13          1           0       -2.753279    0.998249   -0.700594
     14          1           0        3.092411    0.531252   -0.876925
     15          1           0        1.598480    2.389487   -0.203093
 ---------------------------------------------------------------------
                    Distance matrix (angstroms):
                    1          2          3          4          5
     1  C    0.000000
     2  C    1.405915   0.000000
     3  C    2.411852   1.369483   0.000000
     4  C    2.826932   2.447395   1.446196   0.000000
     5  C    2.408226   2.801037   2.459473   1.445137   0.000000
     6  C    1.402283   2.432027   2.806373   2.451427   1.372244
     7  H    3.393397   3.882318   3.437678   2.178238   1.081676
     8  H    3.397498   2.135984   1.080833   2.177950   3.436748
     9  H    2.154639   1.082128   2.126765   3.429895   3.882617
    10  O    3.828013   3.427696   2.502875   1.760720   2.558976
    11  H    3.833501   3.359212   2.160679   1.083186   2.160067
    12  O    4.941177   4.708070   3.704088   2.583935   3.096151
    13  H    4.943692   4.966407   4.169237   2.997130   3.075156
    14  H    1.081229   2.159477   3.385995   3.907704   3.384346
    15  H    2.152994   3.409465   3.888095   3.433346   2.130202
                    6          7          8          9         10
     6  C    0.000000
     7  H    2.136696   0.000000
     8  H    3.886969   4.328305   0.000000
     9  H    3.407765   4.963707   2.463154   0.000000
    10  O    3.471717   2.963914   2.871614   4.261301   0.000000
    11  H    3.363161   2.493634   2.494758   4.257001   2.137607
    12  O    4.255203   2.994071   4.024659   5.608678   1.418867
    13  H    4.105290   2.805315   4.665694   5.912843   1.877758
    14  H    2.157153   4.283312   4.285350   2.477418   4.813765
    15  H    1.082134   2.463928   4.968607   4.295866   4.320090
                   11         12         13         14         15
    11  H    0.000000
    12  O    2.466929   0.000000
    13  H    3.094090   0.967178   0.000000
    14  H    4.911501   5.941037   5.866964   0.000000
    15  H    4.260818   4.924009   4.595743   2.477684   0.000000
 Stoichiometry    C6H7O2(2)
 Framework group  C1[X(C6H7O2)]
 Deg. of freedom    39
 Full point group                 C1      NOp   1
 Largest Abelian subgroup         C1      NOp   1
 Largest concise Abelian subgroup C1      NOp   1
                         Standard orientation:                         
 ---------------------------------------------------------------------
 Center     Atomic      Atomic             Coordinates (Angstroms)
 Number     Number       Type             X           Y           Z
 ---------------------------------------------------------------------
      1          6           0        2.135212    0.316044   -0.422489
      2          6           0        1.756427   -1.016249   -0.181418
      3          6           0        0.545809   -1.306205    0.389382
      4          6           0       -0.405510   -0.255677    0.677244
      5          6           0        0.065306    1.102074    0.524716
      6          6           0        1.283381    1.365685   -0.049616
      7          1           0       -0.586265    1.909656    0.830150
      8          1           0        0.255007   -2.328932    0.583454
      9          1           0        2.439465   -1.816979   -0.432997
     10          8           0       -1.604603   -0.483199   -0.591828
     11          1           0       -1.102556   -0.440262    1.485543
     12          8           0       -2.798773    0.173636   -0.197228
     13          1           0       -2.753279    0.998249   -0.700594
     14          1           0        3.092411    0.531252   -0.876925
     15          1           0        1.598480    2.389487   -0.203093
 ---------------------------------------------------------------------
 Rotational constants (GHZ):           4.2186841           1.5078139           1.2424042
 Standard basis: CC-pVTZ+d (5D, 7F)
 There are   385 symmetry adapted cartesian basis functions of A   symmetry.
 There are   338 symmetry adapted basis functions of A   symmetry.
   338 basis functions,   535 primitive gaussians,   385 cartesian basis functions
    30 alpha electrons       29 beta electrons
       nuclear repulsion energy       349.9956963427 Hartrees.
 NAtoms=   15 NActive=   15 NUniq=   15 SFac= 1.00D+00 NAtFMM=   60 NAOKFM=F Big=F
 Integral buffers will be    131072 words long.
 Raffenetti 2 integral format.
 Two-electron integral symmetry is turned on.
 One-electron integrals computed using PRISM.
 NBasis=   338 RedAO= T EigKep=  5.29D-05  NBF=   338
 NBsUse=   338 1.00D-06 EigRej= -1.00D+00 NBFU=   338
 ExpMin= 1.03D-01 ExpMax= 1.53D+04 ExpMxC= 5.22D+02 IAcc=3 IRadAn=         5 AccDes= 0.00D+00
 Harris functional with IExCor=  402 and IRadAn=       5 diagonalized for initial guess.
 HarFok:  IExCor=  402 AccDes= 0.00D+00 IRadAn=         5 IDoV= 1 UseB2=F ITyADJ=14
 ICtDFT=  3500011 ScaDFX=  1.000000  1.000000  1.000000  1.000000
 FoFCou: FMM=F IPFlag=           0 FMFlag=      100000 FMFlg1=           0
         NFxFlg=           0 DoJE=T BraDBF=F KetDBF=T FulRan=T
         wScrn=  0.000000 ICntrl=       500 IOpCl=  0 I1Cent=   200000004 NGrid=           0
         NMat0=    1 NMatS0=      1 NMatT0=    0 NMatD0=    1 NMtDS0=    0 NMtDT0=    0
 Petite list used in FoFCou.
 Initial guess <Sx>= 0.0000 <Sy>= 0.0000 <Sz>= 0.5000 <S**2>= 0.7500 S= 0.5000
 Requested convergence on RMS density matrix=1.00D-08 within 128 cycles.
 Requested convergence on MAX density matrix=1.00D-06.
 Requested convergence on             energy=1.00D-06.
 No special actions if energy rises.
 Integral accuracy reduced to 1.0D-05 until final iterations.
 Initial convergence to 1.0D-05 achieved.  Increase integral accuracy.
 SCF Done:  E(UB3LYP) =  -383.272607507     A.U. after   19 cycles
            NFock= 19  Conv=0.60D-08     -V/T= 2.0064
 <Sx>= 0.0000 <Sy>= 0.0000 <Sz>= 0.5000 <S**2>= 0.7884 S= 0.5190
 <L.S>= 0.000000000000E+00
 Annihilation of the first spin contaminant:
 S**2 before annihilation     0.7884,   after     0.7511
 DoSCS=F DFT=T ScalE2(SS,OS)=  1.000000  1.000000
 Range of M.O.s used for correlation:     1   338
 NBasis=   338 NAE=    30 NBE=    29 NFC=     0 NFV=     0
 NROrb=    338 NOA=    30 NOB=    29 NVA=   308 NVB=   309

 **** Warning!!: The largest alpha MO coefficient is  0.21161641D+02


 **** Warning!!: The largest beta MO coefficient is  0.21377010D+02

 Symmetrizing basis deriv contribution to polar:
 IMax=3 JMax=2 DiffMx= 0.00D+00
 G2DrvN: will do    16 centers at a time, making    1 passes.
 Calling FoFCou, ICntrl=  3107 FMM=F I1Cent=   0 AccDes= 0.00D+00.
 End of G2Drv F.D. properties file   721 does not exist.
 End of G2Drv F.D. properties file   722 does not exist.
 End of G2Drv F.D. properties file   788 does not exist.
          IDoAtm=111111111111111
          Differentiating once with respect to nuclear coordinates.
 CalDSu exits because no D1Ps are significant.
          There are    48 degrees of freedom in the 1st order CPHF.  IDoFFX=6 NUNeed=     0.
     42 vectors produced by pass  0 Test12= 3.79D-14 2.08D-09 XBig12= 3.43D-01 2.37D-01.
 AX will form    42 AO Fock derivatives at one time.
     42 vectors produced by pass  1 Test12= 3.79D-14 2.08D-09 XBig12= 6.10D-02 7.42D-02.
     42 vectors produced by pass  2 Test12= 3.79D-14 2.08D-09 XBig12= 2.60D-03 1.03D-02.
     42 vectors produced by pass  3 Test12= 3.79D-14 2.08D-09 XBig12= 2.78D-05 7.49D-04.
     42 vectors produced by pass  4 Test12= 3.79D-14 2.08D-09 XBig12= 2.44D-07 4.86D-05.
     42 vectors produced by pass  5 Test12= 3.79D-14 2.08D-09 XBig12= 2.72D-09 5.33D-06.
     40 vectors produced by pass  6 Test12= 3.79D-14 2.08D-09 XBig12= 1.82D-11 4.15D-07.
     18 vectors produced by pass  7 Test12= 3.79D-14 2.08D-09 XBig12= 6.72D-14 2.20D-08.
 InvSVY:  IOpt=1 It=  1 EMax= 2.44D-15
 Solved reduced A of dimension   310 with    42 vectors.
 End of Minotr F.D. properties file   721 does not exist.
 End of Minotr F.D. properties file   722 does not exist.
 End of Minotr F.D. properties file   788 does not exist.

 **********************************************************************

            Population analysis using the SCF Density.

 **********************************************************************

 Orbital symmetries:
 Alpha Orbitals:
       Occupied  (A) (A) (A) (A) (A) (A) (A) (A) (A) (A) (A) (A)
                 (A) (A) (A) (A) (A) (A) (A) (A) (A) (A) (A) (A)
                 (A) (A) (A) (A) (A) (A)
       Virtual   (A) (A) (A) (A) (A) (A) (A) (A) (A) (A) (A) (A)
                 (A) (A) (A) (A) (A) (A) (A) (A) (A) (A) (A) (A)
                 (A) (A) (A) (A) (A) (A) (A) (A) (A) (A) (A) (A)
                 (A) (A) (A) (A) (A) (A) (A) (A) (A) (A) (A) (A)
                 (A) (A) (A) (A) (A) (A) (A) (A) (A) (A) (A) (A)
                 (A) (A) (A) (A) (A) (A) (A) (A) (A) (A) (A) (A)
                 (A) (A) (A) (A) (A) (A) (A) (A) (A) (A) (A) (A)
                 (A) (A) (A) (A) (A) (A) (A) (A) (A) (A) (A) (A)
                 (A) (A) (A) (A) (A) (A) (A) (A) (A) (A) (A) (A)
                 (A) (A) (A) (A) (A) (A) (A) (A) (A) (A) (A) (A)
                 (A) (A) (A) (A) (A) (A) (A) (A) (A) (A) (A) (A)
                 (A) (A) (A) (A) (A) (A) (A) (A) (A) (A) (A) (A)
                 (A) (A) (A) (A) (A) (A) (A) (A) (A) (A) (A) (A)
                 (A) (A) (A) (A) (A) (A) (A) (A) (A) (A) (A) (A)
                 (A) (A) (A) (A) (A) (A) (A) (A) (A) (A) (A) (A)
                 (A) (A) (A) (A) (A) (A) (A) (A) (A) (A) (A) (A)
                 (A) (A) (A) (A) (A) (A) (A) (A) (A) (A) (A) (A)
                 (A) (A) (A) (A) (A) (A) (A) (A) (A) (A) (A) (A)
                 (A) (A) (A) (A) (A) (A) (A) (A) (A) (A) (A) (A)
                 (A) (A) (A) (A) (A) (A) (A) (A) (A) (A) (A) (A)
                 (A) (A) (A) (A) (A) (A) (A) (A) (A) (A) (A) (A)
                 (A) (A) (A) (A) (A) (A) (A) (A) (A) (A) (A) (A)
                 (A) (A) (A) (A) (A) (A) (A) (A) (A) (A) (A) (A)
                 (A) (A) (A) (A) (A) (A) (A) (A) (A) (A) (A) (A)
                 (A) (A) (A) (A) (A) (A) (A) (A) (A) (A) (A) (A)
                 (A) (A) (A) (A) (A) (A) (A) (A)
 Beta  Orbitals:
       Occupied  (A) (A) (A) (A) (A) (A) (A) (A) (A) (A) (A) (A)
                 (A) (A) (A) (A) (A) (A) (A) (A) (A) (A) (A) (A)
                 (A) (A) (A) (A) (A)
       Virtual   (A) (A) (A) (A) (A) (A) (A) (A) (A) (A) (A) (A)
                 (A) (A) (A) (A) (A) (A) (A) (A) (A) (A) (A) (A)
                 (A) (A) (A) (A) (A) (A) (A) (A) (A) (A) (A) (A)
                 (A) (A) (A) (A) (A) (A) (A) (A) (A) (A) (A) (A)
                 (A) (A) (A) (A) (A) (A) (A) (A) (A) (A) (A) (A)
                 (A) (A) (A) (A) (A) (A) (A) (A) (A) (A) (A) (A)
                 (A) (A) (A) (A) (A) (A) (A) (A) (A) (A) (A) (A)
                 (A) (A) (A) (A) (A) (A) (A) (A) (A) (A) (A) (A)
                 (A) (A) (A) (A) (A) (A) (A) (A) (A) (A) (A) (A)
                 (A) (A) (A) (A) (A) (A) (A) (A) (A) (A) (A) (A)
                 (A) (A) (A) (A) (A) (A) (A) (A) (A) (A) (A) (A)
                 (A) (A) (A) (A) (A) (A) (A) (A) (A) (A) (A) (A)
                 (A) (A) (A) (A) (A) (A) (A) (A) (A) (A) (A) (A)
                 (A) (A) (A) (A) (A) (A) (A) (A) (A) (A) (A) (A)
                 (A) (A) (A) (A) (A) (A) (A) (A) (A) (A) (A) (A)
                 (A) (A) (A) (A) (A) (A) (A) (A) (A) (A) (A) (A)
                 (A) (A) (A) (A) (A) (A) (A) (A) (A) (A) (A) (A)
                 (A) (A) (A) (A) (A) (A) (A) (A) (A) (A) (A) (A)
                 (A) (A) (A) (A) (A) (A) (A) (A) (A) (A) (A) (A)
                 (A) (A) (A) (A) (A) (A) (A) (A) (A) (A) (A) (A)
                 (A) (A) (A) (A) (A) (A) (A) (A) (A) (A) (A) (A)
                 (A) (A) (A) (A) (A) (A) (A) (A) (A) (A) (A) (A)
                 (A) (A) (A) (A) (A) (A) (A) (A) (A) (A) (A) (A)
                 (A) (A) (A) (A) (A) (A) (A) (A) (A) (A) (A) (A)
                 (A) (A) (A) (A) (A) (A) (A) (A) (A) (A) (A) (A)
                 (A) (A) (A) (A) (A) (A) (A) (A) (A)
 The electronic state is 2-A.
 Alpha  occ. eigenvalues --  -19.17933 -19.17595 -10.22415 -10.19683 -10.19328
 Alpha  occ. eigenvalues --  -10.19127 -10.18778 -10.18770  -1.10763  -0.88264
 Alpha  occ. eigenvalues --   -0.84566  -0.76454  -0.75436  -0.62564  -0.61514
 Alpha  occ. eigenvalues --   -0.53773  -0.51667  -0.48418  -0.46618  -0.44391
 Alpha  occ. eigenvalues --   -0.43796  -0.43404  -0.41475  -0.37289  -0.35817
 Alpha  occ. eigenvalues --   -0.35379  -0.29098  -0.28516  -0.26669  -0.20929
 Alpha virt. eigenvalues --   -0.02395   0.00700   0.02847   0.04234   0.06730
 Alpha virt. eigenvalues --    0.06806   0.09050   0.09569   0.10431   0.12397
 Alpha virt. eigenvalues --    0.13646   0.20986   0.22654   0.24601   0.24920
 Alpha virt. eigenvalues --    0.25492   0.26248   0.27671   0.30936   0.32020
 Alpha virt. eigenvalues --    0.34044   0.34358   0.35660   0.37156   0.37591
 Alpha virt. eigenvalues --    0.38858   0.39133   0.41304   0.41874   0.42643
 Alpha virt. eigenvalues --    0.42962   0.43931   0.45942   0.46697   0.47577
 Alpha virt. eigenvalues --    0.48461   0.49016   0.51985   0.53457   0.54794
 Alpha virt. eigenvalues --    0.55378   0.55514   0.56325   0.60218   0.61130
 Alpha virt. eigenvalues --    0.64742   0.66940   0.68041   0.68497   0.69591
 Alpha virt. eigenvalues --    0.70467   0.70864   0.72568   0.73722   0.74538
 Alpha virt. eigenvalues --    0.77111   0.79362   0.84075   0.84471   0.86846
 Alpha virt. eigenvalues --    0.88045   0.91011   0.91733   0.94843   0.96121
 Alpha virt. eigenvalues --    0.98980   1.00195   1.02239   1.04781   1.05058
 Alpha virt. eigenvalues --    1.06985   1.08839   1.10021   1.12642   1.13871
 Alpha virt. eigenvalues --    1.15429   1.15861   1.18557   1.21510   1.22633
 Alpha virt. eigenvalues --    1.23406   1.24335   1.25747   1.27557   1.28074
 Alpha virt. eigenvalues --    1.32371   1.32853   1.34855   1.36153   1.37317
 Alpha virt. eigenvalues --    1.37547   1.39021   1.39892   1.43925   1.45857
 Alpha virt. eigenvalues --    1.46880   1.48079   1.50260   1.52321   1.53903
 Alpha virt. eigenvalues --    1.56659   1.60885   1.63476   1.70953   1.74110
 Alpha virt. eigenvalues --    1.78468   1.83472   1.86998   1.90106   1.92508
 Alpha virt. eigenvalues --    1.92784   1.94961   1.98954   1.99829   2.03628
 Alpha virt. eigenvalues --    2.04900   2.09383   2.11069   2.13435   2.15343
 Alpha virt. eigenvalues --    2.16489   2.18323   2.20204   2.27652   2.34381
 Alpha virt. eigenvalues --    2.36929   2.37475   2.39290   2.42247   2.42744
 Alpha virt. eigenvalues --    2.46074   2.47628   2.51734   2.53845   2.57660
 Alpha virt. eigenvalues --    2.58381   2.59496   2.61955   2.63206   2.64930
 Alpha virt. eigenvalues --    2.67111   2.69491   2.70301   2.71335   2.73362
 Alpha virt. eigenvalues --    2.74018   2.77935   2.80775   2.81996   2.82387
 Alpha virt. eigenvalues --    2.89975   2.90650   2.92964   2.93646   2.95023
 Alpha virt. eigenvalues --    2.95878   2.96411   2.97699   2.98168   3.01050
 Alpha virt. eigenvalues --    3.03165   3.04093   3.04855   3.06220   3.06346
 Alpha virt. eigenvalues --    3.08091   3.10443   3.12179   3.13295   3.15497
 Alpha virt. eigenvalues --    3.17424   3.18927   3.25339   3.26449   3.27660
 Alpha virt. eigenvalues --    3.28378   3.29746   3.30538   3.32186   3.32601
 Alpha virt. eigenvalues --    3.34742   3.36327   3.37119   3.37571   3.38704
 Alpha virt. eigenvalues --    3.40159   3.42917   3.46864   3.51544   3.52296
 Alpha virt. eigenvalues --    3.55906   3.57222   3.60414   3.64031   3.65327
 Alpha virt. eigenvalues --    3.66600   3.69305   3.71227   3.73142   3.73801
 Alpha virt. eigenvalues --    3.74484   3.75744   3.76385   3.77065   3.78463
 Alpha virt. eigenvalues --    3.78962   3.82458   3.84159   3.85028   3.87746
 Alpha virt. eigenvalues --    3.88541   3.92647   3.94124   3.95755   3.99977
 Alpha virt. eigenvalues --    4.00820   4.01801   4.03109   4.03726   4.06694
 Alpha virt. eigenvalues --    4.07280   4.08749   4.11333   4.12674   4.14392
 Alpha virt. eigenvalues --    4.16649   4.17414   4.20107   4.20291   4.26784
 Alpha virt. eigenvalues --    4.27958   4.29977   4.30494   4.32379   4.33595
 Alpha virt. eigenvalues --    4.35050   4.36347   4.38689   4.42908   4.47903
 Alpha virt. eigenvalues --    4.50660   4.54967   4.58560   4.62031   4.64227
 Alpha virt. eigenvalues --    4.67629   4.68435   4.69350   4.72039   4.76062
 Alpha virt. eigenvalues --    4.76362   4.82260   4.85440   4.87218   4.90545
 Alpha virt. eigenvalues --    4.91292   4.93083   4.95287   5.00624   5.00706
 Alpha virt. eigenvalues --    5.03550   5.06772   5.08679   5.11526   5.12896
 Alpha virt. eigenvalues --    5.14481   5.19967   5.27190   5.30878   5.34209
 Alpha virt. eigenvalues --    5.42458   5.45444   5.50507   5.55790   5.58290
 Alpha virt. eigenvalues --    5.63688   5.68100   5.79441   5.80463   5.89729
 Alpha virt. eigenvalues --    5.90397   5.93736   5.99072   6.08415   6.23865
 Alpha virt. eigenvalues --    6.27699   6.35450   6.37158   6.45412   6.58767
 Alpha virt. eigenvalues --    6.61864   6.63370   6.68730   6.69839   6.77582
 Alpha virt. eigenvalues --    6.84690   7.08806   7.14199   7.37091   7.58478
 Alpha virt. eigenvalues --    9.16160   9.64473  10.99622  11.92520  12.44069
 Alpha virt. eigenvalues --   12.57259  13.03992  15.03681
  Beta  occ. eigenvalues --  -19.17788 -19.16573 -10.22590 -10.19141 -10.18997
  Beta  occ. eigenvalues --  -10.18974 -10.18858 -10.18685  -1.09702  -0.87419
  Beta  occ. eigenvalues --   -0.83262  -0.76020  -0.74559  -0.61982  -0.61120
  Beta  occ. eigenvalues --   -0.53567  -0.51161  -0.47837  -0.46332  -0.43711
  Beta  occ. eigenvalues --   -0.43328  -0.43083  -0.39683  -0.36730  -0.35178
  Beta  occ. eigenvalues --   -0.34467  -0.27655  -0.26886  -0.25559
  Beta virt. eigenvalues --   -0.12133  -0.01198   0.02442   0.03171   0.04481
  Beta virt. eigenvalues --    0.06773   0.07077   0.09529   0.09696   0.10597
  Beta virt. eigenvalues --    0.12545   0.14845   0.21145   0.22802   0.24712
  Beta virt. eigenvalues --    0.25130   0.25654   0.26618   0.28107   0.31392
  Beta virt. eigenvalues --    0.32351   0.34153   0.34644   0.36435   0.37939
  Beta virt. eigenvalues --    0.38342   0.39127   0.39398   0.41757   0.42188
  Beta virt. eigenvalues --    0.42894   0.43038   0.44287   0.46500   0.46869
  Beta virt. eigenvalues --    0.47680   0.48662   0.49194   0.52163   0.53702
  Beta virt. eigenvalues --    0.55138   0.55544   0.55719   0.56518   0.60804
  Beta virt. eigenvalues --    0.61504   0.65076   0.67152   0.68407   0.68812
  Beta virt. eigenvalues --    0.69831   0.70723   0.71255   0.72992   0.74155
  Beta virt. eigenvalues --    0.74987   0.77397   0.79684   0.84338   0.84682
  Beta virt. eigenvalues --    0.87101   0.88272   0.91187   0.92052   0.95065
  Beta virt. eigenvalues --    0.96500   0.99308   1.00524   1.02529   1.05101
  Beta virt. eigenvalues --    1.05211   1.07316   1.09171   1.10284   1.12787
  Beta virt. eigenvalues --    1.14150   1.15627   1.16047   1.18937   1.21841
  Beta virt. eigenvalues --    1.22811   1.23787   1.24611   1.26020   1.27761
  Beta virt. eigenvalues --    1.28342   1.32895   1.33322   1.35165   1.36452
  Beta virt. eigenvalues --    1.37620   1.37834   1.39124   1.40367   1.44075
  Beta virt. eigenvalues --    1.46225   1.47319   1.48442   1.50610   1.52691
  Beta virt. eigenvalues --    1.54352   1.57236   1.61296   1.63880   1.71509
  Beta virt. eigenvalues --    1.74578   1.79467   1.83931   1.87367   1.90342
  Beta virt. eigenvalues --    1.92691   1.93078   1.95272   1.99189   2.00237
  Beta virt. eigenvalues --    2.04092   2.05619   2.09409   2.11875   2.13678
  Beta virt. eigenvalues --    2.16025   2.17620   2.19168   2.21007   2.28116
  Beta virt. eigenvalues --    2.34894   2.37300   2.38006   2.39789   2.42978
  Beta virt. eigenvalues --    2.43164   2.46531   2.48484   2.52014   2.53991
  Beta virt. eigenvalues --    2.57850   2.58690   2.59633   2.62479   2.63705
  Beta virt. eigenvalues --    2.65669   2.67660   2.70057   2.70606   2.71751
  Beta virt. eigenvalues --    2.73469   2.74702   2.78570   2.81413   2.82308
  Beta virt. eigenvalues --    2.82823   2.90393   2.91396   2.93620   2.94072
  Beta virt. eigenvalues --    2.95943   2.96346   2.96749   2.98130   2.98975
  Beta virt. eigenvalues --    3.01487   3.03401   3.04760   3.05047   3.06520
  Beta virt. eigenvalues --    3.06660   3.08784   3.10915   3.12666   3.13608
  Beta virt. eigenvalues --    3.15841   3.17803   3.19594   3.25525   3.26618
  Beta virt. eigenvalues --    3.27903   3.28711   3.30150   3.30783   3.32452
  Beta virt. eigenvalues --    3.32935   3.34989   3.36706   3.37365   3.38110
  Beta virt. eigenvalues --    3.39275   3.40732   3.43285   3.47126   3.51956
  Beta virt. eigenvalues --    3.52624   3.56033   3.57379   3.60586   3.64378
  Beta virt. eigenvalues --    3.65478   3.67014   3.69591   3.71444   3.73466
  Beta virt. eigenvalues --    3.74109   3.74861   3.75976   3.76587   3.77271
  Beta virt. eigenvalues --    3.78893   3.79258   3.82582   3.84383   3.85288
  Beta virt. eigenvalues --    3.87867   3.88713   3.92982   3.94587   3.96141
  Beta virt. eigenvalues --    4.00251   4.01100   4.02104   4.03249   4.04088
  Beta virt. eigenvalues --    4.06956   4.07568   4.08956   4.11690   4.13006
  Beta virt. eigenvalues --    4.14716   4.16933   4.17865   4.20175   4.20453
  Beta virt. eigenvalues --    4.27087   4.28254   4.30391   4.30913   4.32497
  Beta virt. eigenvalues --    4.33853   4.35513   4.36678   4.39119   4.43258
  Beta virt. eigenvalues --    4.48273   4.50822   4.55193   4.59001   4.62239
  Beta virt. eigenvalues --    4.64599   4.67948   4.68717   4.69637   4.72242
  Beta virt. eigenvalues --    4.76447   4.76678   4.82905   4.85789   4.87685
  Beta virt. eigenvalues --    4.90656   4.91519   4.93681   4.95535   5.01025
  Beta virt. eigenvalues --    5.01063   5.03958   5.07274   5.08920   5.11827
  Beta virt. eigenvalues --    5.13230   5.14663   5.20478   5.27807   5.32040
  Beta virt. eigenvalues --    5.35244   5.43726   5.46018   5.51736   5.56590
  Beta virt. eigenvalues --    5.58646   5.64667   5.68301   5.79635   5.80670
  Beta virt. eigenvalues --    5.90067   5.90514   5.93924   6.00374   6.08573
  Beta virt. eigenvalues --    6.24306   6.28105   6.35743   6.37769   6.46916
  Beta virt. eigenvalues --    6.60235   6.62868   6.64761   6.69222   6.70867
  Beta virt. eigenvalues --    6.78526   6.85909   7.10193   7.15255   7.37772
  Beta virt. eigenvalues --    7.59073   9.16347   9.65552  10.99901  11.92786
  Beta virt. eigenvalues --   12.44013  12.57965  13.04158  15.03944
          Condensed to atoms (all electrons):
               1          2          3          4          5          6
     1  C    4.986764   0.419365  -0.020348  -0.049017  -0.020930   0.419401
     2  C    0.419365   4.957493   0.444541   0.009539  -0.067531  -0.011040
     3  C   -0.020348   0.444541   5.099826   0.278194   0.038720  -0.063503
     4  C   -0.049017   0.009539   0.278194   5.045929   0.225063   0.002044
     5  C   -0.020930  -0.067531   0.038720   0.225063   5.198622   0.439753
     6  C    0.419401  -0.011040  -0.063503   0.002044   0.439753   4.966005
     7  H    0.010515  -0.003365   0.012656  -0.068293   0.434917  -0.050866
     8  H    0.008533  -0.048028   0.425336  -0.042503   0.010539  -0.002372
     9  H   -0.046717   0.428537  -0.045940   0.007770  -0.001464   0.007625
    10  O   -0.002178   0.001837  -0.029181   0.136970  -0.046102   0.007670
    11  H   -0.001760   0.006507  -0.032836   0.438722  -0.063051   0.009056
    12  O    0.000034  -0.000221   0.006878  -0.048438   0.011206   0.000384
    13  H    0.000057  -0.000002  -0.000780  -0.006118   0.005536   0.000196
    14  H    0.431367  -0.045178   0.007523  -0.001270   0.007640  -0.046662
    15  H   -0.043229   0.006873  -0.001141   0.007091  -0.044911   0.426132
               7          8          9         10         11         12
     1  C    0.010515   0.008533  -0.046717  -0.002178  -0.001760   0.000034
     2  C   -0.003365  -0.048028   0.428537   0.001837   0.006507  -0.000221
     3  C    0.012656   0.425336  -0.045940  -0.029181  -0.032836   0.006878
     4  C   -0.068293  -0.042503   0.007770   0.136970   0.438722  -0.048438
     5  C    0.434917   0.010539  -0.001464  -0.046102  -0.063051   0.011206
     6  C   -0.050866  -0.002372   0.007625   0.007670   0.009056   0.000384
     7  H    0.556299  -0.000140   0.000066  -0.006283  -0.005893   0.010216
     8  H   -0.000140   0.543913  -0.008430   0.005124  -0.007566  -0.000002
     9  H    0.000066  -0.008430   0.553815  -0.000058  -0.000228   0.000003
    10  O   -0.006283   0.005124  -0.000058   8.147012  -0.029718   0.068715
    11  H   -0.005893  -0.007566  -0.000228  -0.029718   0.547028   0.012304
    12  O    0.010216  -0.000002   0.000003   0.068715   0.012304   7.829483
    13  H    0.001146   0.000028  -0.000001  -0.026958  -0.001438   0.327564
    14  H   -0.000263  -0.000284  -0.007042  -0.000019   0.000056  -0.000000
    15  H   -0.008436   0.000071  -0.000335   0.000196  -0.000264  -0.000029
              13         14         15
     1  C    0.000057   0.431367  -0.043229
     2  C   -0.000002  -0.045178   0.006873
     3  C   -0.000780   0.007523  -0.001141
     4  C   -0.006118  -0.001270   0.007091
     5  C    0.005536   0.007640  -0.044911
     6  C    0.000196  -0.046662   0.426132
     7  H    0.001146  -0.000263  -0.008436
     8  H    0.000028  -0.000284   0.000071
     9  H   -0.000001  -0.007042  -0.000335
    10  O   -0.026958  -0.000019   0.000196
    11  H   -0.001438   0.000056  -0.000264
    12  O    0.327564  -0.000000  -0.000029
    13  H    0.474770   0.000001  -0.000024
    14  H    0.000001   0.550147  -0.007104
    15  H   -0.000024  -0.007104   0.553441
          Atomic-Atomic Spin Densities.
               1          2          3          4          5          6
     1  C    0.397061   0.008540  -0.021589  -0.001827  -0.024682   0.007895
     2  C    0.008540  -0.134921  -0.009691   0.001865  -0.000212   0.003828
     3  C   -0.021589  -0.009691   0.322909   0.019925   0.013913  -0.000608
     4  C   -0.001827   0.001865   0.019925  -0.130770   0.029579   0.000106
     5  C   -0.024682  -0.000212   0.013913   0.029579   0.326692  -0.000968
     6  C    0.007895   0.003828  -0.000608   0.000106  -0.000968  -0.147802
     7  H   -0.000214  -0.000036  -0.000083   0.003323   0.003670   0.001148
     8  H   -0.000216   0.000921   0.004294   0.001212  -0.000297   0.000042
     9  H   -0.000621  -0.001918  -0.000554   0.000278  -0.000063   0.000118
    10  O    0.000915   0.002153  -0.027351  -0.018247  -0.034010   0.001190
    11  H    0.000683  -0.000806   0.001010   0.002916  -0.000988  -0.000380
    12  O   -0.000035  -0.000098   0.001818   0.005864   0.004657  -0.000097
    13  H   -0.000021  -0.000003   0.000052   0.000717   0.000684  -0.000049
    14  H    0.006144   0.000445  -0.000060  -0.000088  -0.000162   0.000562
    15  H   -0.000531   0.000138  -0.000106   0.000151  -0.000017  -0.002458
               7          8          9         10         11         12
     1  C   -0.000214  -0.000216  -0.000621   0.000915   0.000683  -0.000035
     2  C   -0.000036   0.000921  -0.001918   0.002153  -0.000806  -0.000098
     3  C   -0.000083   0.004294  -0.000554  -0.027351   0.001010   0.001818
     4  C    0.003323   0.001212   0.000278  -0.018247   0.002916   0.005864
     5  C    0.003670  -0.000297  -0.000063  -0.034010  -0.000988   0.004657
     6  C    0.001148   0.000042   0.000118   0.001190  -0.000380  -0.000097
     7  H   -0.018722   0.000006  -0.000005  -0.001497   0.000807   0.000377
     8  H    0.000006  -0.016256   0.000071  -0.000670   0.000505   0.000043
     9  H   -0.000005   0.000071   0.006862   0.000046  -0.000052  -0.000001
    10  O   -0.001497  -0.000670   0.000046   0.445089  -0.014445  -0.035830
    11  H    0.000807   0.000505  -0.000052  -0.014445   0.030398   0.003442
    12  O    0.000377   0.000043  -0.000001  -0.035830   0.003442   0.066712
    13  H   -0.000002  -0.000002  -0.000000  -0.001229   0.000042   0.001101
    14  H    0.000023   0.000019   0.000113  -0.000012   0.000008   0.000000
    15  H    0.000035  -0.000002  -0.000005   0.000063  -0.000048  -0.000009
              13         14         15
     1  C   -0.000021   0.006144  -0.000531
     2  C   -0.000003   0.000445   0.000138
     3  C    0.000052  -0.000060  -0.000106
     4  C    0.000717  -0.000088   0.000151
     5  C    0.000684  -0.000162  -0.000017
     6  C   -0.000049   0.000562  -0.002458
     7  H   -0.000002   0.000023   0.000035
     8  H   -0.000002   0.000019  -0.000002
     9  H   -0.000000   0.000113  -0.000005
    10  O   -0.001229  -0.000012   0.000063
    11  H    0.000042   0.000008  -0.000048
    12  O    0.001101   0.000000  -0.000009
    13  H   -0.001954   0.000000  -0.000003
    14  H    0.000000  -0.021977   0.000117
    15  H   -0.000003   0.000117   0.007332
 Mulliken charges and spin densities:
               1          2
     1  C   -0.091857   0.371502
     2  C   -0.099327  -0.129797
     3  C   -0.119945   0.303879
     4  C    0.064317  -0.084996
     5  C   -0.128006   0.317796
     6  C   -0.103823  -0.137473
     7  H    0.117724  -0.011172
     8  H    0.115781  -0.010329
     9  H    0.112399   0.004267
    10  O   -0.227026   0.316165
    11  H    0.129080   0.023092
    12  O   -0.218097   0.047944
    13  H    0.226022  -0.000668
    14  H    0.111089  -0.014867
    15  H    0.111670   0.004658
 Sum of Mulliken charges =  -0.00000   1.00000
 Mulliken charges and spin densities with hydrogens summed into heavy atoms:
               1          2
     1  C    0.019232   0.356635
     2  C    0.013073  -0.125530
     3  C   -0.004164   0.293550
     4  C    0.193397  -0.061904
     5  C   -0.010282   0.306624
     6  C    0.007846  -0.132815
    10  O   -0.227026   0.316165
    12  O    0.007925   0.047275
 APT charges:
               1
     1  C   -0.548273
     2  C   -0.521012
     3  C   -0.512417
     4  C   -0.391766
     5  C   -0.473729
     6  C   -0.514647
     7  H    0.433942
     8  H    0.488483
     9  H    0.593265
    10  O   -0.125115
    11  H    0.424005
    12  O   -0.458956
    13  H    0.415463
    14  H    0.638016
    15  H    0.552741
 Sum of APT charges =  -0.00000
 APT charges with hydrogens summed into heavy atoms:
               1
     1  C    0.089743
     2  C    0.072253
     3  C   -0.023934
     4  C    0.032239
     5  C   -0.039787
     6  C    0.038093
    10  O   -0.125115
    12  O   -0.043493
 Electronic spatial extent (au):  <R**2>=            962.6427
 Charge=             -0.0000 electrons
 Dipole moment (field-independent basis, Debye):
    X=              1.7736    Y=              1.5370    Z=              0.2942  Tot=              2.3653
 Quadrupole moment (field-independent basis, Debye-Ang):
   XX=            -47.2551   YY=            -41.4499   ZZ=            -48.0983
   XY=             -4.7126   XZ=             -1.9043   YZ=             -2.1427
 Traceless Quadrupole moment (field-independent basis, Debye-Ang):
   XX=             -1.6539   YY=              4.1512   ZZ=             -2.4972
   XY=             -4.7126   XZ=             -1.9043   YZ=             -2.1427
 Octapole moment (field-independent basis, Debye-Ang**2):
  XXX=             -1.7010  YYY=              1.4589  ZZZ=             -2.9225  XYY=             -7.2006
  XXY=             12.0515  XXZ=            -11.5795  XZZ=            -11.2545  YZZ=              0.3650
  YYZ=             -1.4549  XYZ=              4.0838
 Hexadecapole moment (field-independent basis, Debye-Ang**3):
 XXXX=           -800.1640 YYYY=           -294.9819 ZZZZ=           -118.9848 XXXY=            -35.8635
 XXXZ=              1.5757 YYYX=             -7.9541 YYYZ=             -3.4662 ZZZX=              4.6756
 ZZZY=             -1.8900 XXYY=           -164.6471 XXZZ=           -149.5863 YYZZ=            -75.6088
 XXYZ=            -11.7451 YYXZ=             -0.0155 ZZXY=             -2.7637
 N-N= 3.499956963427D+02 E-N=-1.595357603736D+03  KE= 3.808351076264D+02
  Exact polarizability:   0.000   0.000   0.000   0.000   0.000   0.000
 Approx polarizability: 191.767   1.451 132.265 -12.337  -0.643  86.353
                          Isotropic Fermi Contact Couplings
        Atom                 a.u.       MegaHertz       Gauss      10(-4) cm-1
     1  C(13)              0.01503      16.89998       6.03033       5.63723
     2  C(13)             -0.01797     -20.20564      -7.20987      -6.73988
     3  C(13)              0.01165      13.10071       4.67466       4.36993
     4  C(13)             -0.01487     -16.71263      -5.96348      -5.57473
     5  C(13)              0.01188      13.35307       4.76471       4.45410
     6  C(13)             -0.01838     -20.65976      -7.37192      -6.89135
     7  H(1)              -0.00440     -19.64992      -7.01158      -6.55451
     8  H(1)              -0.00425     -19.01836      -6.78622      -6.34384
     9  H(1)               0.00166       7.41192       2.64476       2.47235
    10  O(17)              0.07237     -43.87277     -15.65490     -14.63438
    11  H(1)               0.01341      59.94556      21.39007      19.99569
    12  O(17)              0.00618      -3.74727      -1.33712      -1.24996
    13  H(1)              -0.00094      -4.21298      -1.50329      -1.40530
    14  H(1)              -0.00541     -24.16585      -8.62297      -8.06086
    15  H(1)               0.00174       7.79842       2.78267       2.60127
 --------------------------------------------------------
       Center         ----  Spin Dipole Couplings  ----
                      3XX-RR        3YY-RR        3ZZ-RR
 --------------------------------------------------------
     1   Atom       -0.089975     -0.227160      0.317135
     2   Atom        0.037714      0.065975     -0.103689
     3   Atom       -0.092350     -0.169990      0.262340
     4   Atom        0.002892      0.046502     -0.049394
     5   Atom       -0.094152     -0.182913      0.277065
     6   Atom        0.043566      0.065777     -0.109343
     7   Atom       -0.001979      0.005321     -0.003342
     8   Atom       -0.015437      0.019742     -0.004305
     9   Atom        0.001208      0.003321     -0.004529
    10   Atom       -0.173970     -0.396795      0.570765
    11   Atom       -0.005492      0.000219      0.005274
    12   Atom        0.119411     -0.134076      0.014664
    13   Atom        0.000239      0.008612     -0.008851
    14   Atom        0.021453     -0.027537      0.006084
    15   Atom        0.004828     -0.000746     -0.004081
 --------------------------------------------------------
                        XY            XZ            YZ
 --------------------------------------------------------
     1   Atom        0.012583      0.258264      0.019618
     2   Atom        0.002618     -0.076698     -0.013928
     3   Atom        0.008462      0.200185      0.017688
     4   Atom       -0.007939     -0.060979     -0.008504
     5   Atom        0.005164      0.211627      0.023213
     6   Atom       -0.003935     -0.084988      0.000722
     7   Atom       -0.020588      0.004319      0.010652
     8   Atom        0.009742      0.008623     -0.006237
     9   Atom        0.004010     -0.003014     -0.002468
    10   Atom        0.454398      0.873616      0.701633
    11   Atom       -0.001831      0.001003     -0.001123
    12   Atom        0.102174      0.252986      0.033985
    13   Atom       -0.004584      0.005156     -0.007389
    14   Atom        0.010898     -0.009873     -0.004104
    15   Atom       -0.003059     -0.004666      0.001603
 --------------------------------------------------------


 ---------------------------------------------------------------------------------
              Anisotropic Spin Dipole Couplings in Principal Axis System
 ---------------------------------------------------------------------------------

       Atom             a.u.   MegaHertz   Gauss  10(-4) cm-1        Axes

              Baa    -0.2285   -30.667   -10.943   -10.229 -0.1977  0.9785  0.0584
     1 C(13)  Bbb    -0.2147   -28.809   -10.280    -9.610  0.8778  0.2033 -0.4338
              Bcc     0.4432    59.476    21.222    19.839  0.4363  0.0345  0.8991
 
              Baa    -0.1380   -18.515    -6.607    -6.176  0.3987  0.0574  0.9153
     2 C(13)  Bbb     0.0607     8.142     2.905     2.716 -0.5679  0.7991  0.1973
              Bcc     0.0773    10.373     3.701     3.460  0.7201  0.5985 -0.3512
 
              Baa    -0.1825   -24.485    -8.737    -8.167  0.9118 -0.0388 -0.4088
     3 C(13)  Bbb    -0.1707   -22.907    -8.174    -7.641  0.0201  0.9985 -0.0501
              Bcc     0.3532    47.392    16.911    15.808  0.4102  0.0374  0.9112
 
              Baa    -0.0906   -12.152    -4.336    -4.053  0.5495  0.0834  0.8313
     4 C(13)  Bbb     0.0424     5.684     2.028     1.896  0.7634  0.3541 -0.5402
              Bcc     0.0482     6.468     2.308     2.157 -0.3394  0.9315  0.1309
 
              Baa    -0.1927   -25.861    -9.228    -8.626  0.7894  0.4825 -0.3795
     5 C(13)  Bbb    -0.1812   -24.315    -8.676    -8.111 -0.4550  0.8749  0.1658
              Bcc     0.3739    50.176    17.904    16.737  0.4120  0.0418  0.9102
 
              Baa    -0.1472   -19.754    -7.049    -6.589  0.4070  0.0044  0.9134
     6 C(13)  Bbb     0.0649     8.705     3.106     2.904  0.2071  0.9735 -0.0970
              Bcc     0.0823    11.049     3.943     3.686  0.8896 -0.2286 -0.3953
 
              Baa    -0.0243   -12.968    -4.627    -4.326  0.6519  0.6133 -0.4460
     7 H(1)   Bbb     0.0005     0.293     0.105     0.098  0.4784  0.1236  0.8694
              Bcc     0.0238    12.674     4.523     4.228 -0.5884  0.7801  0.2129
 
              Baa    -0.0232   -12.397    -4.423    -4.135  0.8438 -0.2595 -0.4699
     8 H(1)   Bbb     0.0004     0.196     0.070     0.065  0.4937  0.0315  0.8691
              Bcc     0.0229    12.201     4.354     4.070  0.2107  0.9652 -0.1547
 
              Baa    -0.0059    -3.144    -1.122    -1.049  0.3387  0.1031  0.9352
     9 H(1)   Bbb    -0.0017    -0.914    -0.326    -0.305  0.7214 -0.6666 -0.1877
              Bcc     0.0076     4.058     1.448     1.354  0.6041  0.7382 -0.3002
 
              Baa    -0.7659    55.421    19.776    18.487  0.1640  0.8253 -0.5404
    10 O(17)  Bbb    -0.7479    54.114    19.309    18.051  0.8480 -0.3978 -0.3501
              Bcc     1.5138  -109.536   -39.085   -36.537  0.5039  0.4008  0.7651
 
              Baa    -0.0061    -3.237    -1.155    -1.080  0.9612  0.2696 -0.0584
    11 H(1)   Bbb     0.0004     0.204     0.073     0.068 -0.2455  0.9326  0.2645
              Bcc     0.0057     3.033     1.082     1.012  0.1257 -0.2399  0.9626
 
              Baa    -0.2148    15.543     5.546     5.185  0.6105 -0.5219 -0.5958
    12 O(17)  Bbb    -0.1318     9.536     3.403     3.181  0.1937  0.8278 -0.5266
              Bcc     0.3466   -25.080    -8.949    -8.366  0.7680  0.2061  0.6064
 
              Baa    -0.0125    -6.674    -2.382    -2.226 -0.2792  0.2625  0.9237
    13 H(1)   Bbb    -0.0016    -0.834    -0.298    -0.278  0.8673  0.4817  0.1253
              Bcc     0.0141     7.508     2.679     2.504 -0.4121  0.8361 -0.3622
 
              Baa    -0.0300   -15.988    -5.705    -5.333 -0.1964  0.9788  0.0577
    14 H(1)   Bbb     0.0013     0.690     0.246     0.230  0.4255  0.0321  0.9044
              Bcc     0.0287    15.298     5.459     5.103  0.8834  0.2021 -0.4228
 
              Baa    -0.0061    -3.252    -1.160    -1.085  0.3776 -0.0610  0.9239
    15 H(1)   Bbb    -0.0021    -1.100    -0.393    -0.367  0.3562  0.9306 -0.0842
              Bcc     0.0082     4.352     1.553     1.452  0.8547 -0.3609 -0.3732
 

 ---------------------------------------------------------------------------------

 Calling FoFJK, ICntrl=    100147 FMM=F ISym2X=0 I1Cent= 0 IOpClX= 1 NMat=1 NMatS=1 NMatT=0.
 ***** Axes restored to original set *****
 -------------------------------------------------------------------
 Center     Atomic                   Forces (Hartrees/Bohr)
 Number     Number              X              Y              Z
 -------------------------------------------------------------------
      1        6          -0.000003207   -0.000001773    0.000000400
      2        6           0.000005476   -0.000000887   -0.000001984
      3        6          -0.000005833    0.000004452    0.000000740
      4        6          -0.004620786   -0.000871516   -0.004898256
      5        6          -0.000005224   -0.000006560    0.000004676
      6        6           0.000005201    0.000003367   -0.000002701
      7        1           0.000000923    0.000001676   -0.000000206
      8        1           0.000001294   -0.000002057   -0.000000114
      9        1          -0.000000399    0.000000320   -0.000000753
     10        8           0.004611358    0.000878794    0.004902184
     11        1          -0.000000218    0.000000020    0.000002032
     12        8           0.000010187   -0.000005081   -0.000005766
     13        1           0.000000469    0.000000543    0.000001705
     14        1           0.000000673   -0.000000299   -0.000000730
     15        1           0.000000088   -0.000001000   -0.000001226
 -------------------------------------------------------------------
 Cartesian Forces:  Max     0.004902184 RMS     0.001431183
 FormGI is forming the generalized inverse of G from B-inverse, IUseBI=4.

 GradGradGradGradGradGradGradGradGradGradGradGradGradGradGradGradGradGrad
 Berny optimization.
 Internal  Forces:  Max     0.006789600 RMS     0.000811515
 Search for a saddle point.
 Step number   1 out of a maximum of   80
 All quantities printed in internal units (Hartrees-Bohrs-Radians)
 Swapping is turned off.
 Second derivative matrix not updated -- analytic derivatives used.
 ITU=  0
     Eigenvalues ---   -0.05702   0.00350   0.00709   0.01270   0.01555
     Eigenvalues ---    0.01682   0.01725   0.01977   0.02282   0.02459
     Eigenvalues ---    0.02640   0.04687   0.05725   0.07527   0.08637
     Eigenvalues ---    0.10767   0.11020   0.11605   0.12390   0.12574
     Eigenvalues ---    0.16945   0.17296   0.18398   0.19417   0.20337
     Eigenvalues ---    0.26989   0.32388   0.33869   0.34878   0.35073
     Eigenvalues ---    0.35618   0.35674   0.35924   0.36054   0.36221
     Eigenvalues ---    0.39991   0.43858   0.49897   0.51527
 Eigenvectors required to have negative eigenvalues:
                          R9        D24       D18       D15       D23
   1                   -0.88569  -0.16721   0.16468   0.16377  -0.16242
                          A15       R8        R6        R14       A13
   1                    0.13903   0.13137   0.12728   0.12055   0.06258
 RFO step:  Lambda0=6.267928529D-04 Lambda=-1.81071933D-04.
 Linear search not attempted -- option 19 set.
 Iteration  1 RMS(Cart)=  0.01659793 RMS(Int)=  0.00022572
 Iteration  2 RMS(Cart)=  0.00021069 RMS(Int)=  0.00010022
 Iteration  3 RMS(Cart)=  0.00000003 RMS(Int)=  0.00010022
 Variable       Old X    -DE/DX   Delta X   Delta X   Delta X     New X
                                 (Linear)    (Quad)   (Total)
    R1        2.65679  -0.00000   0.00000  -0.00287  -0.00293   2.65387
    R2        2.64993  -0.00000   0.00000  -0.00369  -0.00375   2.64618
    R3        2.04323   0.00000   0.00000   0.00019   0.00019   2.04342
    R4        2.58795   0.00000   0.00000   0.00377   0.00377   2.59172
    R5        2.04493  -0.00000   0.00000  -0.00009  -0.00009   2.04484
    R6        2.73291  -0.00000   0.00000  -0.01344  -0.01338   2.71953
    R7        2.04248   0.00000   0.00000   0.00006   0.00006   2.04254
    R8        2.73091  -0.00000   0.00000  -0.01360  -0.01354   2.71737
    R9        3.32728  -0.00679   0.00000   0.06567   0.06567   3.39295
   R10        2.04692   0.00000   0.00000  -0.00235  -0.00235   2.04457
   R11        2.59317   0.00001   0.00000   0.00444   0.00444   2.59761
   R12        2.04407   0.00000   0.00000   0.00016   0.00016   2.04423
   R13        2.04494  -0.00000   0.00000  -0.00011  -0.00011   2.04482
   R14        2.68127  -0.00001   0.00000  -0.01246  -0.01246   2.66881
   R15        1.82770   0.00000   0.00000   0.00061   0.00061   1.82831
    A1        2.09447   0.00000   0.00000   0.00007   0.00002   2.09450
    A2        2.09347  -0.00000   0.00000  -0.00010  -0.00008   2.09339
    A3        2.09503  -0.00000   0.00000   0.00002   0.00004   2.09507
    A4        2.10630  -0.00000   0.00000  -0.00148  -0.00147   2.10483
    A5        2.08436   0.00000   0.00000   0.00102   0.00102   2.08538
    A6        2.09233   0.00000   0.00000   0.00044   0.00044   2.09277
    A7        2.10675   0.00000   0.00000  -0.00214  -0.00202   2.10473
    A8        2.10950  -0.00000   0.00000  -0.00139  -0.00145   2.10806
    A9        2.06534   0.00000   0.00000   0.00344   0.00338   2.06872
   A10        2.03439  -0.00000   0.00000   0.00656   0.00635   2.04074
   A11        1.78303  -0.00000   0.00000  -0.00774  -0.00769   1.77534
   A12        2.03539   0.00000   0.00000   0.01102   0.01053   2.04592
   A13        1.84129   0.00000   0.00000  -0.01380  -0.01376   1.82753
   A14        2.03590  -0.00000   0.00000   0.01152   0.01099   2.04690
   A15        1.64846  -0.00000   0.00000  -0.02568  -0.02556   1.62290
   A16        2.11046   0.00000   0.00000  -0.00194  -0.00182   2.10865
   A17        2.06622   0.00000   0.00000   0.00333   0.00328   2.06950
   A18        2.10535  -0.00000   0.00000  -0.00144  -0.00151   2.10384
   A19        2.10216  -0.00000   0.00000  -0.00171  -0.00170   2.10046
   A20        2.08700  -0.00000   0.00000   0.00133   0.00132   2.08832
   A21        2.09391   0.00000   0.00000   0.00037   0.00037   2.09428
   A22        1.88904   0.00000   0.00000   0.00708   0.00708   1.89612
   A23        1.78274  -0.00000   0.00000   0.00446   0.00446   1.78720
    D1        0.02566  -0.00000   0.00000  -0.00057  -0.00058   0.02508
    D2       -3.09480   0.00000   0.00000   0.00021   0.00019  -3.09460
    D3       -3.13788  -0.00000   0.00000  -0.00141  -0.00141  -3.13929
    D4        0.02485  -0.00000   0.00000  -0.00063  -0.00063   0.02422
    D5       -0.02480  -0.00000   0.00000  -0.00032  -0.00031  -0.02511
    D6        3.10007   0.00000   0.00000  -0.00072  -0.00070   3.09937
    D7        3.13876   0.00000   0.00000   0.00052   0.00052   3.13928
    D8       -0.01956   0.00000   0.00000   0.00012   0.00013  -0.01943
    D9        0.07040   0.00000   0.00000   0.00294   0.00292   0.07332
   D10       -3.13279   0.00000   0.00000   0.00132   0.00131  -3.13147
   D11       -3.09243   0.00000   0.00000   0.00216   0.00215  -3.09028
   D12       -0.01243   0.00000   0.00000   0.00054   0.00054  -0.01189
   D13       -0.15954  -0.00000   0.00000  -0.00514  -0.00509  -0.16463
   D14        1.83736   0.00000   0.00000  -0.02381  -0.02378   1.81357
   D15       -2.67697   0.00000   0.00000  -0.05445  -0.05453  -2.73150
   D16        3.04212  -0.00000   0.00000  -0.00340  -0.00335   3.03877
   D17       -1.24417   0.00000   0.00000  -0.02207  -0.02205  -1.26622
   D18        0.52469   0.00000   0.00000  -0.05271  -0.05280   0.47189
   D19        0.16070  -0.00000   0.00000   0.00428   0.00422   0.16493
   D20       -3.03218  -0.00000   0.00000   0.00320   0.00315  -3.02903
   D21       -1.80316   0.00000   0.00000   0.01951   0.01948  -1.78367
   D22        1.28715   0.00000   0.00000   0.01843   0.01841   1.30555
   D23        2.67794  -0.00000   0.00000   0.05342   0.05353   2.73148
   D24       -0.51494  -0.00000   0.00000   0.05235   0.05246  -0.46248
   D25        2.81486   0.00000   0.00000  -0.00152  -0.00155   2.81331
   D26       -1.33368   0.00000   0.00000  -0.00368  -0.00371  -1.33739
   D27        0.74740   0.00000   0.00000  -0.00405  -0.00399   0.74341
   D28       -0.07223   0.00000   0.00000  -0.00120  -0.00117  -0.07340
   D29        3.08616  -0.00000   0.00000  -0.00081  -0.00079   3.08537
   D30        3.12180   0.00000   0.00000  -0.00023  -0.00021   3.12159
   D31       -0.00300  -0.00000   0.00000   0.00016   0.00017  -0.00283
   D32        1.75174  -0.00000   0.00000  -0.01529  -0.01529   1.73645
         Item               Value     Threshold  Converged?
 Maximum Force            0.006790     0.000450     NO 
 RMS     Force            0.000812     0.000300     NO 
 Maximum Displacement     0.056995     0.001800     NO 
 RMS     Displacement     0.016646     0.001200     NO 
 Predicted change in Energy= 2.254702D-04
 GradGradGradGradGradGradGradGradGradGradGradGradGradGradGradGradGradGrad

                          Input orientation:                          
 ---------------------------------------------------------------------
 Center     Atomic      Atomic             Coordinates (Angstroms)
 Number     Number       Type             X           Y           Z
 ---------------------------------------------------------------------
      1          6           0        2.128092    0.316031   -0.431394
      2          6           0        1.754374   -1.014814   -0.183546
      3          6           0        0.550176   -1.303539    0.405942
      4          6           0       -0.391449   -0.255620    0.699639
      5          6           0        0.070161    1.097241    0.543297
      6          6           0        1.281720    1.363922   -0.048750
      7          1           0       -0.577973    1.904568    0.856900
      8          1           0        0.263570   -2.326225    0.606547
      9          1           0        2.433950   -1.815942   -0.442915
     10          8           0       -1.603302   -0.477651   -0.606435
     11          1           0       -1.115335   -0.445390    1.481031
     12          8           0       -2.799362    0.170638   -0.227389
     13          1           0       -2.745981    1.005670   -0.713112
     14          1           0        3.079137    0.531481   -0.898694
     15          1           0        1.592732    2.388211   -0.206820
 ---------------------------------------------------------------------
                    Distance matrix (angstroms):
                    1          2          3          4          5
     1  C    0.000000
     2  C    1.404366   0.000000
     3  C    2.411215   1.371477   0.000000
     4  C    2.820303   2.441505   1.439114   0.000000
     5  C    2.407362   2.797436   2.452147   1.437970   0.000000
     6  C    1.400299   2.428983   2.803078   2.445914   1.374596
     7  H    3.392041   3.878809   3.430457   2.173921   1.081759
     8  H    3.396363   2.136947   1.080867   2.173735   3.429508
     9  H    2.153832   1.082082   2.128784   3.423874   3.879014
    10  O    3.818884   3.426568   2.518822   1.795471   2.569562
    11  H    3.841478   3.366050   2.160131   1.081942   2.159735
    12  O    4.933819   4.705713   3.713989   2.615172   3.112348
    13  H    4.930675   4.961451   4.177245   3.021678   3.085062
    14  H    1.081329   2.158115   3.386003   3.901174   3.384280
    15  H    2.151970   3.406942   3.884767   3.427606   2.132487
                    6          7          8          9         10
     6  C    0.000000
     7  H    2.137979   0.000000
     8  H    3.883713   4.320935   0.000000
     9  H    3.405075   4.960181   2.464206   0.000000
    10  O    3.467817   2.977854   2.893745   4.256427   0.000000
    11  H    3.370417   2.490101   2.490712   4.263497   2.143984
    12  O    4.255710   3.019398   4.038729   5.601831   1.412273
    13  H    4.097816   2.823688   4.679789   5.904760   1.875456
    14  H    2.155474   4.282747   4.284816   2.476771   4.798854
    15  H    1.082073   2.465232   4.965294   4.293983   4.311321
                   11         12         13         14         15
    11  H    0.000000
    12  O    2.476719   0.000000
    13  H    3.094971   0.967500   0.000000
    14  H    4.920463   5.927698   5.847332   0.000000
    15  H    4.267524   4.920218   4.581723   2.477001   0.000000
 Stoichiometry    C6H7O2(2)
 Framework group  C1[X(C6H7O2)]
 Deg. of freedom    39
 Full point group                 C1      NOp   1
 Largest Abelian subgroup         C1      NOp   1
 Largest concise Abelian subgroup C1      NOp   1
                         Standard orientation:                         
 ---------------------------------------------------------------------
 Center     Atomic      Atomic             Coordinates (Angstroms)
 Number     Number       Type             X           Y           Z
 ---------------------------------------------------------------------
      1          6           0        2.124597    0.317840   -0.440219
      2          6           0        1.752766   -1.013690   -0.193212
      3          6           0        0.551706   -1.304202    0.401776
      4          6           0       -0.388911   -0.257340    0.702389
      5          6           0        0.071264    1.096060    0.546488
      6          6           0        1.279682    1.364537   -0.051141
      7          1           0       -0.575652    1.902431    0.865027
      8          1           0        0.266602   -2.327435    0.601730
      9          1           0        2.431396   -1.813958   -0.457664
     10          8           0       -1.607263   -0.477276   -0.597980
     11          1           0       -1.108739   -0.449059    1.487049
     12          8           0       -2.801691    0.169660   -0.211549
     13          1           0       -2.751165    1.005712   -0.695822
     14          1           0        3.073159    0.534705   -0.911887
     15          1           0        1.589407    2.389297   -0.208682
 ---------------------------------------------------------------------
 Rotational constants (GHZ):           4.1839849           1.5044254           1.2457720
 Standard basis: CC-pVTZ+d (5D, 7F)
 There are   385 symmetry adapted cartesian basis functions of A   symmetry.
 There are   338 symmetry adapted basis functions of A   symmetry.
   338 basis functions,   535 primitive gaussians,   385 cartesian basis functions
    30 alpha electrons       29 beta electrons
       nuclear repulsion energy       349.7781144240 Hartrees.
 NAtoms=   15 NActive=   15 NUniq=   15 SFac= 1.00D+00 NAtFMM=   60 NAOKFM=F Big=F
 Integral buffers will be    131072 words long.
 Raffenetti 2 integral format.
 Two-electron integral symmetry is turned on.
 One-electron integrals computed using PRISM.
 NBasis=   338 RedAO= T EigKep=  5.25D-05  NBF=   338
 NBsUse=   338 1.00D-06 EigRej= -1.00D+00 NBFU=   338
 Initial guess from the checkpoint file:  "QOOH-OOH-Elim-ortho-TS-b3lyp.chk"
 B after Tr=    -0.000000   -0.000000   -0.000000
         Rot=    0.999999   -0.001082   -0.000979   -0.000325 Ang=  -0.17 deg.
 Initial guess <Sx>= 0.0000 <Sy>= 0.0000 <Sz>= 0.5000 <S**2>= 0.7886 S= 0.5191
 ExpMin= 1.03D-01 ExpMax= 1.53D+04 ExpMxC= 5.22D+02 IAcc=3 IRadAn=         5 AccDes= 0.00D+00
 Harris functional with IExCor=  402 and IRadAn=       5 diagonalized for initial guess.
 HarFok:  IExCor=  402 AccDes= 0.00D+00 IRadAn=         5 IDoV= 1 UseB2=F ITyADJ=14
 ICtDFT=  3500011 ScaDFX=  1.000000  1.000000  1.000000  1.000000
 FoFCou: FMM=F IPFlag=           0 FMFlag=      100000 FMFlg1=           0
         NFxFlg=           0 DoJE=T BraDBF=F KetDBF=T FulRan=T
         wScrn=  0.000000 ICntrl=       500 IOpCl=  0 I1Cent=   200000004 NGrid=           0
         NMat0=    1 NMatS0=      1 NMatT0=    0 NMatD0=    1 NMtDS0=    0 NMtDT0=    0
 Petite list used in FoFCou.
 Requested convergence on RMS density matrix=1.00D-08 within 128 cycles.
 Requested convergence on MAX density matrix=1.00D-06.
 Requested convergence on             energy=1.00D-06.
 No special actions if energy rises.
 Integral accuracy reduced to 1.0D-05 until final iterations.
 Initial convergence to 1.0D-05 achieved.  Increase integral accuracy.
 SCF Done:  E(UB3LYP) =  -383.272386136     A.U. after   16 cycles
            NFock= 16  Conv=0.54D-08     -V/T= 2.0063
 <Sx>= 0.0000 <Sy>= 0.0000 <Sz>= 0.5000 <S**2>= 0.7883 S= 0.5190
 <L.S>= 0.000000000000E+00
 Annihilation of the first spin contaminant:
 S**2 before annihilation     0.7883,   after     0.7510
 Calling FoFJK, ICntrl=      2127 FMM=F ISym2X=0 I1Cent= 0 IOpClX= 1 NMat=1 NMatS=1 NMatT=0.
 ***** Axes restored to original set *****
 -------------------------------------------------------------------
 Center     Atomic                   Forces (Hartrees/Bohr)
 Number     Number              X              Y              Z
 -------------------------------------------------------------------
      1        6           0.000026519   -0.000020272   -0.000018902
      2        6           0.000046553    0.000015883    0.000019486
      3        6          -0.000059266   -0.000048077   -0.000050060
      4        6           0.000141677    0.000001923    0.000091709
      5        6          -0.000047654    0.000048311   -0.000052974
      6        6           0.000007358    0.000014649    0.000034654
      7        1          -0.000003863    0.000008428   -0.000003172
      8        1          -0.000006844   -0.000008165   -0.000007739
      9        1           0.000001497   -0.000003121    0.000003262
     10        8          -0.000152046    0.000052127   -0.000006257
     11        1          -0.000013296   -0.000012395    0.000045462
     12        8           0.000065243   -0.000068660   -0.000020822
     13        1          -0.000005878    0.000016269   -0.000032503
     14        1          -0.000001915   -0.000000791   -0.000006654
     15        1           0.000001915    0.000003890    0.000004510
 -------------------------------------------------------------------
 Cartesian Forces:  Max     0.000152046 RMS     0.000044567

 GradGradGradGradGradGradGradGradGradGradGradGradGradGradGradGradGradGrad
 Berny optimization.
 FormGI is forming the generalized inverse of G from B-inverse, IUseBI=4.
 Internal  Forces:  Max     0.000106987 RMS     0.000025907
 Search for a saddle point.
 Step number   2 out of a maximum of   80
 All quantities printed in internal units (Hartrees-Bohrs-Radians)
 Swapping is turned off.
 Update second derivatives using D2CorX and points    1    2
 ITU=  0  0
     Eigenvalues ---   -0.05862   0.00351   0.00770   0.01270   0.01557
     Eigenvalues ---    0.01682   0.01727   0.01977   0.02282   0.02459
     Eigenvalues ---    0.02640   0.04693   0.05739   0.07523   0.08635
     Eigenvalues ---    0.10767   0.11020   0.11604   0.12390   0.12574
     Eigenvalues ---    0.16935   0.17295   0.18398   0.19417   0.20333
     Eigenvalues ---    0.26988   0.32387   0.33867   0.34878   0.35072
     Eigenvalues ---    0.35618   0.35674   0.35924   0.36054   0.36220
     Eigenvalues ---    0.39990   0.43858   0.49896   0.51525
 Eigenvectors required to have negative eigenvalues:
                          R9        D24       D18       D15       D23
   1                   -0.88558  -0.16876   0.16594   0.16411  -0.16295
                          A15       R8        R6        R14       A13
   1                    0.13754   0.13012   0.12632   0.12206   0.06189
 RFO step:  Lambda0=1.775281149D-07 Lambda=-6.55682048D-07.
 Linear search not attempted -- option 19 set.
 Iteration  1 RMS(Cart)=  0.00114437 RMS(Int)=  0.00000133
 Iteration  2 RMS(Cart)=  0.00000135 RMS(Int)=  0.00000013
 Iteration  3 RMS(Cart)=  0.00000000 RMS(Int)=  0.00000013
 Variable       Old X    -DE/DX   Delta X   Delta X   Delta X     New X
                                 (Linear)    (Quad)   (Total)
    R1        2.65387   0.00001   0.00000   0.00002   0.00003   2.65389
    R2        2.64618   0.00004   0.00000   0.00014   0.00014   2.64633
    R3        2.04342   0.00000   0.00000  -0.00000  -0.00000   2.04341
    R4        2.59172   0.00004   0.00000   0.00003   0.00003   2.59175
    R5        2.04484   0.00000   0.00000   0.00001   0.00001   2.04485
    R6        2.71953   0.00002   0.00000   0.00021   0.00021   2.71974
    R7        2.04254   0.00001   0.00000   0.00001   0.00001   2.04256
    R8        2.71737   0.00004   0.00000   0.00023   0.00023   2.71760
    R9        3.39295   0.00011   0.00000  -0.00072  -0.00072   3.39223
   R10        2.04457   0.00004   0.00000   0.00019   0.00019   2.04476
   R11        2.59761   0.00002   0.00000  -0.00004  -0.00004   2.59757
   R12        2.04423   0.00001   0.00000   0.00001   0.00001   2.04423
   R13        2.04482   0.00000   0.00000   0.00001   0.00001   2.04484
   R14        2.66881  -0.00009   0.00000  -0.00015  -0.00015   2.66866
   R15        1.82831   0.00003   0.00000   0.00004   0.00004   1.82835
    A1        2.09450   0.00000   0.00000  -0.00001  -0.00001   2.09449
    A2        2.09339  -0.00000   0.00000   0.00002   0.00002   2.09341
    A3        2.09507  -0.00000   0.00000  -0.00000  -0.00000   2.09507
    A4        2.10483   0.00000   0.00000   0.00007   0.00007   2.10490
    A5        2.08538   0.00000   0.00000  -0.00000  -0.00000   2.08538
    A6        2.09277  -0.00000   0.00000  -0.00006  -0.00006   2.09271
    A7        2.10473  -0.00001   0.00000   0.00004   0.00004   2.10478
    A8        2.10806   0.00001   0.00000   0.00006   0.00006   2.10812
    A9        2.06872   0.00001   0.00000  -0.00007  -0.00007   2.06865
   A10        2.04074   0.00002   0.00000   0.00010   0.00010   2.04084
   A11        1.77534  -0.00002   0.00000  -0.00010  -0.00010   1.77524
   A12        2.04592  -0.00001   0.00000  -0.00023  -0.00023   2.04568
   A13        1.82753   0.00000   0.00000   0.00039   0.00039   1.82792
   A14        2.04690  -0.00000   0.00000  -0.00016  -0.00016   2.04673
   A15        1.62290   0.00000   0.00000   0.00022   0.00022   1.62312
   A16        2.10865  -0.00002   0.00000   0.00002   0.00002   2.10866
   A17        2.06950   0.00001   0.00000  -0.00005  -0.00005   2.06945
   A18        2.10384   0.00000   0.00000   0.00007   0.00007   2.10391
   A19        2.10046   0.00001   0.00000   0.00009   0.00009   2.10055
   A20        2.08832  -0.00000   0.00000  -0.00004  -0.00004   2.08828
   A21        2.09428  -0.00001   0.00000  -0.00005  -0.00005   2.09423
   A22        1.89612   0.00011   0.00000   0.00040   0.00040   1.89651
   A23        1.78720  -0.00001   0.00000  -0.00006  -0.00006   1.78714
    D1        0.02508  -0.00000   0.00000  -0.00020  -0.00020   0.02488
    D2       -3.09460  -0.00000   0.00000  -0.00050  -0.00050  -3.09510
    D3       -3.13929   0.00000   0.00000   0.00014   0.00014  -3.13915
    D4        0.02422   0.00000   0.00000  -0.00016  -0.00016   0.02406
    D5       -0.02511  -0.00000   0.00000   0.00026   0.00026  -0.02485
    D6        3.09937   0.00000   0.00000   0.00045   0.00045   3.09982
    D7        3.13928  -0.00000   0.00000  -0.00008  -0.00008   3.13920
    D8       -0.01943  -0.00000   0.00000   0.00010   0.00010  -0.01932
    D9        0.07332  -0.00001   0.00000  -0.00101  -0.00101   0.07231
   D10       -3.13147  -0.00000   0.00000  -0.00027  -0.00027  -3.13175
   D11       -3.09028  -0.00001   0.00000  -0.00071  -0.00071  -3.09099
   D12       -0.01189   0.00000   0.00000   0.00003   0.00003  -0.01186
   D13       -0.16463   0.00003   0.00000   0.00207   0.00207  -0.16256
   D14        1.81357   0.00002   0.00000   0.00251   0.00251   1.81608
   D15       -2.73150   0.00001   0.00000   0.00264   0.00264  -2.72887
   D16        3.03877   0.00001   0.00000   0.00135   0.00135   3.04011
   D17       -1.26622   0.00001   0.00000   0.00179   0.00179  -1.26443
   D18        0.47189  -0.00000   0.00000   0.00191   0.00191   0.47380
   D19        0.16493  -0.00003   0.00000  -0.00202  -0.00202   0.16291
   D20       -3.02903  -0.00001   0.00000  -0.00121  -0.00121  -3.03024
   D21       -1.78367  -0.00001   0.00000  -0.00219  -0.00219  -1.78586
   D22        1.30555   0.00000   0.00000  -0.00138  -0.00138   1.30417
   D23        2.73148  -0.00002   0.00000  -0.00261  -0.00261   2.72887
   D24       -0.46248  -0.00000   0.00000  -0.00180  -0.00180  -0.46428
   D25        2.81331  -0.00000   0.00000   0.00105   0.00105   2.81436
   D26       -1.33739   0.00001   0.00000   0.00127   0.00127  -1.33612
   D27        0.74341   0.00001   0.00000   0.00125   0.00125   0.74466
   D28       -0.07340   0.00002   0.00000   0.00089   0.00089  -0.07251
   D29        3.08537   0.00001   0.00000   0.00071   0.00071   3.08607
   D30        3.12159   0.00000   0.00000   0.00007   0.00007   3.12166
   D31       -0.00283  -0.00000   0.00000  -0.00011  -0.00011  -0.00295
   D32        1.73645   0.00004   0.00000   0.00204   0.00204   1.73849
         Item               Value     Threshold  Converged?
 Maximum Force            0.000107     0.000450     YES
 RMS     Force            0.000026     0.000300     YES
 Maximum Displacement     0.003370     0.001800     NO 
 RMS     Displacement     0.001144     0.001200     YES
 Predicted change in Energy=-2.390764D-07
 GradGradGradGradGradGradGradGradGradGradGradGradGradGradGradGradGradGrad

                          Input orientation:                          
 ---------------------------------------------------------------------
 Center     Atomic      Atomic             Coordinates (Angstroms)
 Number     Number       Type             X           Y           Z
 ---------------------------------------------------------------------
      1          6           0        2.128789    0.316059   -0.430726
      2          6           0        1.754654   -1.014808   -0.183551
      3          6           0        0.549947   -1.303596    0.404906
      4          6           0       -0.391397   -0.255486    0.699362
      5          6           0        0.070082    1.097482    0.542428
      6          6           0        1.282123    1.364020   -0.048643
      7          1           0       -0.578270    1.904838    0.855515
[...]
 ! D26   D(5,4,10,12)          -76.5541         -DE/DX =    0.0                 !
 ! D27   D(11,4,10,12)          42.666          -DE/DX =    0.0                 !
 ! D28   D(4,5,6,1)             -4.1544         -DE/DX =    0.0                 !
 ! D29   D(4,5,6,15)           176.8189         -DE/DX =    0.0                 !
 ! D30   D(7,5,6,1)            178.858          -DE/DX =    0.0                 !
 ! D31   D(7,5,6,15)            -0.1688         -DE/DX =    0.0                 !
 ! D32   D(4,10,12,13)          99.608          -DE/DX =    0.0                 !
 --------------------------------------------------------------------------------
 GradGradGradGradGradGradGradGradGradGradGradGradGradGradGradGradGradGrad


 ----------------------------------------------------------------------

 Electric dipole moment (input orientation):
 (Debye = 10**-18 statcoulomb cm , SI units = C m)
                  (au)            (Debye)         (10**-30 SI)
   Tot        0.897089D+00      0.228017D+01      0.760584D+01
   x          0.649559D+00      0.165102D+01      0.550719D+01
   y          0.609036D+00      0.154801D+01      0.516362D+01
   z          0.109165D+00      0.277470D+00      0.925541D+00

 Dipole polarizability, Alpha (input orientation).
 (esu units = cm**3 , SI units = C**2 m**2 J**-1)
 Alpha(0;0):
               (au)            (10**-24 esu)      (10**-40 SI)
   iso        0.856789D+02      0.126963D+02      0.141266D+02
   aniso      0.596743D+02      0.884282D+01      0.983897D+01
   xx         0.120928D+03      0.179196D+02      0.199383D+02
   yx        -0.147582D+01     -0.218695D+00     -0.243331D+00
   yy         0.830457D+02      0.123061D+02      0.136924D+02
   zx        -0.518460D+01     -0.768279D+00     -0.854826D+00
   zy        -0.117197D+01     -0.173668D+00     -0.193231D+00
   zz         0.530636D+02      0.786322D+01      0.874901D+01

 ----------------------------------------------------------------------

 Dipole orientation:
     6          2.47014747         -0.85854814          3.21926391
     6          2.85756539         -2.34737082          1.05675232
     6          1.07905749         -2.42611438         -0.82682798
     6         -1.13927874         -0.85751168         -0.70250011
     6         -1.58056771          0.46780403          1.62863101
     6          0.22732481          0.51906013          3.49310147
     1         -3.33012861          1.50184651          1.84927325
     1          1.36368236         -3.58332429         -2.48571058
     1          4.55982821         -3.46935304          0.89906680
     8         -0.39121622          1.57251162         -2.94807487
     1         -2.78047597         -1.47403489         -1.75484535
     8         -2.65074875          2.79907845         -3.66346209
     1         -2.61988299          4.31002920         -2.63440732
     1          3.88770910         -0.80799569          4.69014597
     1         -0.09170040          1.60423110          5.19662288

 Electric dipole moment (dipole orientation):
 (Debye = 10**-18 statcoulomb cm , SI units = C m)
                  (au)            (Debye)         (10**-30 SI)
   Tot        0.897089D+00      0.228017D+01      0.760584D+01
   x          0.000000D+00      0.000000D+00      0.000000D+00
   y          0.000000D+00      0.000000D+00      0.000000D+00
   z          0.897089D+00      0.228017D+01      0.760584D+01

 Dipole polarizability, Alpha (dipole orientation).
 (esu units = cm**3 , SI units = C**2 m**2 J**-1)
 Alpha(0;0):
               (au)            (10**-24 esu)      (10**-40 SI)
   iso        0.856789D+02      0.126963D+02      0.141266D+02
   aniso      0.596743D+02      0.884282D+01      0.983897D+01
   xx         0.820159D+02      0.121535D+02      0.135226D+02
   yx        -0.239462D+02     -0.354846D+01     -0.394819D+01
   yy         0.751166D+02      0.111311D+02      0.123851D+02
   zx         0.202059D+02      0.299420D+01      0.333150D+01
   zy        -0.645296D+01     -0.956230D+00     -0.106395D+01
   zz         0.999043D+02      0.148043D+02      0.164720D+02

 ----------------------------------------------------------------------
 1\1\GINC-CNODE1182\Freq\UB3LYP\CC-pVTZ+d\C6H7O2(2)\KOTUKILE\30-Jul-202
 2\0\\#N Geom=AllCheck Guess=TCheck SCRF=Check GenChk UB3LYP/CC-pVTZ+d 
 Freq\\QOOH-OOH-Elim-ortho-TS-b3lyp\\0,2\C,2.1287888962,0.3160594892,-0
 .4307262011\C,1.7546541033,-1.0148080101,-0.1835511644\C,0.5499473429,
 -1.3035955421,0.404905574\C,-0.3913974283,-0.2554864274,0.6993623208\C
 ,0.0700823266,1.097481571,0.5424283336\C,1.2821231636,1.3640203113,-0.
 0486429656\H,-0.5782704253,1.9048375592,0.8555153022\H,0.2629097992,-2
 .3263153985,0.6047631524\H,2.4341933685,-1.8159912257,-0.4428679634\O,
 -1.6045356175,-0.4781894748,-0.6048799793\H,-1.1141894094,-0.445133511
 1,1.4819360841\O,-2.799917884,0.171173196,-0.2258318126\H,-2.747326800
 4,1.0047295391,-0.7142162416\H,3.0801746083,0.531500139,-0.8973290283\
 H,1.5932759564,2.3882977849,-0.2065644106\\Version=ES64L-G16RevB.01\St
 ate=2-A\HF=-383.2723864\S2=0.788353\S2-1=0.\S2A=0.751033\RMSD=6.206e-0
 9\RMSF=1.746e-06\ZeroPoint=0.1155812\Thermal=0.1228984\Dipole=0.649559
 4,0.6090356,0.1091651\DipoleDeriv=0.1223308,0.0190966,-0.0983117,-0.00
 74704,0.0584602,-0.0213,-0.1211766,-0.0168017,-0.0596272,-0.0991043,-0
 .1737002,-0.0653328,-0.2707422,-0.0020103,-0.0086437,0.0558429,0.05852
 92,-0.0675963,0.179021,0.0925245,0.0135215,-0.077463,0.0800822,-0.1342
 12,-0.1673529,0.0243769,-0.2060604,-0.3974855,0.0327107,-0.2478318,-0.
 0419445,-0.026691,-0.0520185,-0.3809418,-0.0445955,0.0883857,0.2514727
 ,-0.0417837,-0.0285809,0.2289081,0.0016011,0.1677165,-0.1108256,0.0109
 061,-0.1916479,-0.3154872,0.1003934,-0.0674258,0.178796,0.1037165,0.00
 55094,0.1324818,-0.0372795,-0.0711169,0.0124758,0.0741939,0.051993,0.0
 452308,-0.0224826,-0.0360483,0.0197861,-0.0179327,0.0971149,0.056056,-
 0.0343456,0.0287679,-0.0138185,-0.0586262,0.0350483,0.0079694,0.009578
 6,0.1066559,0.0048944,0.0786367,0.0460153,0.0890469,-0.0260476,-0.0253
 581,0.0508627,-0.0260134,0.1137836,0.9873665,-0.0375635,0.3580276,-0.6
 547782,-0.1431159,-0.0676811,-0.0206321,0.0126383,-0.1632096,0.0537312
 ,-0.0127928,0.1018199,0.0160813,0.0683866,0.0159918,0.1159775,0.017324
 ,0.0485264,-1.1196959,0.0080444,-0.256184,0.6695538,-0.1570397,0.03726
 16,0.165729,-0.091733,-0.1592214,0.2584226,-0.037656,0.0530638,-0.0743
 79,0.1558039,0.0468545,0.147669,0.063386,0.2611192,-0.0510746,-0.02632
 46,0.0810793,-0.0285944,0.0565832,0.0152182,0.0716837,0.0147939,0.0838
 107,0.0570766,-0.0414336,0.0293788,-0.0584269,-0.0886203,0.0216614,0.0
 329269,0.0228228,0.1190831\Polar=120.9275075,-1.4758241,83.0457008,-5.
 1846048,-1.171968,53.0636343\Quadrupole=-1.1761781,3.0680035,-1.891825
 3,-3.529772,-1.4737584,-1.5910136\PG=C01 [X(C6H7O2)]\NImag=1\\0.599849
 32,0.01155246,0.59518943,-0.23062245,-0.02436817,0.24048811,-0.1236173
 9,0.00879966,0.02872666,0.59821628,-0.06565849,-0.26717070,0.04208927,
 -0.06758446,0.65627414,0.03309273,0.00715184,-0.07675551,-0.21239692,-
 0.00008190,0.22817747,-0.00877984,-0.07762450,0.01241030,-0.29771314,-
 0.00424485,0.11086658,0.58103983,-0.03145917,-0.00495652,0.01606242,-0
 .06336803,-0.13557060,0.03664506,0.04737335,0.67123046,0.01001449,0.03
 941090,0.00105806,0.11304595,0.00690824,-0.11075558,-0.19603091,-0.068
 28562,0.23216145,0.01182485,0.00859059,-0.01102774,-0.04785951,-0.0018
 2207,0.02733501,-0.11667219,0.05502927,0.02725218,0.35047590,0.0089291
 8,-0.03030844,-0.00321229,0.02089009,0.02945738,-0.01435148,0.07182832
 ,-0.20480784,-0.01062430,-0.03016584,0.56743037,0.00541617,-0.00312507
 ,-0.01258222,0.00792661,-0.02088266,0.00901847,0.06918641,-0.04574911,
 -0.09380624,-0.33722730,-0.04620509,0.30136355,-0.04726327,0.06039766,
 0.02554806,-0.02392567,-0.02424398,0.00996886,0.02851609,0.02035824,-0
 .01238118,-0.08386392,-0.02836904,0.05355462,0.60398680,0.01009246,0.0
 3907290,-0.00583015,-0.01164917,-0.01315533,0.00628250,0.00471223,-0.0
 2757608,-0.00667422,-0.00445891,-0.24757072,0.05736437,-0.04297442,0.6
 1856261,0.02713065,-0.02943624,-0.00414287,0.00974147,0.01284281,-0.01
 015353,-0.01284843,-0.00348233,0.01160721,0.02224210,0.00451940,-0.083
 63649,-0.22158399,0.02906396,0.24226178,-0.16512609,0.03038684,0.04958
 163,0.05065906,0.04181192,-0.02225406,-0.03333384,0.00085785,0.0153676
 8,-0.03032836,-0.04441297,-0.01049314,-0.28102369,-0.01266272,0.107374
 70,0.54164222,0.10610255,-0.22444005,-0.04744711,0.00283300,-0.0528323
 8,0.00063615,0.01400212,-0.00062585,-0.00758901,-0.02392429,0.00497434
 ,0.02438219,-0.07706466,-0.14007984,0.03575807,0.04458271,0.71117188,0
 .04754172,-0.01028672,-0.08319586,-0.02102193,-0.01764887,0.01755761,0
 .01361808,-0.00068042,-0.01180129,0.01839762,0.02328418,0.01628841,0.1
 0718780,0.00524469,-0.10898941,-0.19529749,-0.03008033,0.22094026,-0.0
 0242622,-0.00249121,0.00509334,-0.00030342,-0.00047050,-0.00022529,0.0
 0008935,-0.00204072,0.00130483,0.00905710,-0.00962998,-0.00371720,-0.1
 5273773,0.12363161,0.05738859,-0.01153779,0.02276204,0.00820998,0.1580
 4000,-0.00172739,0.00100212,0.00062446,-0.00065505,-0.00021125,0.00040
 158,-0.00334004,-0.00430026,0.00088934,0.01876472,-0.01818679,-0.00897
 286,0.12390935,-0.21266292,-0.06055385,-0.00562370,0.00835602,0.002578
 32,-0.13318379,0.22382958,0.00515259,0.00126641,0.00522850,-0.00040831
 ,0.00048695,-0.00056159,0.00165124,0.00102680,0.00357470,-0.00395623,0
 .00163578,0.00239190,0.05811485,-0.05791852,-0.06261005,0.00802928,-0.
 01113535,0.00152487,-0.06575836,0.06460371,0.05416755,-0.00311985,0.00
 010124,0.00510337,-0.00237580,-0.02765326,0.00542734,-0.07364694,-0.06
 974268,0.02275294,0.00806838,0.02139926,-0.00467763,-0.00233451,0.0026
 6495,0.00206957,-0.00069077,0.00028036,-0.00001930,0.00051110,0.001100
 98,0.00005187,0.07288281,-0.00060984,0.00172434,0.00080527,0.00064787,
 -0.00177656,0.00025995,-0.06950612,-0.30914630,0.05139026,-0.00730397,
 -0.01737920,0.00463660,0.00377166,-0.00149202,-0.00101801,0.00040903,0
 .00032967,-0.00032111,-0.00044645,-0.00094512,0.00033086,0.07428271,0.
 32686976,0.00551044,0.00042289,0.00536714,0.00356076,0.01378572,0.0031
 3037,0.02372745,0.04845682,-0.04913689,-0.00341239,-0.00576503,0.00274
 434,0.00241448,-0.00077807,0.00339250,-0.00018172,-0.00049183,-0.00063
 365,0.00017022,-0.00043541,0.00033525,-0.02860259,-0.05486830,0.039079
 59,0.00877339,-0.00802545,-0.00223403,-0.16357375,0.12824429,0.0494375
 0,-0.01393082,0.02265300,0.00614964,-0.00265889,-0.00272242,0.00572627
 ,-0.00008933,-0.00036524,-0.00019013,0.00125555,-0.00194470,0.00212069
 ,-0.00010604,0.00012610,-0.00036321,0.00002210,-0.00047687,-0.00243565
 ,0.17009135,0.02059800,-0.01739255,-0.00825173,0.12805731,-0.21060838,
 -0.04710944,-0.00547920,0.00875456,0.00188715,-0.00172859,0.00066441,0
 .00126975,-0.00090105,0.00011572,0.00035505,-0.00262982,-0.00427254,0.
 00189954,0.00007306,0.00004099,-0.00011266,0.00020508,0.00083575,-0.00
 050926,-0.13858261,0.22133545,-0.00422435,0.00380045,0.00464366,0.0499
 4496,-0.04631231,-0.05879286,0.00801239,-0.01102781,0.00135749,0.00456
 530,0.00123778,0.00673751,0.00022058,0.00050506,-0.00075079,0.00210293
 ,0.00173837,0.00493676,-0.00035235,0.00000576,-0.00076883,-0.00224151,
 -0.00020725,-0.00386489,-0.05704657,0.05088187,0.04920942,-0.00868690,
 -0.00249938,0.00484864,0.01365203,0.01513239,-0.01047942,-0.04944113,0
 .02896104,0.00379213,0.10286693,0.01634328,0.06565707,-0.03444119,-0.0
 4612621,0.00002640,0.01800211,-0.00744828,-0.01283919,0.00076407,0.001
 97026,0.00201553,0.00109744,-0.00113942,0.00166946,0.00078391,0.000036
 75,0.00007151,0.13604014,-0.00021266,-0.00318749,0.00002028,0.00214882
 ,-0.00071873,-0.00007524,0.00904622,0.00019632,0.00563902,-0.00185539,
 -0.02301829,-0.01195516,-0.01081040,-0.00055247,-0.01079502,-0.0029623
 9,0.00021574,0.00048354,0.00068137,-0.00021383,0.00028641,-0.00065884,
 0.00041758,-0.00070242,-0.00020318,0.00019924,-0.00051288,-0.10758240,
 0.12565450,-0.00810040,-0.00132847,0.00464958,0.00985393,0.00677066,-0
 .00722797,-0.02196976,0.01899150,0.00936427,0.08215369,-0.00482957,0.0
 0314290,-0.02393883,-0.02803856,0.00070121,0.01260906,-0.00432028,-0.0
 0778171,0.00046600,0.00008628,0.00097267,0.00046006,-0.00033216,0.0008
 9577,0.00010135,0.00016296,-0.00083908,-0.08234332,0.05094271,0.083176
 05,-0.00090455,-0.00012149,0.00031536,0.00207405,0.00545022,0.00128752
 ,-0.01671216,-0.00120792,0.01514374,-0.15974648,-0.02953504,0.15218116
 ,-0.00711324,-0.00618150,0.00687907,0.00411877,-0.00237696,0.00070722,
 -0.00011654,-0.00010365,-0.00164658,0.00002757,-0.00007153,-0.00187623
 ,-0.00079137,-0.00024683,-0.00000315,-0.00905757,0.00075709,-0.0226741
 7,0.18614403,0.00014780,-0.00147249,-0.00013037,0.00339472,-0.00256073
 ,-0.00100170,0.01454343,0.00825680,-0.01720215,-0.02963442,-0.06511936
 ,0.03803381,-0.02216501,-0.00253117,0.02152954,-0.00042979,-0.00547337
 ,0.00084024,0.00025134,0.00093037,-0.00069616,-0.00052308,0.00075932,0
 .00017227,0.00129008,0.00027861,0.00023324,-0.00143816,0.00214069,-0.0
 0360085,0.03547383,0.06573173,-0.00166998,-0.00040809,0.00065768,0.002
 44859,0.00128487,0.00032741,-0.00271104,0.00439768,0.00227236,0.161903
 14,0.04178864,-0.17301875,-0.00192280,-0.00551056,0.00339926,0.0026677
 7,-0.00061813,0.00036650,-0.00037140,0.00029907,-0.00054303,-0.0003545
 0,-0.00035546,-0.00051017,0.00009400,0.00018711,-0.00008794,-0.0143147
 7,-0.00175581,-0.03215976,-0.14906417,-0.03818785,0.19836515,0.0002866
 0,-0.00111392,-0.00015457,-0.00051293,-0.00213339,0.00079564,-0.001085
 44,-0.00589692,-0.00696361,-0.03768838,0.00192480,-0.00924275,0.004605
 54,0.00804336,-0.00357222,-0.00431189,0.00321559,0.00310798,-0.0002087
 2,-0.00074758,-0.00016586,-0.00019586,0.00056669,-0.00022183,-0.000176
 51,0.00014003,0.00048348,-0.15581322,0.06883823,0.06700789,0.00243784,
 0.00049075,0.00342791,0.22950633,-0.00047641,0.00055389,0.00020070,0.0
 0071705,0.00189662,-0.00075118,-0.00243844,0.00425516,0.00439938,0.021
 06832,0.00273329,0.01177730,-0.00445317,-0.00716987,0.00256943,0.00284
 881,-0.00105915,-0.00246691,0.00030045,0.00146602,0.00098602,-0.000036
 25,0.00001393,0.00011380,0.00007274,-0.00009428,-0.00027431,0.08942234
 ,-0.08532598,-0.03604094,-0.00179662,-0.00086373,-0.00124110,-0.048670
 54,0.43908588,-0.00083762,-0.00046554,0.00024690,0.00104062,0.00272675
 ,-0.00112518,-0.00829921,0.00248846,0.00050469,0.00667671,0.01055957,0
 .01652220,-0.00202348,-0.00572482,0.00197975,0.00145225,-0.00037685,-0
 .00140406,0.00026964,0.00102347,0.00051876,0.00023675,-0.00012067,0.00
 022588,0.00006898,-0.00002016,0.00027473,0.03650430,-0.01075649,-0.062
 87301,-0.00137136,-0.00013149,0.00123888,-0.08300465,-0.20854925,0.192
 34750,-0.00031888,0.00077632,0.00012527,-0.00037501,-0.00017879,0.0001
 7115,-0.00021706,-0.00010664,-0.00090200,-0.00017230,0.00297408,0.0007
 6147,-0.00065877,-0.00013486,-0.00015235,0.00082065,-0.00054265,-0.000
 20091,-0.00017637,-0.00060583,-0.00055235,0.00010228,-0.00013501,0.000
 03803,0.00004741,-0.00003729,0.00009407,-0.01688922,0.04245711,-0.0141
 4330,-0.00000538,0.00018354,-0.00014899,-0.03650401,-0.05672192,0.0492
 1588,0.05433133,-0.00022115,0.00092486,0.00012460,-0.00071631,-0.00088
 471,0.00059515,0.00128325,-0.00058304,-0.00087326,-0.00214078,0.000263
 55,-0.00095031,-0.00020443,0.00077943,-0.00026324,0.00065396,-0.000055
 79,-0.00011466,-0.00020391,-0.00024386,-0.00028562,-0.00002967,0.00002
 076,-0.00008948,-0.00003519,-0.00000517,0.00005001,0.01387600,-0.01578
 294,0.00153840,-0.00002306,0.00004477,0.00025699,-0.02426134,-0.355785
 43,0.20928637,0.01211499,0.37137988,-0.00000552,0.00092818,0.00002156,
 -0.00041558,-0.00010227,0.00024255,0.00027480,0.00024148,-0.00012455,0
 .00088925,0.00209059,0.00027146,-0.00120120,-0.00021375,0.00046136,0.0
 0127938,-0.00082390,-0.00074516,-0.00031649,-0.00059274,-0.00038752,0.
 00003754,-0.00007219,-0.00004507,0.00004520,-0.00004618,0.00004402,0.0
 0474328,-0.02167369,0.00742005,0.00024975,0.00017224,0.00004384,0.0285
 9806,0.22931037,-0.14847433,-0.03426112,-0.20925087,0.14127574,-0.2697
 3903,-0.04809590,0.11563171,-0.00342225,0.00043574,0.00372756,0.002439
 19,-0.00146625,0.00146884,0.00021275,0.00024085,-0.00093607,0.00059868
 ,0.00375987,0.00233948,-0.01213736,-0.00616924,0.00819779,-0.00075559,
 -0.00034089,0.00028673,-0.00031425,0.00010514,0.00006909,0.00008828,-0
 .00044593,-0.00151517,0.00026927,-0.00006627,0.00022686,-0.00010567,-0
 .00004803,-0.00003350,-0.00012211,0.00008669,-0.00000392,0.00002421,-0
 .00001037,0.00004833,0.28284065,-0.04808412,-0.07151530,0.02469546,-0.
 02715847,-0.00064069,0.01316765,-0.00069945,-0.00570877,0.00099146,0.0
 0020734,-0.00080095,-0.00023303,0.00306676,-0.00344048,-0.00131666,0.0
 2135325,0.00935798,-0.01038827,0.00110818,0.00023462,-0.00052778,-0.00
 132709,-0.00020066,0.00064147,0.00041401,0.00108706,-0.00044145,0.0001
 2830,0.00000138,0.00006726,-0.00003748,0.00010381,0.00000335,-0.000088
 69,0.00011294,0.00002915,-0.00003038,-0.00000459,-0.00002181,0.0517674
 3,0.07042951,0.11516966,0.02452063,-0.09034540,0.00459174,-0.00038286,
 0.00219061,0.00185849,0.00121324,0.00455514,-0.00060047,-0.00008441,-0
 .00133376,0.00279888,-0.00139999,0.00448113,0.00678936,0.00314162,0.00
 112614,0.00018735,0.00016334,-0.00021117,0.00011028,-0.00008207,-0.000
 18828,-0.00145051,-0.00008212,-0.00246630,0.00034628,-0.00016740,0.000
 27741,-0.00020480,-0.00002212,-0.00020044,-0.00014488,0.00020853,0.000
 09122,-0.00004265,-0.00003210,-0.00002054,-0.12782584,-0.02687096,0.08
 463835,0.00924786,0.01936707,-0.00334553,-0.00092255,0.00291523,0.0032
 4581,-0.00055189,0.00005558,-0.00001472,-0.00351588,0.00030544,0.00588
 431,-0.00425580,-0.02835143,0.00315508,-0.07800857,-0.07430760,0.02028
 995,-0.00009320,0.00045651,-0.00245117,-0.00003368,-0.00009390,-0.0004
 2953,0.00026473,0.00094109,-0.00011214,0.00085334,0.00042270,0.0002909
 3,-0.00024930,-0.00153698,0.00004975,-0.00021724,0.00007695,0.00007510
 ,-0.00000888,-0.00008200,0.00003432,0.00012324,-0.00061958,-0.00158289
 ,0.07736783,-0.00897320,-0.01802400,0.00461736,0.00364298,-0.00149808,
 -0.00176893,0.00054367,0.00058195,-0.00026718,-0.00062599,0.00166824,0
 .00060930,-0.00031752,-0.00229975,0.00022707,-0.07418299,-0.30556668,0
 .03765679,-0.00034148,0.00090429,0.00005313,-0.00006370,-0.00003124,0.
 00004683,-0.00044456,-0.00093886,0.00032347,0.00036350,-0.00002573,-0.
 00006894,0.00002094,-0.00022526,-0.00014071,-0.00030708,0.00018071,0.0
 0003149,-0.00001268,-0.00006772,0.00005455,0.00024714,0.00098413,-0.00
 012332,0.08045096,0.32435798,-0.00356813,-0.00808300,0.00466066,0.0033
 6144,-0.00148440,0.00472772,0.00025361,-0.00029817,-0.00083083,0.00480
 914,-0.00004376,0.00589672,0.00324334,0.01362806,0.00199893,0.02097239
 ,0.03722640,-0.04818941,-0.00234885,-0.00012047,-0.00363202,-0.0003541
 9,-0.00004572,-0.00079189,-0.00002353,-0.00051188,0.00036710,0.0003021
 2,0.00102216,0.00028161,0.00007664,-0.00000866,-0.00015098,0.00004940,
 -0.00024184,-0.00007392,-0.00000219,0.00000801,0.00001659,-0.00168191,
 0.00020417,-0.00259412,-0.02508927,-0.04125090,0.03831384\\0.00000106,
 -0.00000098,0.00000049,0.00000028,0.00000047,0.00000138,-0.00000101,-0
 .00000230,-0.00000392,-0.00000443,0.00000100,-0.00000006,-0.00000063,0
 .00000236,-0.00000449,-0.00000170,0.00000056,0.00000296,-0.00000042,-0
 .00000063,0.00000035,0.00000008,0.00000012,0.00000003,0.00000008,0.000
 00027,0.00000005,0.00000505,0.00000026,-0.00000194,-0.00000119,-0.0000
 0054,0.00000138,0.00000215,0.00000025,0.00000318,0.00000085,-0.0000013
 2,-0.00000051,0.00000007,0.00000037,0.00000029,-0.00000024,0.00000011,
 0.00000082\\\@


 A SOLDIER'S LIFE IS A LIFE OF HONOR, BUT A DOG WOULD NOT LEAD IT.
 -- PRINCE RUPERT, FOUNDER OF THE HUDSON'S BAY COMPANY
 Job cpu time:       0 days  3 hours 12 minutes  7.6 seconds.
 Elapsed time:       0 days  0 hours  8 minutes  1.6 seconds.
 File lengths (MBytes):  RWF=    280 Int=      0 D2E=      0 Chk=     14 Scr=      1
 Normal termination of Gaussian 16 at Sat Jul 30 13:13:16 2022.
