 Entering Gaussian System, Link 0=g16
 Initial command:
 /apps/chpc/chem/gaussian16/B01/g16/l1.exe "/mnt/lustre/users/kotukile/Kgalaletso/4322496.sched01/Gau-166291.inp" -scrdir="/mnt/lustre/users/kotukile/Kgalaletso/4322496.sched01/"
 Entering Link 1 = /apps/chpc/chem/gaussian16/B01/g16/l1.exe PID=    166292.
  
 Copyright (c) 1988-2017, Gaussian, Inc.  All Rights Reserved.
  
 This is part of the Gaussian(R) 16 program.  It is based on
 the Gaussian(R) 09 system (copyright 2009, Gaussian, Inc.),
 the Gaussian(R) 03 system (copyright 2003, Gaussian, Inc.),
 the Gaussian(R) 98 system (copyright 1998, Gaussian, Inc.),
 the Gaussian(R) 94 system (copyright 1995, Gaussian, Inc.),
 the Gaussian 92(TM) system (copyright 1992, Gaussian, Inc.),
 the Gaussian 90(TM) system (copyright 1990, Gaussian, Inc.),
 the Gaussian 88(TM) system (copyright 1988, Gaussian, Inc.),
 the Gaussian 86(TM) system (copyright 1986, Carnegie Mellon
 University), and the Gaussian 82(TM) system (copyright 1983,
 Carnegie Mellon University). Gaussian is a federally registered
 trademark of Gaussian, Inc.
  
 This software contains proprietary and confidential information,
 including trade secrets, belonging to Gaussian, Inc.
  
 This software is provided under written license and may be
 used, copied, transmitted, or stored only in accord with that
 written license.
  
 The following legend is applicable only to US Government
 contracts under FAR:
  
                    RESTRICTED RIGHTS LEGEND
  
 Use, reproduction and disclosure by the US Government is
 subject to restrictions as set forth in subparagraphs (a)
 and (c) of the Commercial Computer Software - Restricted
 Rights clause in FAR 52.227-19.
  
 Gaussian, Inc.
 340 Quinnipiac St., Bldg. 40, Wallingford CT 06492
  
  
 ---------------------------------------------------------------
 Warning -- This program may not be used in any manner that
 competes with the business of Gaussian, Inc. or will provide
 assistance to any competitor of Gaussian, Inc.  The licensee
 of this program is prohibited from giving any competitor of
 Gaussian, Inc. access to this program.  By using this program,
 the user acknowledges that Gaussian, Inc. is engaged in the
 business of creating and licensing software in the field of
 computational chemistry and represents and warrants to the
 licensee that it is not a competitor of Gaussian, Inc. and that
 it will not use this program in any manner prohibited above.
 ---------------------------------------------------------------
  

 Cite this work as:
 Gaussian 16, Revision B.01,
 M. J. Frisch, G. W. Trucks, H. B. Schlegel, G. E. Scuseria, 
 M. A. Robb, J. R. Cheeseman, G. Scalmani, V. Barone, 
 G. A. Petersson, H. Nakatsuji, X. Li, M. Caricato, A. V. Marenich, 
 J. Bloino, B. G. Janesko, R. Gomperts, B. Mennucci, H. P. Hratchian, 
 J. V. Ortiz, A. F. Izmaylov, J. L. Sonnenberg, D. Williams-Young, 
 F. Ding, F. Lipparini, F. Egidi, J. Goings, B. Peng, A. Petrone, 
 T. Henderson, D. Ranasinghe, V. G. Zakrzewski, J. Gao, N. Rega, 
 G. Zheng, W. Liang, M. Hada, M. Ehara, K. Toyota, R. Fukuda, 
 J. Hasegawa, M. Ishida, T. Nakajima, Y. Honda, O. Kitao, H. Nakai, 
 T. Vreven, K. Throssell, J. A. Montgomery, Jr., J. E. Peralta, 
 F. Ogliaro, M. J. Bearpark, J. J. Heyd, E. N. Brothers, K. N. Kudin, 
 V. N. Staroverov, T. A. Keith, R. Kobayashi, J. Normand, 
 K. Raghavachari, A. P. Rendell, J. C. Burant, S. S. Iyengar, 
 J. Tomasi, M. Cossi, J. M. Millam, M. Klene, C. Adamo, R. Cammi, 
 J. W. Ochterski, R. L. Martin, K. Morokuma, O. Farkas, 
 J. B. Foresman, and D. J. Fox, Gaussian, Inc., Wallingford CT, 2016.
 
 ******************************************
 Gaussian 16:  ES64L-G16RevB.01 20-Dec-2017
                30-Jul-2022 
 ******************************************
 %nprocshared=24
 Will use up to   24 processors via shared memory.
 %lindaworkers=cnode0998.cm.cluster
 %mem=20GB
 %chk=QOOH-OH-Elim-ortho-TS-b3lyp.chk
 SetLPE:    new flags="-opt 'Tsnet.Node.lindarsharg: ssh'  -nodelist 'cnode0998.cm.cluster' -env GAUSS_MDEF=2684354560 -env GAUSS_EXEDIR="/apps/chpc/chem/gaussian16/B01/g16/bsd:/apps/chpc/chem/gaussian16/B01/g16""
 Will use up to    1 processors via Linda.
 ----------------------------------------------------------------------
 # opt=(ts,noeigentest,calcfc) freq ub3lyp cc-pvtz+d int=grid=ultrafine
 ----------------------------------------------------------------------
 1/5=1,10=4,11=1,18=20,26=4,38=1/1,3;
 2/9=110,12=2,17=6,18=5,40=1/2;
 3/5=16,6=1,7=9,11=2,25=1,30=1,71=2,74=-5,75=-5,116=2,140=1/1,2,3;
 4//1;
 5/5=2,38=5/2;
 8/6=4,10=90,11=11/1;
 11/6=1,8=1,9=11,15=111,16=1/1,2,10;
 10/6=1,13=1/2;
 6/7=2,8=2,9=2,10=2,28=1/1;
 7/10=1,18=20,25=1/1,2,3,16;
 1/5=1,10=4,11=1,18=20,26=4/3(2);
 2/9=110/2;
 99//99;
 2/9=110/2;
 3/5=16,6=1,7=9,11=2,25=1,30=1,71=1,74=-5,75=-5,116=2/1,2,3;
 4/5=5,16=3,69=1/1;
 5/5=2,38=5/2;
 7//1,2,3,16;
 1/5=1,11=1,18=20,26=4/3(-5);
 2/9=110/2;
 6/7=2,8=2,9=2,10=2,19=2,28=1/1;
 99/9=1/99;
 ---------------------------
 QOOH-OH-Elim-ortho-TS-b3lyp
 ---------------------------
 Symbolic Z-matrix:
 Charge =  0 Multiplicity = 2
 C                     2.03846   0.09438  -0.50339 
 C                     1.5155   -1.16363  -0.17974 
 C                     0.2426   -1.24364   0.44727 
 C                    -0.47953  -0.08734   0.80522 
 C                     0.19      1.22349   0.57405 
 C                     1.371     1.27883  -0.09358 
 H                    -0.30408   2.11922   0.92264 
 H                    -0.13869  -2.20463   0.75255 
 H                     2.05954  -2.05622  -0.45921 
 O                    -1.13568  -0.62859  -0.24961 
 H                    -1.06404  -0.13186   1.72579 
 O                    -2.63199   0.29305  -0.51698 
 H                    -2.41184   0.67526  -1.37647 
 H                     2.97539   0.16779  -1.0377 
 H                     1.83272   2.23647  -0.29808 
 
 Add virtual bond connecting atoms O12        and O10        Dist= 3.36D+00.

 GradGradGradGradGradGradGradGradGradGradGradGradGradGradGradGradGradGrad
 Berny optimization.
 Initialization pass.
                           ----------------------------
                           !    Initial Parameters    !
                           ! (Angstroms and Degrees)  !
 --------------------------                            --------------------------
 ! Name  Definition              Value          Derivative Info.                !
 --------------------------------------------------------------------------------
 ! R1    R(1,2)                  1.4003         calculate D2E/DX2 analytically  !
 ! R2    R(1,6)                  1.42           calculate D2E/DX2 analytically  !
 ! R3    R(1,14)                 1.0811         calculate D2E/DX2 analytically  !
 ! R4    R(2,3)                  1.4212         calculate D2E/DX2 analytically  !
 ! R5    R(2,9)                  1.082          calculate D2E/DX2 analytically  !
 ! R6    R(3,4)                  1.4095         calculate D2E/DX2 analytically  !
 ! R7    R(3,8)                  1.078          calculate D2E/DX2 analytically  !
 ! R8    R(3,10)                 1.6624         calculate D2E/DX2 analytically  !
 ! R9    R(4,5)                  1.49           calculate D2E/DX2 analytically  !
 ! R10   R(4,10)                 1.355          calculate D2E/DX2 analytically  !
 ! R11   R(4,11)                 1.0914         calculate D2E/DX2 analytically  !
 ! R12   R(5,6)                  1.3578         calculate D2E/DX2 analytically  !
 ! R13   R(5,7)                  1.0807         calculate D2E/DX2 analytically  !
 ! R14   R(6,15)                 1.0826         calculate D2E/DX2 analytically  !
 ! R15   R(10,12)                1.7776         calculate D2E/DX2 analytically  !
 ! R16   R(12,13)                0.9661         calculate D2E/DX2 analytically  !
 ! A1    A(2,1,6)              120.4724         calculate D2E/DX2 analytically  !
 ! A2    A(2,1,14)             119.9279         calculate D2E/DX2 analytically  !
 ! A3    A(6,1,14)             119.5622         calculate D2E/DX2 analytically  !
 ! A4    A(1,2,3)              119.146          calculate D2E/DX2 analytically  !
 ! A5    A(1,2,9)              119.5791         calculate D2E/DX2 analytically  !
 ! A6    A(3,2,9)              121.1875         calculate D2E/DX2 analytically  !
 ! A7    A(2,3,4)              121.6509         calculate D2E/DX2 analytically  !
 ! A8    A(2,3,8)              119.4662         calculate D2E/DX2 analytically  !
 ! A9    A(2,3,10)             122.4667         calculate D2E/DX2 analytically  !
 ! A10   A(4,3,8)              118.5675         calculate D2E/DX2 analytically  !
 ! A11   A(8,3,10)              98.9333         calculate D2E/DX2 analytically  !
 ! A12   A(3,4,5)              116.8794         calculate D2E/DX2 analytically  !
 ! A13   A(3,4,11)             117.0748         calculate D2E/DX2 analytically  !
 ! A14   A(5,4,10)             116.6301         calculate D2E/DX2 analytically  !
 ! A15   A(5,4,11)             114.0425         calculate D2E/DX2 analytically  !
 ! A16   A(10,4,11)            112.3953         calculate D2E/DX2 analytically  !
 ! A17   A(4,5,6)              120.1988         calculate D2E/DX2 analytically  !
 ! A18   A(4,5,7)              118.2747         calculate D2E/DX2 analytically  !
 ! A19   A(6,5,7)              121.4983         calculate D2E/DX2 analytically  !
 ! A20   A(1,6,5)              121.1149         calculate D2E/DX2 analytically  !
 ! A21   A(1,6,15)             118.8721         calculate D2E/DX2 analytically  !
 ! A22   A(5,6,15)             119.9923         calculate D2E/DX2 analytically  !
 ! A23   A(3,10,12)            162.3209         calculate D2E/DX2 analytically  !
 ! A24   A(4,10,12)            108.5178         calculate D2E/DX2 analytically  !
 ! A25   A(10,12,13)            98.4605         calculate D2E/DX2 analytically  !
 ! D1    D(6,1,2,3)              6.193          calculate D2E/DX2 analytically  !
 ! D2    D(6,1,2,9)           -177.1662         calculate D2E/DX2 analytically  !
 ! D3    D(14,1,2,3)          -176.0453         calculate D2E/DX2 analytically  !
 ! D4    D(14,1,2,9)             0.5955         calculate D2E/DX2 analytically  !
 ! D5    D(2,1,6,5)             -2.5186         calculate D2E/DX2 analytically  !
 ! D6    D(2,1,6,15)           175.8247         calculate D2E/DX2 analytically  !
 ! D7    D(14,1,6,5)           179.7116         calculate D2E/DX2 analytically  !
 ! D8    D(14,1,6,15)           -1.9451         calculate D2E/DX2 analytically  !
 ! D9    D(1,2,3,4)             -2.8731         calculate D2E/DX2 analytically  !
 ! D10   D(1,2,3,8)           -176.3306         calculate D2E/DX2 analytically  !
 ! D11   D(1,2,3,10)            58.8581         calculate D2E/DX2 analytically  !
 ! D12   D(9,2,3,4)           -179.4581         calculate D2E/DX2 analytically  !
 ! D13   D(9,2,3,8)              7.0845         calculate D2E/DX2 analytically  !
 ! D14   D(9,2,3,10)          -117.7269         calculate D2E/DX2 analytically  !
 ! D15   D(2,3,4,5)             -3.7256         calculate D2E/DX2 analytically  !
 ! D16   D(2,3,4,11)          -144.2664         calculate D2E/DX2 analytically  !
 ! D17   D(8,3,4,5)            169.7888         calculate D2E/DX2 analytically  !
 ! D18   D(8,3,4,11)            29.248          calculate D2E/DX2 analytically  !
 ! D19   D(2,3,10,12)         -124.9887         calculate D2E/DX2 analytically  !
 ! D20   D(8,3,10,12)          101.3646         calculate D2E/DX2 analytically  !
 ! D21   D(3,4,5,6)              7.3986         calculate D2E/DX2 analytically  !
 ! D22   D(3,4,5,7)           -174.5028         calculate D2E/DX2 analytically  !
 ! D23   D(10,4,5,6)           -77.2304         calculate D2E/DX2 analytically  !
 ! D24   D(10,4,5,7)           100.8682         calculate D2E/DX2 analytically  !
 ! D25   D(11,4,5,6)           149.1087         calculate D2E/DX2 analytically  !
 ! D26   D(11,4,5,7)           -32.7927         calculate D2E/DX2 analytically  !
 ! D27   D(5,4,10,12)          -73.2998         calculate D2E/DX2 analytically  !
 ! D28   D(11,4,10,12)          61.0922         calculate D2E/DX2 analytically  !
 ! D29   D(4,5,6,1)             -4.3832         calculate D2E/DX2 analytically  !
 ! D30   D(4,5,6,15)           177.2918         calculate D2E/DX2 analytically  !
 ! D31   D(7,5,6,1)            177.5807         calculate D2E/DX2 analytically  !
 ! D32   D(7,5,6,15)            -0.7442         calculate D2E/DX2 analytically  !
 ! D33   D(3,10,12,13)         129.2903         calculate D2E/DX2 analytically  !
 ! D34   D(4,10,12,13)         113.7322         calculate D2E/DX2 analytically  !
 --------------------------------------------------------------------------------
 Trust Radius=3.00D-01 FncErr=1.00D-07 GrdErr=1.00D-06 EigMax=2.50D+02 EigMin=1.00D-04
 Number of steps in this run=     85 maximum allowed number of steps=    100.
 Search for a saddle point of order  1.
 GradGradGradGradGradGradGradGradGradGradGradGradGradGradGradGradGradGrad

                          Input orientation:                          
 ---------------------------------------------------------------------
 Center     Atomic      Atomic             Coordinates (Angstroms)
 Number     Number       Type             X           Y           Z
 ---------------------------------------------------------------------
      1          6           0        2.038460    0.094383   -0.503389
      2          6           0        1.515497   -1.163635   -0.179736
      3          6           0        0.242602   -1.243637    0.447266
      4          6           0       -0.479534   -0.087345    0.805217
      5          6           0        0.190000    1.223492    0.574054
      6          6           0        1.371003    1.278833   -0.093584
      7          1           0       -0.304084    2.119224    0.922637
      8          1           0       -0.138686   -2.204635    0.752548
      9          1           0        2.059535   -2.056223   -0.459207
     10          8           0       -1.135679   -0.628587   -0.249605
     11          1           0       -1.064036   -0.131858    1.725790
     12          8           0       -2.631991    0.293054   -0.516983
     13          1           0       -2.411844    0.675260   -1.376474
     14          1           0        2.975389    0.167794   -1.037702
     15          1           0        1.832717    2.236471   -0.298079
 ---------------------------------------------------------------------
                    Distance matrix (angstroms):
                    1          2          3          4          5
     1  C    0.000000
     2  C    1.400304   0.000000
     3  C    2.432931   1.421195   0.000000
     4  C    2.843549   2.471575   1.409475   0.000000
     5  C    2.419210   2.832581   2.470945   1.489968   0.000000
     6  C    1.419986   2.448255   2.815788   2.469569   1.357782
     7  H    3.408965   3.911939   3.440011   2.216645   1.080724
     8  H    3.406293   2.165446   1.078005   2.145197   3.448471
     9  H    2.151163   1.082033   2.187061   3.452842   3.913990
    10  O    3.265310   2.705530   1.662400   1.355035   2.421990
    11  H    3.826997   3.368914   2.139621   1.091365   2.176253
    12  O    4.674695   4.408780   3.399188   2.554601   3.165393
    13  H    4.572188   4.498636   3.748903   3.012501   3.297683
    14  H    1.081071   2.154088   3.415464   3.924021   3.386834
    15  H    2.161718   3.416922   3.898097   3.458885   2.117844
                    6          7          8          9         10
     6  C    0.000000
     7  H    2.131872   0.000000
     8  H    3.889685   4.330363   0.000000
     9  H    3.424961   4.993050   2.514469   0.000000
    10  O    3.153736   3.100994   2.117129   3.505920   0.000000
    11  H    3.351057   2.507978   2.469793   4.270139   2.038150
    12  O    4.144272   3.290373   3.750563   5.247176   1.777600
    13  H    4.039807   3.437091   4.241907   5.319362   2.144399
    14  H    2.167907   4.290216   4.304751   2.473802   4.261010
    15  H    1.082621   2.463699   4.971285   4.301701   4.125807
                   11         12         13         14         15
    11  H    0.000000
    12  O    2.769307   0.000000
    13  H    3.477365   0.966059   0.000000
    14  H    4.903431   5.632899   5.421676   0.000000
    15  H    4.253964   4.874260   4.649368   2.476321   0.000000
 Stoichiometry    C6H7O2(2)
 Framework group  C1[X(C6H7O2)]
 Deg. of freedom    39
 Full point group                 C1      NOp   1
 Largest Abelian subgroup         C1      NOp   1
 Largest concise Abelian subgroup C1      NOp   1
                         Standard orientation:                         
 ---------------------------------------------------------------------
 Center     Atomic      Atomic             Coordinates (Angstroms)
 Number     Number       Type             X           Y           Z
 ---------------------------------------------------------------------
      1          6           0        2.001439    0.139028   -0.511515
      2          6           0        1.493323   -1.124954   -0.187450
      3          6           0        0.221883   -1.219680    0.440453
      4          6           0       -0.513355   -0.071821    0.798874
      5          6           0        0.140776    1.246679    0.567194
      6          6           0        1.320586    1.315678   -0.101280
      7          1           0       -0.363412    2.136639    0.916095
      8          1           0       -0.148024   -2.185020    0.746037
      9          1           0        2.047474   -2.011188   -0.467275
     10          8           0       -1.163926   -0.620677   -0.255466
     11          1           0       -1.096652   -0.123067    1.719861
     12          8           0       -2.671010    0.283545   -0.521818
     13          1           0       -2.455915    0.668241   -1.381477
     14          1           0        2.937077    0.223272   -1.046492
     15          1           0        1.771024    2.278596   -0.306133
 ---------------------------------------------------------------------
 Rotational constants (GHZ):           3.8867503           1.7447670           1.4097696
 Standard basis: CC-pVTZ+d (5D, 7F)
 There are   385 symmetry adapted cartesian basis functions of A   symmetry.
 There are   338 symmetry adapted basis functions of A   symmetry.
   338 basis functions,   535 primitive gaussians,   385 cartesian basis functions
    30 alpha electrons       29 beta electrons
       nuclear repulsion energy       359.9332935467 Hartrees.
 NAtoms=   15 NActive=   15 NUniq=   15 SFac= 1.00D+00 NAtFMM=   60 NAOKFM=F Big=F
 Integral buffers will be    131072 words long.
 Raffenetti 2 integral format.
 Two-electron integral symmetry is turned on.
 One-electron integrals computed using PRISM.
 NBasis=   338 RedAO= T EigKep=  4.65D-05  NBF=   338
 NBsUse=   338 1.00D-06 EigRej= -1.00D+00 NBFU=   338
 ExpMin= 1.03D-01 ExpMax= 1.53D+04 ExpMxC= 5.22D+02 IAcc=3 IRadAn=         5 AccDes= 0.00D+00
 Harris functional with IExCor=  402 and IRadAn=       5 diagonalized for initial guess.
 HarFok:  IExCor=  402 AccDes= 0.00D+00 IRadAn=         5 IDoV= 1 UseB2=F ITyADJ=14
 ICtDFT=  3500011 ScaDFX=  1.000000  1.000000  1.000000  1.000000
 FoFCou: FMM=F IPFlag=           0 FMFlag=      100000 FMFlg1=           0
         NFxFlg=           0 DoJE=T BraDBF=F KetDBF=T FulRan=T
         wScrn=  0.000000 ICntrl=       500 IOpCl=  0 I1Cent=   200000004 NGrid=           0
         NMat0=    1 NMatS0=      1 NMatT0=    0 NMatD0=    1 NMtDS0=    0 NMtDT0=    0
 Petite list used in FoFCou.
 Initial guess <Sx>= 0.0000 <Sy>= 0.0000 <Sz>= 0.5000 <S**2>= 0.7500 S= 0.5000
 Requested convergence on RMS density matrix=1.00D-08 within 128 cycles.
 Requested convergence on MAX density matrix=1.00D-06.
 Requested convergence on             energy=1.00D-06.
 No special actions if energy rises.
 Integral accuracy reduced to 1.0D-05 until final iterations.
 Initial convergence to 1.0D-05 achieved.  Increase integral accuracy.
 SCF Done:  E(UB3LYP) =  -383.234708266     A.U. after   23 cycles
            NFock= 23  Conv=0.61D-08     -V/T= 2.0054
 <Sx>= 0.0000 <Sy>= 0.0000 <Sz>= 0.5000 <S**2>= 0.8194 S= 0.5341
 <L.S>= 0.000000000000E+00
 Annihilation of the first spin contaminant:
 S**2 before annihilation     0.8194,   after     0.7518
 DoSCS=F DFT=T ScalE2(SS,OS)=  1.000000  1.000000
 Range of M.O.s used for correlation:     1   338
 NBasis=   338 NAE=    30 NBE=    29 NFC=     0 NFV=     0
 NROrb=    338 NOA=    30 NOB=    29 NVA=   308 NVB=   309

 **** Warning!!: The largest alpha MO coefficient is  0.21923095D+02


 **** Warning!!: The largest beta MO coefficient is  0.21806448D+02

 Symmetrizing basis deriv contribution to polar:
 IMax=3 JMax=2 DiffMx= 0.00D+00
 G2DrvN: will do    16 centers at a time, making    1 passes.
 Calling FoFCou, ICntrl=  3107 FMM=F I1Cent=   0 AccDes= 0.00D+00.
 End of G2Drv F.D. properties file   721 does not exist.
 End of G2Drv F.D. properties file   722 does not exist.
 End of G2Drv F.D. properties file   788 does not exist.
          IDoAtm=111111111111111
          Differentiating once with respect to nuclear coordinates.
 CalDSu exits because no D1Ps are significant.
          There are    48 degrees of freedom in the 1st order CPHF.  IDoFFX=6 NUNeed=     0.
     42 vectors produced by pass  0 Test12= 3.79D-14 2.08D-09 XBig12= 3.35D-01 2.20D-01.
 AX will form    42 AO Fock derivatives at one time.
     42 vectors produced by pass  1 Test12= 3.79D-14 2.08D-09 XBig12= 7.34D-02 6.57D-02.
     42 vectors produced by pass  2 Test12= 3.79D-14 2.08D-09 XBig12= 3.88D-03 1.60D-02.
     42 vectors produced by pass  3 Test12= 3.79D-14 2.08D-09 XBig12= 4.54D-05 7.40D-04.
     42 vectors produced by pass  4 Test12= 3.79D-14 2.08D-09 XBig12= 3.43D-07 5.99D-05.
     42 vectors produced by pass  5 Test12= 3.79D-14 2.08D-09 XBig12= 3.98D-09 6.85D-06.
     41 vectors produced by pass  6 Test12= 3.79D-14 2.08D-09 XBig12= 2.22D-11 4.95D-07.
     13 vectors produced by pass  7 Test12= 3.79D-14 2.08D-09 XBig12= 8.09D-14 2.47D-08.
 InvSVY:  IOpt=1 It=  1 EMax= 1.44D-15
 Solved reduced A of dimension   306 with    42 vectors.
 End of Minotr F.D. properties file   721 does not exist.
 End of Minotr F.D. properties file   722 does not exist.
 End of Minotr F.D. properties file   788 does not exist.

 **********************************************************************

            Population analysis using the SCF Density.

 **********************************************************************

 Orbital symmetries:
 Alpha Orbitals:
       Occupied  (A) (A) (A) (A) (A) (A) (A) (A) (A) (A) (A) (A)
                 (A) (A) (A) (A) (A) (A) (A) (A) (A) (A) (A) (A)
                 (A) (A) (A) (A) (A) (A)
       Virtual   (A) (A) (A) (A) (A) (A) (A) (A) (A) (A) (A) (A)
                 (A) (A) (A) (A) (A) (A) (A) (A) (A) (A) (A) (A)
                 (A) (A) (A) (A) (A) (A) (A) (A) (A) (A) (A) (A)
                 (A) (A) (A) (A) (A) (A) (A) (A) (A) (A) (A) (A)
                 (A) (A) (A) (A) (A) (A) (A) (A) (A) (A) (A) (A)
                 (A) (A) (A) (A) (A) (A) (A) (A) (A) (A) (A) (A)
                 (A) (A) (A) (A) (A) (A) (A) (A) (A) (A) (A) (A)
                 (A) (A) (A) (A) (A) (A) (A) (A) (A) (A) (A) (A)
                 (A) (A) (A) (A) (A) (A) (A) (A) (A) (A) (A) (A)
                 (A) (A) (A) (A) (A) (A) (A) (A) (A) (A) (A) (A)
                 (A) (A) (A) (A) (A) (A) (A) (A) (A) (A) (A) (A)
                 (A) (A) (A) (A) (A) (A) (A) (A) (A) (A) (A) (A)
                 (A) (A) (A) (A) (A) (A) (A) (A) (A) (A) (A) (A)
                 (A) (A) (A) (A) (A) (A) (A) (A) (A) (A) (A) (A)
                 (A) (A) (A) (A) (A) (A) (A) (A) (A) (A) (A) (A)
                 (A) (A) (A) (A) (A) (A) (A) (A) (A) (A) (A) (A)
                 (A) (A) (A) (A) (A) (A) (A) (A) (A) (A) (A) (A)
                 (A) (A) (A) (A) (A) (A) (A) (A) (A) (A) (A) (A)
                 (A) (A) (A) (A) (A) (A) (A) (A) (A) (A) (A) (A)
                 (A) (A) (A) (A) (A) (A) (A) (A) (A) (A) (A) (A)
                 (A) (A) (A) (A) (A) (A) (A) (A) (A) (A) (A) (A)
                 (A) (A) (A) (A) (A) (A) (A) (A) (A) (A) (A) (A)
                 (A) (A) (A) (A) (A) (A) (A) (A) (A) (A) (A) (A)
                 (A) (A) (A) (A) (A) (A) (A) (A) (A) (A) (A) (A)
                 (A) (A) (A) (A) (A) (A) (A) (A) (A) (A) (A) (A)
                 (A) (A) (A) (A) (A) (A) (A) (A)
 Beta  Orbitals:
       Occupied  (A) (A) (A) (A) (A) (A) (A) (A) (A) (A) (A) (A)
                 (A) (A) (A) (A) (A) (A) (A) (A) (A) (A) (A) (A)
                 (A) (A) (A) (A) (A)
       Virtual   (A) (A) (A) (A) (A) (A) (A) (A) (A) (A) (A) (A)
                 (A) (A) (A) (A) (A) (A) (A) (A) (A) (A) (A) (A)
                 (A) (A) (A) (A) (A) (A) (A) (A) (A) (A) (A) (A)
                 (A) (A) (A) (A) (A) (A) (A) (A) (A) (A) (A) (A)
                 (A) (A) (A) (A) (A) (A) (A) (A) (A) (A) (A) (A)
                 (A) (A) (A) (A) (A) (A) (A) (A) (A) (A) (A) (A)
                 (A) (A) (A) (A) (A) (A) (A) (A) (A) (A) (A) (A)
                 (A) (A) (A) (A) (A) (A) (A) (A) (A) (A) (A) (A)
                 (A) (A) (A) (A) (A) (A) (A) (A) (A) (A) (A) (A)
                 (A) (A) (A) (A) (A) (A) (A) (A) (A) (A) (A) (A)
                 (A) (A) (A) (A) (A) (A) (A) (A) (A) (A) (A) (A)
                 (A) (A) (A) (A) (A) (A) (A) (A) (A) (A) (A) (A)
                 (A) (A) (A) (A) (A) (A) (A) (A) (A) (A) (A) (A)
                 (A) (A) (A) (A) (A) (A) (A) (A) (A) (A) (A) (A)
                 (A) (A) (A) (A) (A) (A) (A) (A) (A) (A) (A) (A)
                 (A) (A) (A) (A) (A) (A) (A) (A) (A) (A) (A) (A)
                 (A) (A) (A) (A) (A) (A) (A) (A) (A) (A) (A) (A)
                 (A) (A) (A) (A) (A) (A) (A) (A) (A) (A) (A) (A)
                 (A) (A) (A) (A) (A) (A) (A) (A) (A) (A) (A) (A)
                 (A) (A) (A) (A) (A) (A) (A) (A) (A) (A) (A) (A)
                 (A) (A) (A) (A) (A) (A) (A) (A) (A) (A) (A) (A)
                 (A) (A) (A) (A) (A) (A) (A) (A) (A) (A) (A) (A)
                 (A) (A) (A) (A) (A) (A) (A) (A) (A) (A) (A) (A)
                 (A) (A) (A) (A) (A) (A) (A) (A) (A) (A) (A) (A)
                 (A) (A) (A) (A) (A) (A) (A) (A) (A) (A) (A) (A)
                 (A) (A) (A) (A) (A) (A) (A) (A) (A)
 The electronic state is 2-A.
 Alpha  occ. eigenvalues --  -19.16009 -19.12259 -10.23441 -10.23155 -10.20842
 Alpha  occ. eigenvalues --  -10.19844 -10.19682 -10.19463  -1.08000  -0.95284
 Alpha  occ. eigenvalues --   -0.85003  -0.76998  -0.73095  -0.63453  -0.62611
 Alpha  occ. eigenvalues --   -0.55271  -0.50945  -0.49680  -0.47600  -0.44439
 Alpha  occ. eigenvalues --   -0.42564  -0.42273  -0.39520  -0.37159  -0.36834
 Alpha  occ. eigenvalues --   -0.34184  -0.29299  -0.27573  -0.26956  -0.22166
 Alpha virt. eigenvalues --   -0.07675   0.01450   0.03042   0.06078   0.06113
 Alpha virt. eigenvalues --    0.07389   0.09025   0.09565   0.09690   0.12103
 Alpha virt. eigenvalues --    0.17523   0.21458   0.22143   0.23843   0.24263
 Alpha virt. eigenvalues --    0.25594   0.26659   0.27774   0.29925   0.32295
 Alpha virt. eigenvalues --    0.33853   0.34050   0.36059   0.36275   0.37966
 Alpha virt. eigenvalues --    0.38605   0.39724   0.41094   0.41772   0.42864
 Alpha virt. eigenvalues --    0.42910   0.44416   0.45370   0.46883   0.47024
 Alpha virt. eigenvalues --    0.47303   0.48867   0.51266   0.52733   0.54376
 Alpha virt. eigenvalues --    0.55193   0.55857   0.56804   0.60738   0.61974
 Alpha virt. eigenvalues --    0.63716   0.66436   0.67233   0.68029   0.69232
 Alpha virt. eigenvalues --    0.71237   0.71522   0.73475   0.73739   0.76051
 Alpha virt. eigenvalues --    0.77288   0.80063   0.82680   0.87112   0.88533
 Alpha virt. eigenvalues --    0.89528   0.92098   0.95180   0.96872   0.99043
 Alpha virt. eigenvalues --    0.99603   1.00952   1.02641   1.03966   1.05351
 Alpha virt. eigenvalues --    1.07603   1.10498   1.11116   1.12481   1.13685
 Alpha virt. eigenvalues --    1.14837   1.16295   1.18291   1.20074   1.21199
 Alpha virt. eigenvalues --    1.22921   1.24844   1.25782   1.27055   1.29268
 Alpha virt. eigenvalues --    1.30152   1.32214   1.33212   1.36549   1.37578
 Alpha virt. eigenvalues --    1.38461   1.39658   1.39887   1.41851   1.43470
 Alpha virt. eigenvalues --    1.45174   1.46736   1.49800   1.51114   1.55353
 Alpha virt. eigenvalues --    1.62188   1.62779   1.68005   1.69696   1.77891
 Alpha virt. eigenvalues --    1.81677   1.85143   1.87227   1.90970   1.93154
 Alpha virt. eigenvalues --    1.94323   1.95115   1.97800   2.00224   2.04398
 Alpha virt. eigenvalues --    2.07275   2.08769   2.12374   2.12981   2.16879
 Alpha virt. eigenvalues --    2.19079   2.19704   2.24721   2.29200   2.32721
 Alpha virt. eigenvalues --    2.36305   2.37927   2.39140   2.42901   2.43552
 Alpha virt. eigenvalues --    2.49898   2.50791   2.52090   2.52410   2.53102
 Alpha virt. eigenvalues --    2.57099   2.57399   2.64868   2.65843   2.66189
 Alpha virt. eigenvalues --    2.68797   2.69361   2.70721   2.71888   2.75448
 Alpha virt. eigenvalues --    2.76337   2.78959   2.79775   2.84924   2.89087
 Alpha virt. eigenvalues --    2.89859   2.91026   2.92352   2.93225   2.93596
 Alpha virt. eigenvalues --    2.95575   2.96420   2.97797   2.99975   3.00207
 Alpha virt. eigenvalues --    3.02650   3.03672   3.05311   3.07475   3.08597
 Alpha virt. eigenvalues --    3.11272   3.12279   3.12656   3.15112   3.16848
 Alpha virt. eigenvalues --    3.19164   3.22886   3.24808   3.25592   3.27492
 Alpha virt. eigenvalues --    3.28018   3.28983   3.30950   3.32800   3.33725
 Alpha virt. eigenvalues --    3.35206   3.35714   3.35956   3.38346   3.41124
 Alpha virt. eigenvalues --    3.45202   3.46600   3.48628   3.50582   3.51752
 Alpha virt. eigenvalues --    3.53918   3.55587   3.60672   3.62642   3.65081
 Alpha virt. eigenvalues --    3.68242   3.70309   3.71085   3.73110   3.73551
 Alpha virt. eigenvalues --    3.74587   3.75876   3.76050   3.77374   3.77674
 Alpha virt. eigenvalues --    3.81615   3.83081   3.83985   3.86252   3.87018
 Alpha virt. eigenvalues --    3.89536   3.92809   3.94218   3.96227   3.97487
 Alpha virt. eigenvalues --    3.99784   4.02334   4.02598   4.05843   4.06850
 Alpha virt. eigenvalues --    4.09226   4.11413   4.14012   4.14614   4.16440
 Alpha virt. eigenvalues --    4.16708   4.18802   4.21149   4.23304   4.24454
 Alpha virt. eigenvalues --    4.26278   4.28803   4.30279   4.30897   4.35301
 Alpha virt. eigenvalues --    4.37280   4.39475   4.41314   4.43211   4.46463
 Alpha virt. eigenvalues --    4.54784   4.59084   4.61609   4.62213   4.64459
 Alpha virt. eigenvalues --    4.68114   4.68877   4.73463   4.74381   4.77689
 Alpha virt. eigenvalues --    4.81277   4.85081   4.86198   4.89152   4.90912
 Alpha virt. eigenvalues --    4.95876   4.96921   5.01264   5.04944   5.07808
 Alpha virt. eigenvalues --    5.10181   5.12034   5.13967   5.15753   5.22512
 Alpha virt. eigenvalues --    5.23582   5.33320   5.33911   5.35270   5.39904
 Alpha virt. eigenvalues --    5.42291   5.45373   5.51403   5.52651   5.63728
 Alpha virt. eigenvalues --    5.69987   5.75662   5.78615   5.81413   5.84170
 Alpha virt. eigenvalues --    5.86709   5.95861   6.05948   6.10774   6.18578
 Alpha virt. eigenvalues --    6.31347   6.37382   6.39519   6.41941   6.53772
 Alpha virt. eigenvalues --    6.61561   6.65387   6.68069   6.71680   6.77823
 Alpha virt. eigenvalues --    6.91489   6.93350   7.06933   7.18052   7.64130
 Alpha virt. eigenvalues --    9.20415  10.80396  11.10488  11.85070  12.35857
 Alpha virt. eigenvalues --   12.82380  13.55597  14.88170
  Beta  occ. eigenvalues --  -19.15939 -19.10436 -10.23506 -10.22760 -10.20461
  Beta  occ. eigenvalues --  -10.20101 -10.19619 -10.19381  -1.07689  -0.91046
  Beta  occ. eigenvalues --   -0.84630  -0.76745  -0.72407  -0.63159  -0.62310
  Beta  occ. eigenvalues --   -0.55124  -0.50333  -0.49354  -0.47395  -0.44363
  Beta  occ. eigenvalues --   -0.42043  -0.41236  -0.38407  -0.36873  -0.36075
  Beta  occ. eigenvalues --   -0.32057  -0.28570  -0.25754  -0.25025
  Beta virt. eigenvalues --   -0.11700  -0.05281   0.02816   0.03166   0.06113
  Beta virt. eigenvalues --    0.06235   0.07743   0.09176   0.09706   0.10536
  Beta virt. eigenvalues --    0.12231   0.17960   0.21586   0.22294   0.23947
  Beta virt. eigenvalues --    0.24348   0.25720   0.26822   0.27953   0.30195
  Beta virt. eigenvalues --    0.33010   0.34018   0.34179   0.36408   0.36688
  Beta virt. eigenvalues --    0.38148   0.38753   0.39988   0.41224   0.41909
  Beta virt. eigenvalues --    0.43047   0.43176   0.44895   0.45861   0.47059
  Beta virt. eigenvalues --    0.47171   0.47515   0.48924   0.51398   0.52921
  Beta virt. eigenvalues --    0.54474   0.55408   0.56304   0.57333   0.61310
  Beta virt. eigenvalues --    0.62460   0.64213   0.66724   0.67772   0.68468
  Beta virt. eigenvalues --    0.69706   0.71466   0.72547   0.73743   0.74171
  Beta virt. eigenvalues --    0.76484   0.77488   0.80260   0.82835   0.87169
  Beta virt. eigenvalues --    0.88665   0.89746   0.92356   0.95416   0.97151
  Beta virt. eigenvalues --    0.99222   0.99723   1.01152   1.02811   1.04179
  Beta virt. eigenvalues --    1.05587   1.07817   1.10742   1.11364   1.12720
  Beta virt. eigenvalues --    1.13921   1.15083   1.16566   1.18569   1.20302
  Beta virt. eigenvalues --    1.21320   1.23308   1.25051   1.25910   1.27272
  Beta virt. eigenvalues --    1.29539   1.30386   1.32789   1.33567   1.36938
  Beta virt. eigenvalues --    1.37755   1.38658   1.40027   1.40195   1.42360
  Beta virt. eigenvalues --    1.43809   1.45570   1.46999   1.50289   1.51515
  Beta virt. eigenvalues --    1.55708   1.62869   1.63858   1.68842   1.71124
  Beta virt. eigenvalues --    1.78170   1.82128   1.85589   1.87489   1.91102
  Beta virt. eigenvalues --    1.93453   1.94635   1.95464   1.98534   2.00617
  Beta virt. eigenvalues --    2.04817   2.07484   2.08890   2.12384   2.13513
  Beta virt. eigenvalues --    2.17359   2.19634   2.20106   2.25922   2.29549
  Beta virt. eigenvalues --    2.33062   2.36718   2.38401   2.39526   2.43195
  Beta virt. eigenvalues --    2.43808   2.50290   2.51286   2.52316   2.52647
  Beta virt. eigenvalues --    2.53527   2.57328   2.57646   2.65208   2.66185
  Beta virt. eigenvalues --    2.66536   2.69034   2.69604   2.71046   2.72022
  Beta virt. eigenvalues --    2.75902   2.76700   2.79392   2.79998   2.85249
  Beta virt. eigenvalues --    2.89468   2.90200   2.91521   2.92789   2.93400
  Beta virt. eigenvalues --    2.94106   2.95940   2.96868   2.97921   3.00227
  Beta virt. eigenvalues --    3.00597   3.02890   3.03872   3.05509   3.07748
  Beta virt. eigenvalues --    3.08898   3.11598   3.12490   3.13017   3.15329
  Beta virt. eigenvalues --    3.17174   3.19401   3.23256   3.24998   3.25891
  Beta virt. eigenvalues --    3.27729   3.28250   3.29358   3.31268   3.33179
  Beta virt. eigenvalues --    3.33979   3.35482   3.36087   3.36357   3.38698
  Beta virt. eigenvalues --    3.41354   3.45671   3.47116   3.48947   3.50922
  Beta virt. eigenvalues --    3.52121   3.54647   3.55746   3.61052   3.62837
  Beta virt. eigenvalues --    3.65314   3.68541   3.70489   3.71347   3.73259
  Beta virt. eigenvalues --    3.73678   3.74882   3.76025   3.76326   3.77888
  Beta virt. eigenvalues --    3.78003   3.81749   3.83260   3.84621   3.86929
  Beta virt. eigenvalues --    3.87181   3.89733   3.93018   3.94542   3.96431
  Beta virt. eigenvalues --    3.97703   3.99960   4.02555   4.02810   4.06044
  Beta virt. eigenvalues --    4.06996   4.09418   4.11608   4.14243   4.14959
  Beta virt. eigenvalues --    4.16747   4.16858   4.19220   4.21294   4.23760
  Beta virt. eigenvalues --    4.25100   4.27200   4.29220   4.30497   4.31091
  Beta virt. eigenvalues --    4.35411   4.37582   4.39670   4.41539   4.44631
  Beta virt. eigenvalues --    4.46625   4.54887   4.59278   4.61782   4.62343
  Beta virt. eigenvalues --    4.64689   4.68211   4.69009   4.73603   4.74572
  Beta virt. eigenvalues --    4.77776   4.81354   4.85663   4.86729   4.89270
  Beta virt. eigenvalues --    4.91973   4.96271   4.97217   5.01337   5.05103
  Beta virt. eigenvalues --    5.07911   5.10843   5.12172   5.16222   5.17052
  Beta virt. eigenvalues --    5.23102   5.25913   5.33616   5.34963   5.35557
  Beta virt. eigenvalues --    5.40729   5.44041   5.46465   5.51931   5.53865
  Beta virt. eigenvalues --    5.63891   5.70463   5.75858   5.78803   5.82059
  Beta virt. eigenvalues --    5.84287   5.86826   5.96369   6.06179   6.10952
  Beta virt. eigenvalues --    6.18903   6.31848   6.41454   6.43143   6.45052
  Beta virt. eigenvalues --    6.56992   6.63083   6.65730   6.68624   6.72841
  Beta virt. eigenvalues --    6.79491   6.92261   6.94915   7.07290   7.20282
  Beta virt. eigenvalues --    7.65829   9.20532  10.82399  11.10582  11.85214
  Beta virt. eigenvalues --   12.36329  12.82417  13.55687  14.88345
          Condensed to atoms (all electrons):
               1          2          3          4          5          6
     1  C    4.969844   0.458872   0.019097  -0.069677   0.003246   0.343772
     2  C    0.458872   5.060567   0.296183   0.049991  -0.089075   0.010084
     3  C    0.019097   0.296183   5.217757   0.008893   0.167687  -0.110660
     4  C   -0.069677   0.049991   0.008893   5.070303   0.051570   0.069537
     5  C    0.003246  -0.089075   0.167687   0.051570   5.357803   0.390743
     6  C    0.343772   0.010084  -0.110660   0.069537   0.390743   5.043715
     7  H    0.008781  -0.002250   0.010031  -0.043989   0.433111  -0.051319
     8  H    0.007026  -0.045359   0.436211  -0.033030   0.006826  -0.001807
     9  H   -0.046004   0.430585  -0.045454   0.009444  -0.002375   0.008478
    10  O   -0.010505   0.007580   0.053994   0.266267  -0.086428   0.022522
    11  H   -0.003225   0.008317  -0.067904   0.492231  -0.096561   0.017476
    12  O    0.000358  -0.000662   0.024580  -0.046650   0.030219  -0.003399
    13  H   -0.000507   0.000886  -0.005824  -0.000624  -0.001395   0.001932
    14  H    0.432446  -0.045391   0.008906  -0.002602   0.008737  -0.049260
    15  H   -0.045317   0.006777  -0.001430   0.006902  -0.042047   0.424961
               7          8          9         10         11         12
     1  C    0.008781   0.007026  -0.046004  -0.010505  -0.003225   0.000358
     2  C   -0.002250  -0.045359   0.430585   0.007580   0.008317  -0.000662
     3  C    0.010031   0.436211  -0.045454   0.053994  -0.067904   0.024580
     4  C   -0.043989  -0.033030   0.009444   0.266267   0.492231  -0.046650
     5  C    0.433111   0.006826  -0.002375  -0.086428  -0.096561   0.030219
     6  C   -0.051319  -0.001807   0.008478   0.022522   0.017476  -0.003399
     7  H    0.528351  -0.000202   0.000047   0.000153  -0.005632   0.006240
     8  H   -0.000202   0.525013  -0.005649  -0.011060  -0.009926   0.000236
     9  H    0.000047  -0.005649   0.540327   0.000267  -0.000014   0.000013
    10  O    0.000153  -0.011060   0.000267   8.076853  -0.046392  -0.033794
    11  H   -0.005632  -0.009926  -0.000014  -0.046392   0.635696   0.000879
    12  O    0.006240   0.000236   0.000013  -0.033794   0.000879   8.067716
    13  H   -0.000573  -0.000192   0.000014   0.007053   0.000096   0.304724
    14  H   -0.000219  -0.000242  -0.007329  -0.000152   0.000012   0.000001
    15  H   -0.007877   0.000076  -0.000272   0.000009  -0.000295  -0.000059
              13         14         15
     1  C   -0.000507   0.432446  -0.045317
     2  C    0.000886  -0.045391   0.006777
     3  C   -0.005824   0.008906  -0.001430
     4  C   -0.000624  -0.002602   0.006902
     5  C   -0.001395   0.008737  -0.042047
     6  C    0.001932  -0.049260   0.424961
     7  H   -0.000573  -0.000219  -0.007877
     8  H   -0.000192  -0.000242   0.000076
     9  H    0.000014  -0.007329  -0.000272
    10  O    0.007053  -0.000152   0.000009
    11  H    0.000096   0.000012  -0.000295
    12  O    0.304724   0.000001  -0.000059
    13  H    0.477342  -0.000008   0.000047
    14  H   -0.000008   0.544338  -0.006637
    15  H    0.000047  -0.006637   0.548628
          Atomic-Atomic Spin Densities.
               1          2          3          4          5          6
     1  C    0.268164   0.018242  -0.021297   0.006775  -0.020490   0.002786
     2  C    0.018242  -0.189430  -0.001055  -0.006480   0.004301   0.000054
     3  C   -0.021297  -0.001055   0.251454   0.019809  -0.002483   0.006650
     4  C    0.006775  -0.006480   0.019809  -0.078894   0.020300  -0.008055
     5  C   -0.020490   0.004301  -0.002483   0.020300   0.199301   0.011166
     6  C    0.002786   0.000054   0.006650  -0.008055   0.011166  -0.106240
     7  H   -0.000462   0.000277  -0.000821   0.001521   0.001023   0.001065
     8  H   -0.000328   0.001576   0.001175   0.000284  -0.000108   0.000066
     9  H    0.000164  -0.002428   0.000207  -0.000512   0.000136  -0.000131
    10  O    0.000816   0.004239  -0.019930   0.026380  -0.014673   0.000088
    11  H    0.000352  -0.000843   0.002723  -0.000010  -0.001058  -0.000347
    12  O   -0.000427  -0.000370   0.011548  -0.005213   0.004621   0.000265
    13  H    0.000222   0.000045  -0.001015   0.000307  -0.001354  -0.000165
    14  H    0.003708   0.000720  -0.000235   0.000140  -0.000273   0.000812
    15  H   -0.000316   0.000004   0.000033  -0.000064  -0.000143  -0.001607
               7          8          9         10         11         12
     1  C   -0.000462  -0.000328   0.000164   0.000816   0.000352  -0.000427
     2  C    0.000277   0.001576  -0.002428   0.004239  -0.000843  -0.000370
     3  C   -0.000821   0.001175   0.000207  -0.019930   0.002723   0.011548
     4  C    0.001521   0.000284  -0.000512   0.026380  -0.000010  -0.005213
     5  C    0.001023  -0.000108   0.000136  -0.014673  -0.001058   0.004621
     6  C    0.001065   0.000066  -0.000131   0.000088  -0.000347   0.000265
     7  H   -0.010404   0.000013   0.000002   0.000450  -0.000129  -0.000828
     8  H    0.000013  -0.011925  -0.000014   0.002871  -0.000123  -0.000527
     9  H    0.000002  -0.000014   0.006960   0.000284  -0.000003  -0.000007
    10  O    0.000450   0.002871   0.000284   0.051844  -0.005957  -0.119544
    11  H   -0.000129  -0.000123  -0.000003  -0.005957   0.011445   0.002839
    12  O   -0.000828  -0.000527  -0.000007  -0.119544   0.002839   0.774182
    13  H    0.000183   0.000057   0.000002   0.007674  -0.000310  -0.002967
    14  H    0.000003   0.000009   0.000167  -0.000024   0.000001   0.000001
    15  H    0.000165   0.000002  -0.000009   0.000023  -0.000020  -0.000004
              13         14         15
     1  C    0.000222   0.003708  -0.000316
     2  C    0.000045   0.000720   0.000004
     3  C   -0.001015  -0.000235   0.000033
     4  C    0.000307   0.000140  -0.000064
     5  C   -0.001354  -0.000273  -0.000143
     6  C   -0.000165   0.000812  -0.001607
     7  H    0.000183   0.000003   0.000165
     8  H    0.000057   0.000009   0.000002
     9  H    0.000002   0.000167  -0.000009
    10  O    0.007674  -0.000024   0.000023
    11  H   -0.000310   0.000001  -0.000020
    12  O   -0.002967   0.000001  -0.000004
    13  H   -0.009124   0.000000   0.000002
    14  H    0.000000  -0.015050   0.000090
    15  H    0.000002   0.000090   0.005162
 Mulliken charges and spin densities:
               1          2
     1  C   -0.068207   0.257910
     2  C   -0.147106  -0.171147
     3  C   -0.012068   0.246762
     4  C    0.171435  -0.023711
     5  C   -0.132063   0.200267
     6  C   -0.116776  -0.093595
     7  H    0.125345  -0.007942
     8  H    0.132080  -0.006975
     9  H    0.117920   0.004818
    10  O   -0.246367  -0.065459
    11  H    0.075243   0.008559
    12  O   -0.350404   0.663570
    13  H    0.217031  -0.006443
    14  H    0.117401  -0.009932
    15  H    0.116535   0.003317
 Sum of Mulliken charges =  -0.00000   1.00000
 Mulliken charges and spin densities with hydrogens summed into heavy atoms:
               1          2
     1  C    0.049194   0.247978
     2  C   -0.029186  -0.166329
     3  C    0.120011   0.239787
     4  C    0.246678  -0.015151
     5  C   -0.006717   0.192325
     6  C   -0.000241  -0.090278
    10  O   -0.246367  -0.065459
    12  O   -0.133372   0.657127
 APT charges:
               1
     1  C   -0.529026
     2  C   -0.573813
     3  C   -0.433269
     4  C   -0.348207
     5  C   -0.517647
     6  C   -0.500189
     7  H    0.496309
     8  H    0.505876
     9  H    0.592626
    10  O   -0.074213
    11  H    0.397787
    12  O   -0.595270
    13  H    0.394693
    14  H    0.619273
    15  H    0.565071
 Sum of APT charges =  -0.00000
 APT charges with hydrogens summed into heavy atoms:
               1
     1  C    0.090247
     2  C    0.018813
     3  C    0.072607
     4  C    0.049580
     5  C   -0.021338
     6  C    0.064882
    10  O   -0.074213
    12  O   -0.200577
 Electronic spatial extent (au):  <R**2>=            886.4866
 Charge=             -0.0000 electrons
 Dipole moment (field-independent basis, Debye):
    X=              3.3335    Y=              0.5084    Z=              0.1408  Tot=              3.3750
 Quadrupole moment (field-independent basis, Debye-Ang):
   XX=            -51.7938   YY=            -41.6829   ZZ=            -44.7912
   XY=             -1.7721   XZ=             -1.9627   YZ=             -1.9431
 Traceless Quadrupole moment (field-independent basis, Debye-Ang):
   XX=             -5.7045   YY=              4.4064   ZZ=              1.2981
   XY=             -1.7721   XZ=             -1.9627   YZ=             -1.9431
 Octapole moment (field-independent basis, Debye-Ang**2):
  XXX=             14.2015  YYY=             -2.7162  ZZZ=             -6.0175  XYY=             -1.9781
  XXY=              3.9049  XXZ=            -10.7661  XZZ=            -13.6564  YZZ=              1.4428
  YYZ=             -0.2885  XYZ=              3.2158
 Hexadecapole moment (field-independent basis, Debye-Ang**3):
 XXXX=           -729.7532 YYYY=           -297.8448 ZZZZ=           -130.7846 XXXY=             -8.3280
 XXXZ=             -6.0620 YYYX=             -2.1281 YYYZ=             -2.0835 ZZZX=             13.5838
 ZZZY=             -5.4097 XXYY=           -158.2877 XXZZ=           -121.0678 YYZZ=            -77.3096
 XXYZ=            -10.2097 YYXZ=             -2.1252 ZZXY=             -5.9429
 N-N= 3.599332935467D+02 E-N=-1.615370331771D+03  KE= 3.811607089258D+02
  Exact polarizability:   0.000   0.000   0.000   0.000   0.000   0.000
 Approx polarizability: 198.439 -11.147 132.340  -7.392  -1.943  89.843
                          Isotropic Fermi Contact Couplings
        Atom                 a.u.       MegaHertz       Gauss      10(-4) cm-1
     1  C(13)              0.01259      14.15564       5.05108       4.72181
     2  C(13)             -0.01676     -18.84432      -6.72412      -6.28579
     3  C(13)              0.00661       7.43411       2.65268       2.47975
     4  C(13)             -0.01124     -12.63036      -4.50683      -4.21303
     5  C(13)              0.00777       8.73170       3.11569       2.91258
     6  C(13)             -0.01200     -13.49509      -4.81538      -4.50148
     7  H(1)              -0.00326     -14.56241      -5.19623      -4.85750
     8  H(1)              -0.00334     -14.92611      -5.32601      -4.97882
     9  H(1)               0.00201       8.98971       3.20775       2.99864
    10  O(17)              0.54047    -327.62999    -116.90653    -109.28560
    11  H(1)               0.00503      22.46527       8.01617       7.49361
    12  O(17)              0.05960     -36.13015     -12.89214     -12.05172
    13  H(1)              -0.00965     -43.15519     -15.39884     -14.39502
    14  H(1)              -0.00376     -16.81739      -6.00086      -5.60968
    15  H(1)               0.00130       5.78928       2.06576       1.93109
 --------------------------------------------------------
       Center         ----  Spin Dipole Couplings  ----
                      3XX-RR        3YY-RR        3ZZ-RR
 --------------------------------------------------------
     1   Atom       -0.027449     -0.157984      0.185432
     2   Atom        0.050275      0.093263     -0.143538
     3   Atom       -0.033521     -0.158765      0.192286
     4   Atom       -0.006243     -0.001796      0.008038
     5   Atom       -0.034035     -0.116300      0.150335
     6   Atom        0.018381      0.043872     -0.062252
     7   Atom       -0.003777      0.006295     -0.002518
     8   Atom       -0.008797      0.012642     -0.003846
     9   Atom        0.003451     -0.000485     -0.002966
    10   Atom       -0.305199      0.116350      0.188849
    11   Atom       -0.000061     -0.003459      0.003520
    12   Atom        1.593928     -0.221949     -1.371979
    13   Atom       -0.031828     -0.041362      0.073190
    14   Atom        0.015347     -0.020550      0.005203
    15   Atom        0.003071     -0.000819     -0.002252
 --------------------------------------------------------
                        XY            XZ            YZ
 --------------------------------------------------------
     1   Atom        0.004239      0.197185      0.008642
     2   Atom       -0.000493     -0.108930     -0.011739
     3   Atom       -0.003102      0.220819     -0.023051
     4   Atom        0.016984      0.001781      0.004125
     5   Atom       -0.007901      0.152337     -0.012883
     6   Atom        0.000823     -0.066729      0.007553
     7   Atom       -0.009307      0.005198      0.008447
     8   Atom        0.010732      0.006838     -0.008781
     9   Atom        0.007812     -0.003366     -0.003756
    10   Atom        0.258672     -0.006679      0.038924
    11   Atom       -0.000997      0.003690     -0.001478
    12   Atom       -1.856444      0.081574     -0.058109
    13   Atom       -0.011377     -0.039408     -0.074927
    14   Atom        0.002139     -0.007333     -0.000896
    15   Atom       -0.002103     -0.003372      0.001784
 --------------------------------------------------------


 ---------------------------------------------------------------------------------
              Anisotropic Spin Dipole Couplings in Principal Axis System
 ---------------------------------------------------------------------------------

       Atom             a.u.   MegaHertz   Gauss  10(-4) cm-1        Axes

              Baa    -0.1582   -21.233    -7.576    -7.083  0.0407  0.9980 -0.0484
     1 C(13)  Bbb    -0.1450   -19.463    -6.945    -6.492  0.8579 -0.0598 -0.5103
              Bcc     0.3033    40.696    14.521    13.575  0.5122  0.0208  0.8586
 
              Baa    -0.1928   -25.878    -9.234    -8.632  0.4087  0.0381  0.9119
     2 C(13)  Bbb     0.0913    12.248     4.370     4.086 -0.4546  0.8749  0.1672
              Bcc     0.1016    13.629     4.863     4.546  0.7914  0.4829 -0.3748
 
              Baa    -0.1745   -23.422    -8.358    -7.813  0.7095 -0.5334 -0.4606
     3 C(13)  Bbb    -0.1538   -20.635    -7.363    -6.883  0.4749  0.8448 -0.2467
              Bcc     0.3283    44.058    15.721    14.696  0.5207 -0.0437  0.8526
 
              Baa    -0.0212    -2.847    -1.016    -0.950  0.7468 -0.6633  0.0481
     4 C(13)  Bbb     0.0057     0.759     0.271     0.253 -0.3615 -0.3441  0.8665
              Bcc     0.0156     2.088     0.745     0.696  0.5583  0.6645  0.4968
 
              Baa    -0.1200   -16.104    -5.746    -5.372  0.8608  0.1784 -0.4766
     5 C(13)  Bbb    -0.1168   -15.680    -5.595    -5.230 -0.1349  0.9830  0.1243
              Bcc     0.2369    31.784    11.341    10.602  0.4907 -0.0427  0.8703
 
              Baa    -0.1002   -13.451    -4.800    -4.487  0.4900 -0.0484  0.8704
     6 C(13)  Bbb     0.0435     5.837     2.083     1.947  0.2254  0.9715 -0.0729
              Bcc     0.0567     7.614     2.717     2.540  0.8421 -0.2319 -0.4869
 
              Baa    -0.0156    -8.323    -2.970    -2.776  0.6463  0.4979 -0.5783
     7 H(1)   Bbb     0.0021     1.114     0.397     0.371  0.6701 -0.0077  0.7422
              Bcc     0.0135     7.209     2.572     2.405 -0.3651  0.8672  0.3386
 
              Baa    -0.0195   -10.428    -3.721    -3.478  0.7405 -0.3952 -0.5436
     8 H(1)   Bbb     0.0009     0.485     0.173     0.162  0.6054  0.0411  0.7948
              Bcc     0.0186     9.943     3.548     3.317  0.2918  0.9177 -0.2697
 
              Baa    -0.0069    -3.682    -1.314    -1.228 -0.4926  0.8001  0.3423
     9 H(1)   Bbb    -0.0044    -2.334    -0.833    -0.778  0.4671 -0.0888  0.8797
              Bcc     0.0113     6.016     2.147     2.007  0.7343  0.5932 -0.3300
 
              Baa    -0.4289    31.037    11.075    10.353  0.9019 -0.4305  0.0369
    10 O(17)  Bbb     0.1738   -12.575    -4.487    -4.194 -0.2203 -0.3848  0.8963
              Bcc     0.2552   -18.463    -6.588    -6.159  0.3716  0.8165  0.4419
 
              Baa    -0.0038    -2.023    -0.722    -0.675  0.1321  0.9824  0.1319
    11 H(1)   Bbb    -0.0024    -1.264    -0.451    -0.422  0.8420 -0.0410 -0.5379
              Bcc     0.0062     3.287     1.173     1.097  0.5230 -0.1821  0.8327
 
              Baa    -1.3843   100.170    35.743    33.413  0.4404  0.7295  0.5233
    12 O(17)  Bbb    -1.3707    99.179    35.390    33.083 -0.2947 -0.4331  0.8518
              Bcc     2.7550  -199.349   -71.133   -66.496  0.8481 -0.5293  0.0242
 
              Baa    -0.0921   -49.151   -17.538   -16.395  0.4434  0.7719  0.4556
    13 H(1)   Bbb    -0.0245   -13.048    -4.656    -4.352  0.8725 -0.4880 -0.0224
              Bcc     0.1166    62.199    22.194    20.747 -0.2051 -0.4074  0.8899
 
              Baa    -0.0207   -11.037    -3.938    -3.681 -0.0554  0.9983  0.0189
    14 H(1)   Bbb     0.0014     0.726     0.259     0.242  0.4632  0.0090  0.8862
              Bcc     0.0193    10.311     3.679     3.439  0.8845  0.0578 -0.4629
 
              Baa    -0.0041    -2.177    -0.777    -0.726  0.3448 -0.2696  0.8991
    15 H(1)   Bbb    -0.0017    -0.914    -0.326    -0.305  0.4541  0.8862  0.0916
              Bcc     0.0058     3.090     1.103     1.031  0.8215 -0.3768 -0.4280
 

 ---------------------------------------------------------------------------------

 Calling FoFJK, ICntrl=    100147 FMM=F ISym2X=0 I1Cent= 0 IOpClX= 1 NMat=1 NMatS=1 NMatT=0.
 ***** Axes restored to original set *****
 -------------------------------------------------------------------
 Center     Atomic                   Forces (Hartrees/Bohr)
 Number     Number              X              Y              Z
 -------------------------------------------------------------------
      1        6          -0.006021539   -0.034275789    0.006230713
      2        6           0.007747591    0.028475736   -0.015647125
      3        6           0.039968491   -0.054322741   -0.006338443
      4        6          -0.014932851    0.050415354    0.045275148
      5        6           0.009053368    0.002228249   -0.005076571
      6        6          -0.014073935    0.009414486    0.005820896
      7        1           0.000891984   -0.000204015    0.001323818
      8        1           0.004364402   -0.000435617    0.005667778
      9        1          -0.002233444   -0.000361375    0.001695988
     10        8           0.000340888   -0.018485073   -0.038300458
     11        1          -0.000190790    0.003288318    0.002214626
     12        8          -0.028863901    0.016157279   -0.001623478
     13        1           0.003196890   -0.001394142   -0.002163227
     14        1           0.000813846   -0.000522994    0.000890722
     15        1          -0.000060999    0.000022325    0.000029613
 -------------------------------------------------------------------
 Cartesian Forces:  Max     0.054322741 RMS     0.018381099
 FormGI is forming the generalized inverse of G from B-inverse, IUseBI=4.

 GradGradGradGradGradGradGradGradGradGradGradGradGradGradGradGradGradGrad
 Berny optimization.
 Internal  Forces:  Max     0.041585357 RMS     0.009026675
 Search for a saddle point.
 Step number   1 out of a maximum of   85
 All quantities printed in internal units (Hartrees-Bohrs-Radians)
 Swapping is turned off.
 Second derivative matrix not updated -- analytic derivatives used.
 ITU=  0
     Eigenvalues ---   -0.08920   0.00009   0.00304   0.00842   0.01165
     Eigenvalues ---    0.01605   0.01770   0.01966   0.02270   0.02495
     Eigenvalues ---    0.02731   0.03836   0.04435   0.07262   0.07371
     Eigenvalues ---    0.08630   0.10057   0.10692   0.11662   0.11831
     Eigenvalues ---    0.12426   0.13232   0.15453   0.17502   0.19003
     Eigenvalues ---    0.26273   0.28653   0.31630   0.32230   0.35074
     Eigenvalues ---    0.35543   0.35801   0.36017   0.36141   0.36476
     Eigenvalues ---    0.38972   0.42401   0.50482   0.51510
 Eigenvectors required to have negative eigenvalues:
                          R8        R15       D23       D24       D18
   1                    0.60611  -0.60091  -0.22182  -0.21418   0.15702
                          R4        R1        A23       D15       D22
   1                   -0.14977   0.10904  -0.10213  -0.09967   0.09770
 RFO step:  Lambda0=2.051578186D-03 Lambda=-2.13929651D-02.
 Linear search not attempted -- option 19 set.
 Maximum step size (   0.300) exceeded in Quadratic search.
    -- Step size scaled by   0.894
 Iteration  1 RMS(Cart)=  0.03046111 RMS(Int)=  0.00328352
 Iteration  2 RMS(Cart)=  0.00409806 RMS(Int)=  0.00036658
 Iteration  3 RMS(Cart)=  0.00000963 RMS(Int)=  0.00036650
 Iteration  4 RMS(Cart)=  0.00000001 RMS(Int)=  0.00036650
 Variable       Old X    -DE/DX   Delta X   Delta X   Delta X     New X
                                 (Linear)    (Quad)   (Total)
    R1        2.64619  -0.02555   0.00000  -0.04761  -0.04766   2.59853
    R2        2.68339   0.01550   0.00000   0.02344   0.02337   2.70675
    R3        2.04293   0.00023   0.00000   0.00106   0.00106   2.04399
    R4        2.68567  -0.00334   0.00000  -0.02978  -0.02976   2.65591
    R5        2.04475  -0.00126   0.00000  -0.00120  -0.00120   2.04355
    R6        2.66352   0.04159   0.00000   0.09825   0.09813   2.76165
    R7        2.03713   0.00045   0.00000  -0.00197  -0.00197   2.03516
    R8        3.14148   0.02615   0.00000   0.23062   0.23158   3.37306
    R9        2.81563  -0.00109   0.00000   0.00329   0.00334   2.81897
   R10        2.56064   0.03337   0.00000   0.07706   0.07603   2.63668
   R11        2.06238   0.00184   0.00000  -0.00051  -0.00051   2.06187
   R12        2.56584  -0.00824   0.00000  -0.01565  -0.01568   2.55016
   R13        2.04227  -0.00015   0.00000   0.00039   0.00039   2.04267
   R14        2.04586  -0.00001   0.00000  -0.00060  -0.00060   2.04525
   R15        3.35918   0.02983   0.00000   0.06405   0.06405   3.42323
   R16        1.82559   0.00210   0.00000   0.00207   0.00207   1.82765
    A1        2.10264   0.00696   0.00000   0.01033   0.01015   2.11279
    A2        2.09314  -0.00403   0.00000  -0.00199  -0.00191   2.09122
    A3        2.08675  -0.00291   0.00000  -0.00830  -0.00820   2.07855
    A4        2.07949   0.00163   0.00000   0.01550   0.01531   2.09480
    A5        2.08705   0.00177   0.00000   0.01135   0.01121   2.09826
    A6        2.11512  -0.00329   0.00000  -0.02516  -0.02530   2.08982
    A7        2.12321  -0.00538   0.00000  -0.00856  -0.00983   2.11338
    A8        2.08508   0.00262   0.00000   0.02851   0.02840   2.11348
    A9        2.13745  -0.00736   0.00000  -0.04492  -0.04500   2.09245
   A10        2.06939   0.00257   0.00000  -0.01408  -0.01429   2.05511
   A11        1.72671   0.00522   0.00000   0.01087   0.01079   1.73750
   A12        2.03993  -0.00216   0.00000  -0.02312  -0.02327   2.01666
   A13        2.04334   0.00464   0.00000   0.00233   0.00231   2.04565
   A14        2.03558  -0.00198   0.00000  -0.02480  -0.02469   2.01089
   A15        1.99042  -0.00114   0.00000  -0.00287  -0.00325   1.98717
   A16        1.96167   0.00814   0.00000   0.00722   0.00718   1.96884
   A17        2.09786  -0.00411   0.00000   0.00557   0.00550   2.10337
   A18        2.06428   0.00221   0.00000  -0.00360  -0.00358   2.06071
   A19        2.12055   0.00188   0.00000  -0.00188  -0.00184   2.11870
   A20        2.11385   0.00347   0.00000  -0.00043  -0.00058   2.11328
   A21        2.07471  -0.00162   0.00000  -0.00374  -0.00367   2.07104
   A22        2.09426  -0.00183   0.00000   0.00409   0.00417   2.09843
   A23        2.83303   0.00537   0.00000  -0.03267  -0.03260   2.80044
   A24        1.89399  -0.00141   0.00000  -0.00722  -0.00747   1.88652
   A25        1.71846  -0.00627   0.00000  -0.07819  -0.07819   1.64027
    D1        0.10809  -0.00225   0.00000  -0.03217  -0.03254   0.07555
    D2       -3.09213  -0.00022   0.00000  -0.00071  -0.00045  -3.09259
    D3       -3.07257  -0.00177   0.00000  -0.03115  -0.03168  -3.10425
    D4        0.01039   0.00026   0.00000   0.00031   0.00041   0.01080
    D5       -0.04396   0.00014   0.00000   0.00133   0.00092  -0.04303
    D6        3.06872   0.00122   0.00000  -0.00165  -0.00200   3.06672
    D7        3.13656  -0.00031   0.00000   0.00018  -0.00007   3.13649
    D8       -0.03395   0.00077   0.00000  -0.00280  -0.00299  -0.03694
    D9       -0.05015   0.00189   0.00000   0.06783   0.06759   0.01744
   D10       -3.07755   0.00367   0.00000   0.00810   0.00765  -3.06990
   D11        1.02727   0.00038   0.00000   0.00780   0.00857   1.03583
   D12       -3.13213  -0.00036   0.00000   0.03455   0.03440  -3.09774
   D13        0.12365   0.00142   0.00000  -0.02518  -0.02554   0.09811
   D14       -2.05472  -0.00187   0.00000  -0.02548  -0.02462  -2.07934
   D15       -0.06502   0.00051   0.00000  -0.06738  -0.06651  -0.13153
   D16       -2.51792  -0.00093   0.00000  -0.03265  -0.03209  -2.55001
   D17        2.96337  -0.00124   0.00000  -0.00547  -0.00581   2.95757
   D18        0.51047  -0.00268   0.00000   0.02926   0.02862   0.53909
   D19       -2.18146   0.00252   0.00000   0.02944   0.02892  -2.15254
   D20        1.76915  -0.00056   0.00000   0.01412   0.01426   1.78341
   D21        0.12913  -0.00318   0.00000   0.03450   0.03409   0.16322
   D22       -3.04565  -0.00346   0.00000   0.03755   0.03695  -3.00870
   D23       -1.34793   0.00978   0.00000  -0.01593  -0.01541  -1.36334
   D24        1.76048   0.00950   0.00000  -0.01288  -0.01255   1.74793
   D25        2.60244   0.00048   0.00000   0.00315   0.00332   2.60576
   D26       -0.57234   0.00020   0.00000   0.00619   0.00618  -0.56616
   D27       -1.27932  -0.00402   0.00000   0.00187   0.00226  -1.27707
   D28        1.06626   0.00110   0.00000  -0.02106  -0.02071   1.04555
   D29       -0.07650   0.00191   0.00000  -0.00436  -0.00467  -0.08117
   D30        3.09433   0.00082   0.00000  -0.00122  -0.00157   3.09275
   D31        3.09937   0.00219   0.00000  -0.00748  -0.00760   3.09177
   D32       -0.01299   0.00110   0.00000  -0.00434  -0.00450  -0.01749
   D33        2.25654   0.00084   0.00000   0.00504   0.00491   2.26146
   D34        1.98500   0.00059   0.00000   0.03870   0.03883   2.02383
         Item               Value     Threshold  Converged?
 Maximum Force            0.041585     0.000450     NO 
 RMS     Force            0.009027     0.000300     NO 
 Maximum Displacement     0.128676     0.001800     NO 
 RMS     Displacement     0.033448     0.001200     NO 
 Predicted change in Energy=-1.054592D-02
 GradGradGradGradGradGradGradGradGradGradGradGradGradGradGradGradGradGrad

                          Input orientation:                          
 ---------------------------------------------------------------------
 Center     Atomic      Atomic             Coordinates (Angstroms)
 Number     Number       Type             X           Y           Z
 ---------------------------------------------------------------------
      1          6           0        2.034451    0.079279   -0.501370
      2          6           0        1.535346   -1.162243   -0.184551
      3          6           0        0.297645   -1.276130    0.471503
      4          6           0       -0.489296   -0.091853    0.809010
      5          6           0        0.185016    1.217532    0.572181
      6          6           0        1.357851    1.273865   -0.092947
      7          1           0       -0.307134    2.113835    0.922671
      8          1           0       -0.078903   -2.234792    0.786185
      9          1           0        2.080397   -2.054601   -0.460302
     10          8           0       -1.175774   -0.613909   -0.287794
     11          1           0       -1.073837   -0.127055    1.729641
     12          8           0       -2.684181    0.361146   -0.523345
     13          1           0       -2.413256    0.695781   -1.389373
     14          1           0        2.970499    0.161993   -1.037000
     15          1           0        1.820526    2.229745   -0.301760
 ---------------------------------------------------------------------
                    Distance matrix (angstroms):
                    1          2          3          4          5
     1  C    0.000000
     2  C    1.375085   0.000000
     3  C    2.408342   1.405446   0.000000
     4  C    2.848804   2.496412   1.461403   0.000000
     5  C    2.422508   2.838902   2.498234   1.491735   0.000000
     6  C    1.432352   2.444283   2.818708   2.467927   1.349486
     7  H    3.413259   3.918336   3.472920   2.216114   1.080932
     8  H    3.388066   2.167599   1.076961   2.182001   3.469004
     9  H    2.134770   1.081398   2.156961   3.473738   3.919865
    10  O    3.291150   2.767941   1.784946   1.395269   2.438336
    11  H    3.831637   3.397584   2.187293   1.091095   2.175394
    12  O    4.727094   4.498877   3.544246   2.607278   3.188395
    13  H    4.577197   4.527174   3.834094   3.025703   3.297110
    14  H    1.081631   2.130713   3.389385   3.929679   3.385638
    15  H    2.170279   3.405972   3.899776   3.458165   2.112638
                    6          7          8          9         10
     6  C    0.000000
     7  H    2.123489   0.000000
     8  H    3.892018   4.356750   0.000000
     9  H    3.425742   4.998878   2.499755   0.000000
    10  O    3.165582   3.108110   2.232447   3.564828   0.000000
    11  H    3.346268   2.502123   2.514470   4.296566   2.077851
    12  O    4.166092   3.288348   3.904003   5.342378   1.811493
    13  H    4.029411   3.433974   4.332495   5.349831   2.111901
    14  H    2.174426   4.288692   4.285725   2.457265   4.284264
    15  H    1.082302   2.457560   4.972277   4.295146   4.130905
                   11         12         13         14         15
    11  H    0.000000
    12  O    2.812026   0.000000
    13  H    3.492757   0.967153   0.000000
    14  H    4.908616   5.681453   5.421616   0.000000
    15  H    4.249521   4.881920   4.632587   2.477622   0.000000
 Stoichiometry    C6H7O2(2)
 Framework group  C1[X(C6H7O2)]
 Deg. of freedom    39
 Full point group                 C1      NOp   1
 Largest Abelian subgroup         C1      NOp   1
 Largest concise Abelian subgroup C1      NOp   1
                         Standard orientation:                         
 ---------------------------------------------------------------------
 Center     Atomic      Atomic             Coordinates (Angstroms)
 Number     Number       Type             X           Y           Z
 ---------------------------------------------------------------------
      1          6           0        1.996112    0.190321   -0.519372
      2          6           0        1.554669   -1.075635   -0.213852
      3          6           0        0.328711   -1.251655    0.450469
      4          6           0       -0.506603   -0.107243    0.808617
      5          6           0        0.107562    1.233264    0.582532
      6          6           0        1.271171    1.349044   -0.091057
      7          1           0       -0.420504    2.102819    0.947820
      8          1           0       -0.002732   -2.229626    0.756350
      9          1           0        2.136038   -1.939808   -0.504777
     10          8           0       -1.178680   -0.645934   -0.289062
     11          1           0       -1.081289   -0.179063    1.733315
     12          8           0       -2.730363    0.264536   -0.500799
     13          1           0       -2.481668    0.621030   -1.364771
     14          1           0        2.923098    0.320497   -1.061292
     15          1           0        1.689666    2.326768   -0.291790
 ---------------------------------------------------------------------
 Rotational constants (GHZ):           3.8357496           1.7003398           1.3800546
 Standard basis: CC-pVTZ+d (5D, 7F)
 There are   385 symmetry adapted cartesian basis functions of A   symmetry.
 There are   338 symmetry adapted basis functions of A   symmetry.
   338 basis functions,   535 primitive gaussians,   385 cartesian basis functions
    30 alpha electrons       29 beta electrons
       nuclear repulsion energy       356.3169964855 Hartrees.
 NAtoms=   15 NActive=   15 NUniq=   15 SFac= 1.00D+00 NAtFMM=   60 NAOKFM=F Big=F
 Integral buffers will be    131072 words long.
 Raffenetti 2 integral format.
 Two-electron integral symmetry is turned on.
 One-electron integrals computed using PRISM.
 NBasis=   338 RedAO= T EigKep=  4.98D-05  NBF=   338
 NBsUse=   338 1.00D-06 EigRej= -1.00D+00 NBFU=   338
 Initial guess from the checkpoint file:  "QOOH-OH-Elim-ortho-TS-b3lyp.chk"
 B after Tr=    -0.000000   -0.000000   -0.000000
         Rot=    0.999868   -0.008321   -0.003475   -0.013502 Ang=  -1.86 deg.
 Initial guess <Sx>= 0.0000 <Sy>= 0.0000 <Sz>= 0.5000 <S**2>= 0.8199 S= 0.5343
 ExpMin= 1.03D-01 ExpMax= 1.53D+04 ExpMxC= 5.22D+02 IAcc=3 IRadAn=         5 AccDes= 0.00D+00
 Harris functional with IExCor=  402 and IRadAn=       5 diagonalized for initial guess.
 HarFok:  IExCor=  402 AccDes= 0.00D+00 IRadAn=         5 IDoV= 1 UseB2=F ITyADJ=14
 ICtDFT=  3500011 ScaDFX=  1.000000  1.000000  1.000000  1.000000
 FoFCou: FMM=F IPFlag=           0 FMFlag=      100000 FMFlg1=           0
         NFxFlg=           0 DoJE=T BraDBF=F KetDBF=T FulRan=T
         wScrn=  0.000000 ICntrl=       500 IOpCl=  0 I1Cent=   200000004 NGrid=           0
         NMat0=    1 NMatS0=      1 NMatT0=    0 NMatD0=    1 NMtDS0=    0 NMtDT0=    0
 Petite list used in FoFCou.
 Requested convergence on RMS density matrix=1.00D-08 within 128 cycles.
 Requested convergence on MAX density matrix=1.00D-06.
 Requested convergence on             energy=1.00D-06.
 No special actions if energy rises.
 Integral accuracy reduced to 1.0D-05 until final iterations.
 Initial convergence to 1.0D-05 achieved.  Increase integral accuracy.
 SCF Done:  E(UB3LYP) =  -383.245831690     A.U. after   19 cycles
            NFock= 19  Conv=0.71D-08     -V/T= 2.0060
 <Sx>= 0.0000 <Sy>= 0.0000 <Sz>= 0.5000 <S**2>= 0.8352 S= 0.5417
 <L.S>= 0.000000000000E+00
 Annihilation of the first spin contaminant:
 S**2 before annihilation     0.8352,   after     0.7527
 Calling FoFJK, ICntrl=      2127 FMM=F ISym2X=0 I1Cent= 0 IOpClX= 1 NMat=1 NMatS=1 NMatT=0.
 ***** Axes restored to original set *****
 -------------------------------------------------------------------
 Center     Atomic                   Forces (Hartrees/Bohr)
 Number     Number              X              Y              Z
 -------------------------------------------------------------------
      1        6           0.000398617   -0.004596174    0.001457422
      2        6          -0.000096856    0.004228096   -0.006195863
      3        6           0.013303415   -0.015693280    0.003834890
      4        6          -0.004330144    0.013203253    0.010057854
      5        6           0.001408773    0.000178182   -0.000470492
      6        6          -0.002755213    0.002137521    0.000335872
      7        1           0.000362743   -0.000075288    0.000691823
      8        1           0.001403436   -0.000527119    0.001684718
      9        1          -0.000329885   -0.000263931    0.000581600
     10        8          -0.002106229   -0.003993358   -0.011564996
     11        1          -0.000386746    0.000462418    0.000037145
     12        8          -0.008081313    0.005839737   -0.000258862
     13        1           0.000808592   -0.000920366   -0.000610309
     14        1           0.000325697    0.000065828    0.000438664
     15        1           0.000075113   -0.000045518   -0.000019466
 -------------------------------------------------------------------
 Cartesian Forces:  Max     0.015693280 RMS     0.004918837

 GradGradGradGradGradGradGradGradGradGradGradGradGradGradGradGradGradGrad
 Berny optimization.
 FormGI is forming the generalized inverse of G from B-inverse, IUseBI=4.
 Internal  Forces:  Max     0.011305541 RMS     0.002434973
 Search for a saddle point.
 Step number   2 out of a maximum of   85
 All quantities printed in internal units (Hartrees-Bohrs-Radians)
 Swapping is turned off.
 Update second derivatives using D2CorX and points    1    2
 ITU=  0  0
     Eigenvalues ---   -0.08812   0.00010   0.00319   0.00850   0.01167
     Eigenvalues ---    0.01606   0.01771   0.01982   0.02352   0.02498
     Eigenvalues ---    0.02736   0.03833   0.04445   0.07300   0.07350
     Eigenvalues ---    0.08621   0.10013   0.10696   0.11551   0.11823
     Eigenvalues ---    0.12393   0.13215   0.14741   0.17401   0.18995
     Eigenvalues ---    0.26130   0.28655   0.31506   0.31839   0.34936
     Eigenvalues ---    0.35525   0.35793   0.36003   0.36129   0.36377
     Eigenvalues ---    0.38694   0.41844   0.50442   0.51509
 Eigenvectors required to have negative eigenvalues:
                          R8        R15       D23       D24       D18
   1                   -0.61355   0.59915   0.21995   0.21295  -0.15027
                          R4        R1        A23       A16       D15
   1                    0.14791  -0.11319   0.09799   0.09497   0.09402
 RFO step:  Lambda0=2.002196150D-05 Lambda=-3.03772182D-03.
 Linear search not attempted -- option 19 set.
 Iteration  1 RMS(Cart)=  0.03112476 RMS(Int)=  0.00294265
 Iteration  2 RMS(Cart)=  0.00179659 RMS(Int)=  0.00045474
 Iteration  3 RMS(Cart)=  0.00001433 RMS(Int)=  0.00045465
 Iteration  4 RMS(Cart)=  0.00000001 RMS(Int)=  0.00045465
 Variable       Old X    -DE/DX   Delta X   Delta X   Delta X     New X
                                 (Linear)    (Quad)   (Total)
    R1        2.59853  -0.00246   0.00000  -0.00377  -0.00401   2.59453
    R2        2.70675   0.00320   0.00000   0.00440   0.00412   2.71088
    R3        2.04399   0.00007   0.00000   0.00031   0.00031   2.04430
    R4        2.65591   0.00055   0.00000  -0.00277  -0.00273   2.65318
    R5        2.04355  -0.00010   0.00000   0.00007   0.00007   2.04361
    R6        2.76165   0.01131   0.00000   0.03871   0.03893   2.80058
    R7        2.03516   0.00047   0.00000   0.00071   0.00071   2.03587
    R8        3.37306   0.00979   0.00000   0.09033   0.09066   3.46372
    R9        2.81897  -0.00023   0.00000  -0.00112  -0.00090   2.81807
   R10        2.63668   0.00861   0.00000   0.02452   0.02414   2.66082
   R11        2.06187   0.00022   0.00000  -0.00111  -0.00111   2.06076
   R12        2.55016  -0.00089   0.00000  -0.00271  -0.00276   2.54740
   R13        2.04267  -0.00000   0.00000  -0.00008  -0.00008   2.04258
   R14        2.04525  -0.00000   0.00000  -0.00025  -0.00025   2.04501
   R15        3.42323   0.00882   0.00000   0.06916   0.06916   3.49239
   R16        1.82765   0.00046   0.00000   0.00051   0.00051   1.82817
    A1        2.11279   0.00135   0.00000   0.00386   0.00357   2.11636
    A2        2.09122  -0.00062   0.00000  -0.00128  -0.00114   2.09009
    A3        2.07855  -0.00072   0.00000  -0.00260  -0.00244   2.07611
    A4        2.09480   0.00015   0.00000   0.00478   0.00457   2.09938
    A5        2.09826   0.00057   0.00000   0.00274   0.00249   2.10075
    A6        2.08982  -0.00069   0.00000  -0.00659  -0.00684   2.08297
    A7        2.11338  -0.00162   0.00000  -0.00997  -0.01041   2.10297
    A8        2.11348   0.00080   0.00000   0.01060   0.01027   2.12375
    A9        2.09245  -0.00269   0.00000  -0.04489  -0.04445   2.04800
   A10        2.05511   0.00083   0.00000   0.00135   0.00132   2.05643
   A11        1.73750   0.00199   0.00000   0.01919   0.01900   1.75650
   A12        2.01666  -0.00049   0.00000  -0.00593  -0.00712   2.00954
   A13        2.04565   0.00076   0.00000  -0.00245  -0.00116   2.04449
   A14        2.01089  -0.00100   0.00000  -0.00400  -0.00385   2.00705
   A15        1.98717  -0.00016   0.00000  -0.00117  -0.00139   1.98578
   A16        1.96884   0.00195   0.00000  -0.00384  -0.00393   1.96491
   A17        2.10337  -0.00035   0.00000   0.00284   0.00318   2.10654
   A18        2.06071   0.00017   0.00000  -0.00187  -0.00204   2.05866
   A19        2.11870   0.00017   0.00000  -0.00084  -0.00102   2.11768
   A20        2.11328   0.00097   0.00000  -0.00062  -0.00073   2.11255
   A21        2.07104  -0.00057   0.00000  -0.00180  -0.00175   2.06929
   A22        2.09843  -0.00040   0.00000   0.00222   0.00227   2.10070
   A23        2.80044   0.00082   0.00000  -0.03321  -0.03399   2.76645
   A24        1.88652  -0.00045   0.00000  -0.03076  -0.03060   1.85592
   A25        1.64027  -0.00205   0.00000  -0.03800  -0.03800   1.60227
    D1        0.07555  -0.00110   0.00000  -0.03061  -0.03086   0.04469
    D2       -3.09259  -0.00003   0.00000   0.00991   0.00994  -3.08265
    D3       -3.10425  -0.00100   0.00000  -0.03103  -0.03130  -3.13555
    D4        0.01080   0.00008   0.00000   0.00949   0.00949   0.02029
    D5       -0.04303   0.00002   0.00000   0.00125   0.00101  -0.04202
    D6        3.06672   0.00022   0.00000  -0.00565  -0.00572   3.06100
    D7        3.13649  -0.00009   0.00000   0.00164   0.00143   3.13792
    D8       -0.03694   0.00011   0.00000  -0.00526  -0.00531  -0.04225
    D9        0.01744   0.00143   0.00000   0.06459   0.06452   0.08196
   D10       -3.06990   0.00116   0.00000   0.02053   0.02057  -3.04933
   D11        1.03583   0.00010   0.00000   0.02851   0.02876   1.06460
   D12       -3.09774   0.00035   0.00000   0.02413   0.02399  -3.07374
   D13        0.09811   0.00007   0.00000  -0.01993  -0.01995   0.07815
   D14       -2.07934  -0.00099   0.00000  -0.01196  -0.01176  -2.09110
   D15       -0.13153  -0.00086   0.00000  -0.06617  -0.06584  -0.19737
   D16       -2.55001  -0.00094   0.00000  -0.05313  -0.05273  -2.60274
   D17        2.95757  -0.00059   0.00000  -0.02324  -0.02326   2.93431
   D18        0.53909  -0.00067   0.00000  -0.01020  -0.01015   0.52894
   D19       -2.15254   0.00099   0.00000   0.09050   0.08986  -2.06268
   D20        1.78341   0.00008   0.00000   0.09291   0.09268   1.87609
   D21        0.16322  -0.00015   0.00000   0.03765   0.03752   0.20074
   D22       -3.00870  -0.00021   0.00000   0.04238   0.04210  -2.96660
   D23       -1.36334   0.00206   0.00000   0.01344   0.01378  -1.34955
   D24        1.74793   0.00200   0.00000   0.01818   0.01836   1.76629
   D25        2.60576   0.00031   0.00000   0.02461   0.02506   2.63082
   D26       -0.56616   0.00026   0.00000   0.02934   0.02964  -0.53652
   D27       -1.27707  -0.00053   0.00000   0.03068   0.03269  -1.24437
   D28        1.04555   0.00024   0.00000   0.02088   0.02273   1.06828
   D29       -0.08117   0.00035   0.00000  -0.00693  -0.00691  -0.08808
   D30        3.09275   0.00015   0.00000   0.00016   0.00002   3.09277
   D31        3.09177   0.00041   0.00000  -0.01180  -0.01163   3.08014
   D32       -0.01749   0.00021   0.00000  -0.00472  -0.00470  -0.02219
[...]
 ! D29   D(4,5,6,1)             -5.2404         -DE/DX =    0.0                 !
 ! D30   D(4,5,6,15)           177.0995         -DE/DX =    0.0                 !
 ! D31   D(7,5,6,1)            176.3636         -DE/DX =    0.0                 !
 ! D32   D(7,5,6,15)            -1.2966         -DE/DX =    0.0                 !
 ! D33   D(3,10,12,13)         138.0331         -DE/DX =    0.0                 !
 ! D34   D(4,10,12,13)         132.3916         -DE/DX =    0.0                 !
 --------------------------------------------------------------------------------
 GradGradGradGradGradGradGradGradGradGradGradGradGradGradGradGradGradGrad


 ----------------------------------------------------------------------

 Electric dipole moment (input orientation):
 (Debye = 10**-18 statcoulomb cm , SI units = C m)
                  (au)            (Debye)         (10**-30 SI)
   Tot        0.143662D+01      0.365153D+01      0.121802D+02
   x          0.143360D+01      0.364384D+01      0.121545D+02
   y          0.280489D-01      0.712932D-01      0.237809D+00
   z          0.888702D-01      0.225885D+00      0.753473D+00

 Dipole polarizability, Alpha (input orientation).
 (esu units = cm**3 , SI units = C**2 m**2 J**-1)
 Alpha(0;0):
               (au)            (10**-24 esu)      (10**-40 SI)
   iso        0.876909D+02      0.129945D+02      0.144583D+02
   aniso      0.578024D+02      0.856544D+01      0.953033D+01
   xx         0.122139D+03      0.180991D+02      0.201380D+02
   yx        -0.851895D+01     -0.126238D+01     -0.140459D+01
   yy         0.823976D+02      0.122101D+02      0.135855D+02
   zx        -0.208732D+01     -0.309309D+00     -0.344153D+00
   zy        -0.210560D+01     -0.312017D+00     -0.347166D+00
   zz         0.585362D+02      0.867417D+01      0.965131D+01

 ----------------------------------------------------------------------

 Dipole orientation:
     6          1.20027934          0.09934635          3.75969793
     6          0.59836326         -2.24802059          2.82862809
     6         -0.87667192         -2.48062004          0.63968800
     6         -1.59228549         -0.20024318         -0.83773868
     6         -1.13456418          2.25675858          0.46645143
     6          0.27724939          2.36045190          2.58489795
     1         -1.92712712          3.94499481         -0.36603839
     1         -1.50754252         -4.29451931         -0.03751509
     1          1.22085169         -3.93435074          3.80116627
     8          0.44937438         -1.08717808         -2.29673088
     1         -3.38230404         -0.27837694         -1.85647969
     8          0.67351546          1.09963978         -5.05950481
     1          2.47759077          1.26917748         -4.81648544
     1          2.33668817          0.25698054          5.45180672
     1          0.67710288          4.15794947          3.47412743

 Electric dipole moment (dipole orientation):
 (Debye = 10**-18 statcoulomb cm , SI units = C m)
                  (au)            (Debye)         (10**-30 SI)
   Tot        0.143662D+01      0.365153D+01      0.121802D+02
   x          0.000000D+00      0.000000D+00      0.000000D+00
   y          0.000000D+00      0.000000D+00      0.000000D+00
   z          0.143662D+01      0.365153D+01      0.121802D+02

 Dipole polarizability, Alpha (dipole orientation).
 (esu units = cm**3 , SI units = C**2 m**2 J**-1)
 Alpha(0;0):
               (au)            (10**-24 esu)      (10**-40 SI)
   iso        0.876909D+02      0.129945D+02      0.144583D+02
   aniso      0.578024D+02      0.856544D+01      0.953033D+01
   xx         0.589920D+02      0.874171D+01      0.972646D+01
   yx         0.102099D+01      0.151295D+00      0.168338D+00
   yy         0.827950D+02      0.122690D+02      0.136511D+02
   zx         0.619999D+01      0.918744D+00      0.102224D+01
   zy        -0.928010D+01     -0.137517D+01     -0.153008D+01
   zz         0.121286D+03      0.179727D+02      0.199973D+02

 ----------------------------------------------------------------------
 1\1\GINC-CNODE0998\Freq\UB3LYP\CC-pVTZ+d\C6H7O2(2)\KOTUKILE\30-Jul-202
 2\0\\#N Geom=AllCheck Guess=TCheck SCRF=Check GenChk UB3LYP/CC-pVTZ+d 
 Freq\\QOOH-OH-Elim-ortho-TS-b3lyp\\0,2\C,2.0239108785,0.0797432816,-0.
 511774887\C,1.5352209462,-1.1657592494,-0.2001517538\C,0.333016091,-1.
 2970953232,0.5095071597\C,-0.492860469,-0.0991213086,0.8154718987\C,0.
 187048231,1.2096316637,0.5910740694\C,1.3511980873,1.2726635641,-0.086
 1756624\H,-0.2950455001,2.1017812983,0.9649028499\H,-0.0277492457,-2.2
 574962418,0.839218799\H,2.0856507624,-2.0538023288,-0.4796057284\O,-1.
 1874663277,-0.6031957417,-0.3012491934\H,-1.0889974988,-0.1335985047,1
 .7281725025\O,-2.6602368702,0.5228824338,-0.5326431984\H,-2.4741541334
 ,0.5975600939,-1.4791043788\H,2.9533362242,0.1695783994,-1.0581071815\
 H,1.8164796345,2.2288218234,-0.2867856154\\Version=ES64L-G16RevB.01\St
 ate=2-A\HF=-383.2479001\S2=0.852197\S2-1=0.\S2A=0.753593\RMSD=5.135e-0
 9\RMSF=6.909e-06\ZeroPoint=0.1136497\Thermal=0.1213392\Dipole=1.433597
 7,0.0280489,0.0888702\DipoleDeriv=0.0063296,-0.0575965,-0.1759363,0.02
 30924,0.1955371,0.0087778,-0.0561421,0.0695177,0.0448367,-0.0960489,-0
 .2002133,0.0021448,-0.1897048,-0.1213531,0.0503514,0.0213828,0.2125101
 ,-0.1735826,0.0926149,0.2793132,-0.1312826,0.2062843,0.0948095,-0.0497
 941,-0.0874894,-0.0646654,-0.0067037,0.3256758,0.1107312,-0.0213767,0.
 0496258,0.0644749,-0.0112094,-0.0774526,-0.0027779,0.5481464,0.0115712
 ,-0.0805682,-0.0839133,-0.098034,-0.0111314,0.0499711,-0.0518136,0.045
 7328,-0.1712807,-0.0819623,0.2200299,0.0225798,0.1252352,0.0813715,-0.
 0091314,0.0163455,-0.1183318,-0.1445307,0.0453516,0.0427604,0.0445233,
 0.0217543,-0.0198402,-0.0443838,0.0090037,-0.015307,0.0942529,0.046373
 4,-0.0180782,0.0230059,-0.0112145,-0.0101387,0.0460332,-0.009833,0.019
 694,0.1003395,0.0331445,0.0507518,0.0510135,0.0689425,-0.0299487,-0.02
 78501,0.0472781,-0.0540983,0.116806,0.1162782,-0.2346163,0.11106,-0.43
 53928,-0.2299548,-0.0921147,0.0194872,-0.0957262,-0.3828363,0.0007628,
 -0.0124147,0.117635,-0.0058778,0.0601165,-0.0127224,0.0812767,0.000243
 5,-0.1057452,-0.7807232,-0.0381667,-0.1560495,0.3492906,-0.3449991,0.0
 647526,-0.2678613,0.0188679,-0.2441216,0.2652859,0.0108175,0.0666704,-
 0.0176915,0.2678905,0.0076009,0.2339797,-0.0233364,0.1459903,-0.032113
 4,-0.0069016,0.0883853,-0.0101403,0.0666711,0.0003906,0.0812817,-0.003
 78,0.0698608,0.0474598,-0.0658484,0.0415404,-0.0761693,-0.0635052,0.01
 93283,0.0405565,0.011457,0.1085682\Polar=122.1389946,-8.5189526,82.397
 566,-2.0873216,-2.1055964,58.5361836\Quadrupole=-4.1925134,2.7599889,1
 .4325244,-0.5724173,-1.2575475,-1.1975792\PG=C01 [X(C6H7O2)]\NImag=1\\
 0.55247035,0.04362828,0.61075040,-0.24963068,-0.02419154,0.28058276,-0
 .13099778,-0.02192833,0.04159200,0.49103991,-0.09557841,-0.30821212,0.
 06078047,-0.05196337,0.71779225,0.04491123,0.01703186,-0.08339279,-0.2
 0617281,0.01234932,0.24004917,-0.02503824,-0.09573360,0.02223361,-0.19
 455931,0.04361096,0.07787339,0.39168364,-0.02889238,0.01227281,0.01670
 641,-0.03766383,-0.12045467,0.02238475,0.05845027,0.61474385,0.0122570
 0,0.01923396,-0.00273026,0.12916134,0.01155283,-0.13347439,-0.24467855
 ,-0.08435261,0.25982828,-0.00043064,0.00133629,-0.00525135,-0.01670476
 ,0.02268689,0.01247913,-0.09450361,0.04906821,0.03689736,0.42431065,0.
 00122239,-0.00673947,0.00334333,0.00893444,0.00134197,0.00082360,0.087
 75567,-0.17617741,-0.00666231,0.01525877,0.49911670,-0.00230675,0.0055
 1629,-0.00925394,-0.00380738,-0.02545862,0.00306855,0.08260942,-0.0413
 0602,-0.05247993,-0.16979158,0.03577803,0.50605261,-0.02398412,0.05482
 260,0.01963301,-0.02110677,-0.02090455,0.01229131,0.02916317,0.0140489
 1,-0.01269918,-0.10434351,-0.03572115,0.03546711,0.60524913,0.02636724
 ,0.01360778,-0.01629048,-0.00571521,-0.00472975,0.00435239,-0.00020494
 ,-0.03066525,-0.00510637,-0.03943643,-0.17960186,0.03246251,-0.0330396
 1,0.59249926,0.01916589,-0.03011298,-0.00405216,0.01189429,0.01074317,
 -0.00749299,-0.00961166,0.00338715,0.00494754,0.02439887,0.01468337,-0
 .08931838,-0.27033218,0.07121267,0.31599030,-0.13170377,0.00608446,0.0
 4057172,0.04730589,0.02755778,-0.02374944,-0.03539800,0.00489815,0.004
 88804,-0.01561570,-0.01382007,0.00741765,-0.34208244,-0.00933418,0.166
 46162,0.58109319,0.07205906,-0.20552350,-0.04725925,-0.00827846,-0.055
 67994,0.00526830,0.02157585,-0.00426124,-0.00536940,-0.02663742,0.0101
 6549,0.02008403,-0.04195250,-0.12241675,0.01843193,0.07990376,0.648693
 81,0.04309629,-0.00931672,-0.08607854,-0.02486078,-0.01411280,0.021294
 40,0.01842587,-0.00627655,-0.01095384,0.00688262,0.01411310,0.00552902
 ,0.16303366,-0.00207471,-0.15285504,-0.25459485,-0.01749036,0.27059745
 ,-0.00084017,-0.00250945,0.00631297,0.00012315,-0.00021616,-0.00051935
 ,-0.00104045,-0.00148296,0.00244676,0.01105589,-0.01430283,-0.00413699
 ,-0.10552407,0.10211598,0.05296177,-0.00764469,0.02429608,0.01132840,0
 .10727919,-0.00121540,0.00134471,-0.00047742,-0.00041933,0.00036279,0.
 00031761,-0.00290670,-0.00268403,0.00127077,0.01393019,-0.01475769,-0.
 00878329,0.10418588,-0.25187070,-0.08259390,-0.00349336,0.00540516,0.0
 0161789,-0.11022436,0.26199360,0.00703924,-0.00048548,0.00592258,0.000
 77333,0.00050460,-0.00138812,-0.00039676,0.00310751,0.00378809,0.00125
 035,0.00040157,0.00644546,0.05411463,-0.08011430,-0.07681015,0.0068560
 1,-0.01381421,0.00272687,-0.06290263,0.08849985,0.06719887,-0.00299738
 ,0.00184795,0.00483819,-0.00293829,-0.02438296,0.00869775,-0.07865507,
 -0.09184825,0.04097448,0.00162893,0.01310990,-0.00559826,-0.00208455,-
 0.00039492,-0.00003914,0.00063801,-0.00018179,-0.00059936,0.00038948,0
 .00030953,0.00030811,0.08580638,0.00081613,0.00107626,0.00014616,0.001
 33216,0.00328311,-0.00228340,-0.08776832,-0.28970897,0.08535351,-0.007
 65494,-0.01597639,0.00729996,0.00347819,-0.00081926,-0.00043848,-0.000
 13577,0.00006208,-0.00005824,-0.00054126,-0.00069580,0.00024306,0.0921
 3902,0.30096182,0.00529424,0.00114276,0.00176144,0.00254837,0.01363345
 ,0.00268633,0.05078906,0.07710517,-0.06617163,-0.00830310,-0.01073029,
 0.00575286,0.00194385,-0.00247842,0.00076677,0.00055059,-0.00153779,-0
 .00082124,-0.00026553,-0.00083707,0.00043080,-0.04526994,-0.08752600,0
 .06148927,0.00928393,-0.01165425,-0.00270601,-0.12474601,0.11690226,0.
 04582843,-0.01174331,0.02431874,0.00750706,-0.00137065,-0.00370927,0.0
 0507045,0.00014029,-0.00012865,-0.00053308,0.00158717,-0.00176102,0.00
 363525,-0.00015901,0.00018926,-0.00051190,-0.00002568,-0.00061001,-0.0
 0187063,0.12804277,0.01640106,-0.01957700,-0.00895953,0.11553046,-0.24
 548648,-0.05739353,-0.00239174,0.00581417,0.00120404,-0.00154367,0.001
 11599,0.00068803,-0.00048030,0.00026757,0.00033399,-0.00310946,-0.0028
 3783,0.00234112,0.00007812,0.00002539,-0.00010325,0.00026843,0.0006075
 9,-0.00037349,-0.12493327,0.25939658,-0.00471747,0.00509071,0.00632491
 ,0.04843506,-0.05737211,-0.06057593,0.00604836,-0.01284872,0.00059259,
 0.00402774,-0.00161410,0.00245792,0.00079139,0.00138505,-0.00137640,0.
 00354333,0.00250511,0.00628544,-0.00054137,0.00012802,-0.00097935,-0.0
 0158208,-0.00001841,-0.00177911,-0.05374060,0.06249583,0.05235859,0.00
 980983,0.04706563,-0.01072422,-0.06524392,-0.03842433,0.03588927,0.088
 07238,-0.00320584,0.02498835,-0.05595260,-0.06940271,-0.08855418,-0.02
 531909,-0.01249686,-0.01013102,0.01816245,-0.01355852,-0.00692269,-0.0
 0283500,-0.00134742,-0.00340832,-0.00103877,-0.00211904,-0.00502965,-0
 .00000980,-0.00035446,0.00015755,-0.03216476,-0.00936685,-0.03328968,0
 .00505384,0.04293345,0.02649536,-0.02791438,-0.08070829,0.00706790,-0.
 01475368,-0.02659620,-0.05884109,-0.03111870,-0.02442545,-0.01673695,-
 0.02967826,-0.00975542,0.00401196,0.00217464,0.00147773,-0.00141642,0.
 00291655,0.01013081,0.00070447,0.01059385,0.00054467,0.00064050,-0.000
 08793,0.13481675,0.04824574,0.00184319,0.01584344,-0.00113115,-0.01204
 104,-0.01349328,0.01642427,0.00691051,0.02049866,-0.00676408,-0.021029
 80,-0.07336875,-0.17653821,-0.01968699,-0.01591812,0.00686410,0.010381
 62,-0.00698021,-0.00275496,-0.00134895,-0.00029240,-0.00255743,-0.0014
 3593,-0.00244027,-0.00326653,0.00012793,0.00021569,-0.00078469,0.05051
 088,0.10220855,0.22183803,-0.00021049,0.00038567,0.00006809,0.00033642
 ,0.00345775,0.00077719,-0.01194816,-0.00257977,0.01461508,-0.13293063,
 -0.00412245,0.12712626,-0.00709510,-0.00168966,0.01157757,0.00147460,-
 0.00303507,0.00008545,0.00017587,-0.00024452,-0.00077445,0.00063890,-0
 .00019167,-0.00108549,-0.00069449,-0.00013636,0.00044153,0.01237936,-0
 .00214110,-0.02484485,0.13711403,0.00143170,0.00062807,-0.00048440,-0.
 00180462,-0.00373536,-0.00085706,0.01585818,0.00071474,-0.01748826,-0.
 00774956,-0.05661406,0.01176379,-0.01846597,0.00132145,0.02352619,-0.0
 0165568,-0.00557518,0.00029779,0.00055462,0.00071345,-0.00043998,0.000
 07750,0.00069986,0.00069499,0.00100406,0.00012235,-0.00002302,-0.00009
 390,0.00536016,-0.01289252,0.01115691,0.05834716,0.00008416,0.00061942
 ,0.00017787,-0.00134824,0.00096303,0.00033671,-0.00190545,-0.00228093,
 0.00294314,0.12366818,0.01691345,-0.21131097,0.00441785,-0.00094105,0.
 00033697,0.00015759,0.00087008,-0.00047067,-0.00005658,0.00029167,0.00
 024159,0.00033046,-0.00042675,-0.00011650,-0.00032442,0.00004618,0.000
 08486,0.00180069,-0.01022357,-0.03710663,-0.12853451,-0.00481533,0.243
 58039,-0.00537442,-0.01974634,0.00569724,0.02360490,0.01451151,-0.0178
 9674,-0.05833672,0.01691017,-0.01821096,-0.01131026,0.01173578,0.00987
 256,0.00511725,-0.00170887,-0.00217808,-0.00717037,0.00698839,0.002696
 30,0.00062316,0.00074467,0.00108107,-0.00071254,0.00118861,0.00100420,
 -0.00010151,0.00028941,-0.00031934,0.05575018,-0.04201911,0.02211424,0
 .00143566,0.00135872,0.00113204,0.02534238,0.00508989,0.01490302,-0.00
 494295,-0.01849825,-0.01077475,0.01369528,0.04376098,-0.01186076,0.013
 02894,0.00486217,-0.00273571,-0.00606042,-0.00371079,0.00118440,0.0026
 7332,0.00487772,-0.00448215,-0.00182336,-0.00042311,0.00048414,-0.0004
 1553,0.00012796,-0.00030530,-0.00071896,0.00007668,-0.00021602,0.00032
 120,-0.04423097,0.02058994,-0.02179763,-0.00074146,-0.00197747,-0.0006
 3689,0.01071059,0.00283423,-0.00109029,-0.00295892,0.00104584,0.003745
 82,0.00282117,-0.00197294,-0.01061642,0.00261193,-0.00535330,-0.009798
 56,0.01023420,0.00412645,0.00172256,-0.00133128,-0.00091364,-0.0008266
 4,0.00120124,0.00022273,-0.00008977,0.00019500,-0.00006892,-0.00026425
 ,0.00005893,-0.00026537,-0.00002161,0.00008501,0.00045248,0.00576195,-
 0.00942966,-0.01458041,0.00067213,0.00063539,0.00121894,-0.09775416,-0
 .03355417,0.50566208,-0.00016052,0.00052768,0.00004679,-0.00029257,-0.
 00009554,0.00062905,-0.00019813,-0.00036807,-0.00149432,-0.00348147,0.
 00203995,-0.00127078,0.00033609,-0.00031658,-0.00036828,0.00023823,-0.
 00015634,0.00006063,-0.00009467,-0.00005736,-0.00019026,0.00005313,-0.
 00009404,-0.00008143,0.00004610,-0.00000987,0.00016595,-0.00225638,0.0
 0360971,-0.01045268,-0.00001332,0.00005824,0.00048388,-0.02899704,-0.0
 0171717,0.10867010,0.03486376,-0.00028824,0.00019524,0.00014826,-0.000
 14239,-0.00033030,-0.00024218,0.00025613,-0.00012076,0.00106668,0.0021
 9753,-0.00123571,-0.00052710,-0.00031154,0.00035836,-0.00015251,0.0000
 2770,-0.00001867,0.00013431,0.00007269,0.00000449,-0.00005251,0.000056
 20,0.00004496,0.00019250,-0.00004949,-0.00002058,-0.00011275,0.0021816
 7,-0.00244159,0.00820562,-0.00013852,-0.00011174,-0.00027800,-0.000409
 99,-0.00818126,0.02957746,-0.00340160,0.01191354,0.00019554,-0.0007585
 1,-0.00016218,0.00065547,0.00088246,-0.00042845,-0.00157192,-0.0002660
 2,0.00028409,-0.00021378,0.00042516,-0.00098460,0.00026508,0.00011884,
 0.00005731,-0.00045621,-0.00003827,0.00018835,0.00013131,0.00006429,0.
 00005026,0.00014627,0.00003766,0.00020050,0.00003233,-0.00004014,0.000
 02323,0.00400641,-0.00281437,0.00036329,-0.00009933,0.00008337,0.00052
 305,0.09294606,0.04022611,-0.48949089,-0.09610123,-0.03798483,0.489338
 15,-0.25874537,-0.01926608,0.13004790,-0.00549371,0.00034868,0.0070076
 3,0.00319035,-0.00177310,0.00300276,0.00048249,-0.00020111,-0.00021272
 ,0.00085964,0.00314402,0.00153163,-0.00790070,-0.00405985,0.00750824,-
 0.00069372,-0.00015450,0.00008278,-0.00072139,0.00026878,0.00001733,-0
 .00048702,-0.00028719,-0.00254000,-0.00004648,0.00026680,-0.00042844,0
 .00000473,-0.00001002,0.00003610,0.00015790,-0.00018938,-0.00007225,-0
 .00001879,0.00002762,0.00004658,0.26921670,-0.01903369,-0.06251411,0.0
 1058179,-0.02552571,0.00257288,0.01468879,-0.00234171,-0.00516604,0.00
 130578,-0.00007470,-0.00054935,0.00007756,0.00211768,-0.00476698,-0.00
 172302,0.02284244,0.00670962,-0.01300787,0.00110011,0.00012881,-0.0007
 3068,-0.00118562,0.00004348,0.00075534,0.00031397,0.00109384,-0.000319
 58,0.00121785,-0.00042887,0.00033945,-0.00000223,0.00012195,0.00000326
 ,-0.00044282,0.00039778,-0.00006411,-0.00000192,-0.00001007,0.00000002
 ,0.02150809,0.06141876,0.12928883,0.01190708,-0.11355547,0.00682302,-0
 .00183126,0.00263959,0.00373640,0.00208074,0.00565162,-0.00036441,-0.0
 0102065,-0.00011953,0.00159378,-0.00120212,0.00223399,0.00733089,0.001
 67989,0.00080019,-0.00000420,0.00025605,-0.00053523,-0.00035343,0.0000
 7929,-0.00034700,-0.00241690,0.00003240,-0.00350841,0.00021870,0.00026
 948,-0.00039723,0.00003865,0.00011866,0.00002105,0.00008536,-0.0000464
 8,-0.00006370,-0.00005896,0.00003226,0.00001645,-0.14489812,-0.0123863
 8,0.10831803,0.00891878,0.01513949,-0.00272926,-0.00032715,0.00248950,
 0.00195395,-0.00068853,0.00011975,0.00034477,-0.00083414,0.00122269,0.
 00811520,-0.00932592,-0.02716133,0.00520181,-0.10298388,-0.10520216,0.
 03022497,-0.00081498,0.00070344,-0.00332119,0.00001884,-0.00010785,-0.
 00024187,0.00023723,0.00067883,-0.00017003,0.00069260,0.00123250,-0.00
 061969,-0.00066736,-0.00172018,0.00005825,-0.00002856,0.00000513,-0.00
 003862,-0.00002442,-0.00007779,0.00001743,0.00019539,-0.00049172,-0.00
 101961,0.10563210,-0.01264079,-0.01892241,0.00584534,0.00320898,-0.002
 44499,-0.00222135,0.00078726,0.00048566,-0.00028388,0.00035286,0.00148
 859,-0.00041605,0.00035860,0.00236866,-0.00029265,-0.10488804,-0.27425
 286,0.04348178,0.00000481,0.00096210,0.00048279,-0.00007375,0.00002208
 ,0.00008396,-0.00050367,-0.00094605,0.00047069,-0.00004785,0.00003858,
 -0.00012823,0.00002247,-0.00001537,-0.00010457,-0.00011073,0.00013990,
 -0.00008219,-0.00001709,-0.00004592,0.00006422,0.00037725,0.00094831,0
 .00003104,0.11316971,0.29017372,-0.00543042,-0.00856137,0.00454109,0.0
 0260156,-0.00196245,0.00222661,0.00015414,-0.00055147,-0.00010790,0.00
 514833,-0.00331970,0.00657272,0.00744411,0.01592538,0.00162179,0.03146
 808,0.04244891,-0.05371015,-0.00331585,0.00034294,-0.00446530,-0.00015
 286,-0.00002702,-0.00032060,-0.00007629,-0.00057235,0.00042388,0.00143
 629,0.00280364,0.00039163,-0.00006334,-0.00011961,-0.00045981,-0.00026
 978,0.00005154,-0.00001935,-0.00003845,-0.00000723,0.00002147,-0.00112
 942,0.00047965,-0.00115434,-0.03777611,-0.04693089,0.04443827\\0.00000
 295,0.00001026,-0.00000315,-0.00000155,-0.00001238,0.00000478,0.000001
 67,-0.00002386,-0.00000219,0.00000730,0.00001968,-0.00001172,-0.000008
 95,0.00000260,0.00000384,0.00000250,-0.00000064,0.00000062,0.,-0.00000
 099,0.00000104,0.00000290,-0.00000291,-0.00000077,-0.00000194,-0.00000
 102,-0.00000095,0.00000698,0.00000094,0.00001067,0.00000298,-0.0000029
 8,0.00000218,-0.00001526,0.00000871,-0.00000651,0.00000086,0.00000366,
 0.00000167,-0.00000053,-0.00000094,-0.00000074,0.00000012,-0.00000014,
 0.00000122\\\@


 HIGGLEDY-PIGGLEDY
 NIC'LAUS COPERNICUS
 LOOKED AT THE UNIVERSE,
 SPOKE TO THE THRONG;
 GIVE UP YOUR PTOLOMY,
 RISE UP AND FOLLOW ME,
 HELIOCENTRICALLY
 PTOLEMY'S WRONG.
   -- NANCY L. STARK
 Job cpu time:       0 days  3 hours  2 minutes 40.1 seconds.
 Elapsed time:       0 days  0 hours  7 minutes 37.5 seconds.
 File lengths (MBytes):  RWF=    280 Int=      0 D2E=      0 Chk=     14 Scr=      1
 Normal termination of Gaussian 16 at Sat Jul 30 13:19:21 2022.
