 Entering Gaussian System, Link 0=g16
 Initial command:
 /apps/chpc/chem/gaussian16/B01/g16/l1.exe "/mnt/lustre/users/lmoskaleva/Kgalaletso/4323101.sched01/Gau-131744.inp" -scrdir="/mnt/lustre/users/lmoskaleva/Kgalaletso/4323101.sched01/"
 Entering Link 1 = /apps/chpc/chem/gaussian16/B01/g16/l1.exe PID=    131747.
  
 Copyright (c) 1988-2017, Gaussian, Inc.  All Rights Reserved.
  
 This is part of the Gaussian(R) 16 program.  It is based on
 the Gaussian(R) 09 system (copyright 2009, Gaussian, Inc.),
 the Gaussian(R) 03 system (copyright 2003, Gaussian, Inc.),
 the Gaussian(R) 98 system (copyright 1998, Gaussian, Inc.),
 the Gaussian(R) 94 system (copyright 1995, Gaussian, Inc.),
 the Gaussian 92(TM) system (copyright 1992, Gaussian, Inc.),
 the Gaussian 90(TM) system (copyright 1990, Gaussian, Inc.),
 the Gaussian 88(TM) system (copyright 1988, Gaussian, Inc.),
 the Gaussian 86(TM) system (copyright 1986, Carnegie Mellon
 University), and the Gaussian 82(TM) system (copyright 1983,
 Carnegie Mellon University). Gaussian is a federally registered
 trademark of Gaussian, Inc.
  
 This software contains proprietary and confidential information,
 including trade secrets, belonging to Gaussian, Inc.
  
 This software is provided under written license and may be
 used, copied, transmitted, or stored only in accord with that
 written license.
  
 The following legend is applicable only to US Government
 contracts under FAR:
  
                    RESTRICTED RIGHTS LEGEND
  
 Use, reproduction and disclosure by the US Government is
 subject to restrictions as set forth in subparagraphs (a)
 and (c) of the Commercial Computer Software - Restricted
 Rights clause in FAR 52.227-19.
  
 Gaussian, Inc.
 340 Quinnipiac St., Bldg. 40, Wallingford CT 06492
  
  
 ---------------------------------------------------------------
 Warning -- This program may not be used in any manner that
 competes with the business of Gaussian, Inc. or will provide
 assistance to any competitor of Gaussian, Inc.  The licensee
 of this program is prohibited from giving any competitor of
 Gaussian, Inc. access to this program.  By using this program,
 the user acknowledges that Gaussian, Inc. is engaged in the
 business of creating and licensing software in the field of
 computational chemistry and represents and warrants to the
 licensee that it is not a competitor of Gaussian, Inc. and that
 it will not use this program in any manner prohibited above.
 ---------------------------------------------------------------
  

 Cite this work as:
 Gaussian 16, Revision B.01,
 M. J. Frisch, G. W. Trucks, H. B. Schlegel, G. E. Scuseria, 
 M. A. Robb, J. R. Cheeseman, G. Scalmani, V. Barone, 
 G. A. Petersson, H. Nakatsuji, X. Li, M. Caricato, A. V. Marenich, 
 J. Bloino, B. G. Janesko, R. Gomperts, B. Mennucci, H. P. Hratchian, 
 J. V. Ortiz, A. F. Izmaylov, J. L. Sonnenberg, D. Williams-Young, 
 F. Ding, F. Lipparini, F. Egidi, J. Goings, B. Peng, A. Petrone, 
 T. Henderson, D. Ranasinghe, V. G. Zakrzewski, J. Gao, N. Rega, 
 G. Zheng, W. Liang, M. Hada, M. Ehara, K. Toyota, R. Fukuda, 
 J. Hasegawa, M. Ishida, T. Nakajima, Y. Honda, O. Kitao, H. Nakai, 
 T. Vreven, K. Throssell, J. A. Montgomery, Jr., J. E. Peralta, 
 F. Ogliaro, M. J. Bearpark, J. J. Heyd, E. N. Brothers, K. N. Kudin, 
 V. N. Staroverov, T. A. Keith, R. Kobayashi, J. Normand, 
 K. Raghavachari, A. P. Rendell, J. C. Burant, S. S. Iyengar, 
 J. Tomasi, M. Cossi, J. M. Millam, M. Klene, C. Adamo, R. Cammi, 
 J. W. Ochterski, R. L. Martin, K. Morokuma, O. Farkas, 
 J. B. Foresman, and D. J. Fox, Gaussian, Inc., Wallingford CT, 2016.
 
 ******************************************
 Gaussian 16:  ES64L-G16RevB.01 20-Dec-2017
                31-Jul-2022 
 ******************************************
 %nprocshared=24
 Will use up to   24 processors via shared memory.
 %lindaworkers=cnode0690.cm.cluster
 %mem=20GB
 %chk=RcyclohexadienylO2-H-tranfer-ortho-TS-b3lyp-F3.chk
 SetLPE:    new flags="-opt 'Tsnet.Node.lindarsharg: ssh'  -nodelist 'cnode0690.cm.cluster' -env GAUSS_MDEF=2684354560 -env GAUSS_EXEDIR="/apps/chpc/chem/gaussian16/B01/g16/bsd:/apps/chpc/chem/gaussian16/B01/g16""
 Will use up to    1 processors via Linda.
 ----------------------------------------------------------------------
 # opt=(calcfc,ts,modredundant,noeigentest) freq ub3lyp cc-pvtz+d int(g
 rid=ultrafine)
 ----------------------------------------------------------------------
 1/5=1,10=4,11=1,18=120,26=4,38=1/1,3;
 2/9=110,12=2,17=6,18=5,40=1/2;
 3/5=16,6=1,7=9,11=2,25=1,30=1,71=2,74=-5,75=-5,116=2,140=1/1,2,3;
 4//1;
 5/5=2,38=5/2;
 8/6=4,10=90,11=11/1;
 11/6=1,8=1,9=11,15=111,16=1/1,2,10;
 10/6=1,13=1/2;
 6/7=2,8=2,9=2,10=2,28=1/1;
 7/10=1,18=20,25=1/1,2,3,16;
 1/5=1,10=4,11=1,18=20,26=4/3(2);
 2/9=110/2;
 99//99;
 2/9=110/2;
 3/5=16,6=1,7=9,11=2,25=1,30=1,71=1,74=-5,75=-5,116=2/1,2,3;
 4/5=5,16=3,69=1/1;
 5/5=2,38=5/2;
 7//1,2,3,16;
 1/5=1,11=1,18=20,26=4/3(-5);
 2/9=110/2;
 6/7=2,8=2,9=2,10=2,19=2,28=1/1;
 99/9=1/99;
 ----------------------------------------------
 RcyclohexadienylO2-H-tranfer-ortho-TS-b3lyp-F3
 ----------------------------------------------
 Symbolic Z-matrix:
 Charge =  0 Multiplicity = 2
 C                    -2.05108  -0.27674  -0.24908 
 C                    -1.50037   1.0726   -0.36477 
 C                    -0.26309   1.39399   0.09546 
 C                     0.69949   0.3725    0.67851 
 C                     0.14652  -1.10299   0.53422 
 C                    -1.27047  -1.29295   0.24252 
 H                     0.58154  -1.81621   1.24402 
 H                     0.8033   -1.17798  -0.52212 
 H                     0.13916   2.42567   0.03409 
 H                    -2.13108   1.85123  -0.78128 
 O                     1.9727    0.33181   0.19437 
 H                     0.83916   0.63811   1.79134 
 O                     1.73059  -0.34337  -1.10814 
 H                    -1.70228  -2.27861   0.34972 
 H                    -3.0921   -0.46818  -0.54673 
 
 The following ModRedundant input section has been read:
 B       4      11 F                                                           
 

 GradGradGradGradGradGradGradGradGradGradGradGradGradGradGradGradGradGrad
 Berny optimization.
 Initialization pass.
                           ----------------------------
                           !    Initial Parameters    !
                           ! (Angstroms and Degrees)  !
 --------------------------                            --------------------------
 ! Name  Definition              Value          Derivative Info.                !
 --------------------------------------------------------------------------------
 ! R1    R(1,2)                  1.462          calculate D2E/DX2 analytically  !
 ! R2    R(1,6)                  1.3725         calculate D2E/DX2 analytically  !
 ! R3    R(1,15)                 1.0995         calculate D2E/DX2 analytically  !
 ! R4    R(2,3)                  1.3587         calculate D2E/DX2 analytically  !
 ! R5    R(2,10)                 1.0851         calculate D2E/DX2 analytically  !
 ! R6    R(3,4)                  1.5198         calculate D2E/DX2 analytically  !
 ! R7    R(3,9)                  1.109          calculate D2E/DX2 analytically  !
 ! R8    R(4,5)                  1.5823         calculate D2E/DX2 analytically  !
 ! R9    R(4,11)                 1.3628         frozen, calculate D2E/DX2 analyt!
 ! R10   R(4,12)                 1.1526         calculate D2E/DX2 analytically  !
 ! R11   R(5,6)                  1.4591         calculate D2E/DX2 analytically  !
 ! R12   R(5,7)                  1.0962         calculate D2E/DX2 analytically  !
 ! R13   R(5,8)                  1.2461         calculate D2E/DX2 analytically  !
 ! R14   R(6,14)                 1.0814         calculate D2E/DX2 analytically  !
 ! R15   R(11,13)                1.4869         calculate D2E/DX2 analytically  !
 ! A1    A(2,1,6)              119.8331         calculate D2E/DX2 analytically  !
 ! A2    A(2,1,15)             119.7303         calculate D2E/DX2 analytically  !
 ! A3    A(6,1,15)             120.4333         calculate D2E/DX2 analytically  !
 ! A4    A(1,2,3)              122.3135         calculate D2E/DX2 analytically  !
 ! A5    A(1,2,10)             118.2735         calculate D2E/DX2 analytically  !
 ! A6    A(3,2,10)             119.3135         calculate D2E/DX2 analytically  !
 ! A7    A(2,3,4)              123.2106         calculate D2E/DX2 analytically  !
 ! A8    A(2,3,9)              122.1141         calculate D2E/DX2 analytically  !
 ! A9    A(4,3,9)              114.629          calculate D2E/DX2 analytically  !
 ! A10   A(3,4,5)              111.7411         calculate D2E/DX2 analytically  !
 ! A11   A(3,4,11)             118.3919         calculate D2E/DX2 analytically  !
 ! A12   A(3,4,12)             106.9928         calculate D2E/DX2 analytically  !
 ! A13   A(5,4,11)             105.4425         calculate D2E/DX2 analytically  !
 ! A14   A(5,4,12)             110.1996         calculate D2E/DX2 analytically  !
 ! A15   A(11,4,12)            103.6903         calculate D2E/DX2 analytically  !
 ! A16   A(4,5,6)              118.6211         calculate D2E/DX2 analytically  !
 ! A17   A(4,5,7)              114.1394         calculate D2E/DX2 analytically  !
 ! A18   A(4,5,8)               87.0895         calculate D2E/DX2 analytically  !
 ! A19   A(6,5,7)              115.4748         calculate D2E/DX2 analytically  !
 ! A20   A(6,5,8)              109.5445         calculate D2E/DX2 analytically  !
 ! A21   A(7,5,8)              107.4917         calculate D2E/DX2 analytically  !
 ! A22   A(1,6,5)              121.8397         calculate D2E/DX2 analytically  !
 ! A23   A(1,6,14)             118.8988         calculate D2E/DX2 analytically  !
 ! A24   A(5,6,14)             119.1176         calculate D2E/DX2 analytically  !
 ! A25   A(4,11,13)             99.9407         calculate D2E/DX2 analytically  !
 ! D1    D(6,1,2,3)             -5.2561         calculate D2E/DX2 analytically  !
 ! D2    D(6,1,2,10)           178.3989         calculate D2E/DX2 analytically  !
 ! D3    D(15,1,2,3)           174.0911         calculate D2E/DX2 analytically  !
 ! D4    D(15,1,2,10)           -2.254          calculate D2E/DX2 analytically  !
 ! D5    D(2,1,6,5)             -6.2332         calculate D2E/DX2 analytically  !
 ! D6    D(2,1,6,14)           178.1666         calculate D2E/DX2 analytically  !
 ! D7    D(15,1,6,5)           174.4243         calculate D2E/DX2 analytically  !
 ! D8    D(15,1,6,14)           -1.1759         calculate D2E/DX2 analytically  !
 ! D9    D(1,2,3,4)              4.5264         calculate D2E/DX2 analytically  !
 ! D10   D(1,2,3,9)           -178.0812         calculate D2E/DX2 analytically  !
 ! D11   D(10,2,3,4)          -179.1653         calculate D2E/DX2 analytically  !
 ! D12   D(10,2,3,9)            -1.7728         calculate D2E/DX2 analytically  !
 ! D13   D(2,3,4,5)              6.1987         calculate D2E/DX2 analytically  !
 ! D14   D(2,3,4,11)           128.978          calculate D2E/DX2 analytically  !
 ! D15   D(2,3,4,12)          -114.503          calculate D2E/DX2 analytically  !
 ! D16   D(9,3,4,5)           -171.3718         calculate D2E/DX2 analytically  !
 ! D17   D(9,3,4,11)           -48.5925         calculate D2E/DX2 analytically  !
 ! D18   D(9,3,4,12)            67.9265         calculate D2E/DX2 analytically  !
 ! D19   D(3,4,5,6)            -16.5281         calculate D2E/DX2 analytically  !
 ! D20   D(3,4,5,7)           -157.9255         calculate D2E/DX2 analytically  !
 ! D21   D(3,4,5,8)             94.1953         calculate D2E/DX2 analytically  !
 ! D22   D(11,4,5,6)          -146.413          calculate D2E/DX2 analytically  !
 ! D23   D(11,4,5,7)            72.1896         calculate D2E/DX2 analytically  !
 ! D24   D(11,4,5,8)           -35.6896         calculate D2E/DX2 analytically  !
 ! D25   D(12,4,5,6)           102.2861         calculate D2E/DX2 analytically  !
 ! D26   D(12,4,5,7)           -39.1113         calculate D2E/DX2 analytically  !
 ! D27   D(12,4,5,8)          -146.9905         calculate D2E/DX2 analytically  !
 ! D28   D(3,4,11,13)          -75.5609         calculate D2E/DX2 analytically  !
 ! D29   D(5,4,11,13)           50.3229         calculate D2E/DX2 analytically  !
 ! D30   D(12,4,11,13)         166.1713         calculate D2E/DX2 analytically  !
 ! D31   D(4,5,6,1)             17.37           calculate D2E/DX2 analytically  !
 ! D32   D(4,5,6,14)          -167.0392         calculate D2E/DX2 analytically  !
 ! D33   D(7,5,6,1)            158.2702         calculate D2E/DX2 analytically  !
 ! D34   D(7,5,6,14)           -26.139          calculate D2E/DX2 analytically  !
 ! D35   D(8,5,6,1)            -80.2348         calculate D2E/DX2 analytically  !
 ! D36   D(8,5,6,14)            95.3561         calculate D2E/DX2 analytically  !
 --------------------------------------------------------------------------------
 Trust Radius=3.00D-01 FncErr=1.00D-07 GrdErr=1.00D-06 EigMax=2.50D+02 EigMin=1.00D-04
 Number of steps in this run=     86 maximum allowed number of steps=    100.
 Search for a saddle point of order  1.
 GradGradGradGradGradGradGradGradGradGradGradGradGradGradGradGradGradGrad

                          Input orientation:                          
 ---------------------------------------------------------------------
 Center     Atomic      Atomic             Coordinates (Angstroms)
 Number     Number       Type             X           Y           Z
 ---------------------------------------------------------------------
      1          6           0       -2.051077   -0.276737   -0.249077
      2          6           0       -1.500368    1.072601   -0.364767
      3          6           0       -0.263087    1.393988    0.095462
      4          6           0        0.699489    0.372497    0.678508
      5          6           0        0.146516   -1.102988    0.534215
      6          6           0       -1.270474   -1.292948    0.242516
      7          1           0        0.581538   -1.816206    1.244017
      8          1           0        0.803296   -1.177977   -0.522118
      9          1           0        0.139164    2.425667    0.034088
     10          1           0       -2.131083    1.851226   -0.781280
     11          8           0        1.972701    0.331808    0.194367
     12          1           0        0.839160    0.638111    1.791337
     13          8           0        1.730587   -0.343372   -1.108139
     14          1           0       -1.702277   -2.278607    0.349723
     15          1           0       -3.092101   -0.468180   -0.546731
 ---------------------------------------------------------------------
                    Distance matrix (angstroms):
                    1          2          3          4          5
     1  C    0.000000
     2  C    1.461977   0.000000
     3  C    2.471222   1.358663   0.000000
     4  C    2.974480   2.533365   1.519848   0.000000
     5  C    2.475005   2.872905   2.568106   1.582294   0.000000
     6  C    1.372476   2.453052   2.873339   2.616209   1.459121
     7  H    3.395579   3.907394   3.512537   2.263655   1.096240
     8  H    3.005700   3.224396   2.851943   1.963733   1.246123
     9  H    3.490032   2.162854   1.109024   2.223679   3.563929
    10  H    2.194964   1.085146   2.113564   3.511376   3.955422
    11  O    4.093624   3.594943   2.477248   1.362761   2.347145
    12  H    3.654272   3.211068   2.159234   1.152583   2.256443
    13  O    3.878584   3.605087   2.905480   2.183515   2.404917
    14  H    2.118421   3.432471   3.952704   3.592344   2.198671
    15  H    1.099536   2.222776   3.447231   4.072358   3.472761
                    6          7          8          9         10
     6  C    0.000000
     7  H    2.169505   0.000000
     8  H    2.213234   1.890964   0.000000
     9  H    3.982288   4.433183   3.706304   0.000000
    10  H    3.416817   4.991012   4.225378   2.479683   0.000000
    11  O    3.627718   2.766056   2.039684   2.787794   4.483476
    12  H    3.252444   2.527766   2.941349   2.602552   4.112463
    13  O    3.425249   3.003696   1.378352   3.391885   4.453717
    14  H    1.081421   2.495874   2.872175   5.061692   4.303320
    15  H    2.149762   4.303438   3.959613   4.376388   2.521550
                   11         12         13         14         15
    11  O    0.000000
    12  H    1.982183   0.000000
    13  O    1.486946   3.188246   0.000000
    14  H    4.510417   4.128486   4.201791   0.000000
    15  H    5.180871   4.705874   4.856859   2.452119   0.000000
 Stoichiometry    C6H7O2(2)
 Framework group  C1[X(C6H7O2)]
 Deg. of freedom    39
 Full point group                 C1      NOp   1
 Largest Abelian subgroup         C1      NOp   1
 Largest concise Abelian subgroup C1      NOp   1
                         Standard orientation:                         
 ---------------------------------------------------------------------
 Center     Atomic      Atomic             Coordinates (Angstroms)
 Number     Number       Type             X           Y           Z
 ---------------------------------------------------------------------
      1          6           0        2.053997   -0.166966    0.269840
      2          6           0        1.448366    1.163440    0.245169
      3          6           0        0.199848    1.384131   -0.243156
      4          6           0       -0.719063    0.268814   -0.713910
      5          6           0       -0.106501   -1.159669   -0.417501
      6          6           0        1.316519   -1.260041   -0.110953
      7          1           0       -0.510665   -1.960359   -1.047810
      8          1           0       -0.761651   -1.150584    0.642461
      9          1           0       -0.244360    2.399273   -0.288996
     10          1           0        2.045937    2.006457    0.576489
     11          8           0       -1.990455    0.226978   -0.225107
     12          1           0       -0.867384    0.410704   -1.848069
     13          8           0       -1.723389   -0.297874    1.140256
     14          1           0        1.788459   -2.233037   -0.115577
     15          1           0        3.101416   -0.283549    0.583370
 ---------------------------------------------------------------------
 Rotational constants (GHZ):           3.7134812           1.8656805           1.5257178
 Standard basis: CC-pVTZ+d (5D, 7F)
 There are   385 symmetry adapted cartesian basis functions of A   symmetry.
 There are   338 symmetry adapted basis functions of A   symmetry.
   338 basis functions,   535 primitive gaussians,   385 cartesian basis functions
    30 alpha electrons       29 beta electrons
       nuclear repulsion energy       360.9527878814 Hartrees.
 NAtoms=   15 NActive=   15 NUniq=   15 SFac= 1.00D+00 NAtFMM=   60 NAOKFM=F Big=F
 Integral buffers will be    131072 words long.
 Raffenetti 2 integral format.
 Two-electron integral symmetry is turned on.
 One-electron integrals computed using PRISM.
 NBasis=   338 RedAO= T EigKep=  7.15D-05  NBF=   338
 NBsUse=   338 1.00D-06 EigRej= -1.00D+00 NBFU=   338
 ExpMin= 1.03D-01 ExpMax= 1.53D+04 ExpMxC= 5.22D+02 IAcc=3 IRadAn=         5 AccDes= 0.00D+00
 Harris functional with IExCor=  402 and IRadAn=       5 diagonalized for initial guess.
 HarFok:  IExCor=  402 AccDes= 0.00D+00 IRadAn=         5 IDoV= 1 UseB2=F ITyADJ=14
 ICtDFT=  3500011 ScaDFX=  1.000000  1.000000  1.000000  1.000000
 FoFCou: FMM=F IPFlag=           0 FMFlag=      100000 FMFlg1=           0
         NFxFlg=           0 DoJE=T BraDBF=F KetDBF=T FulRan=T
         wScrn=  0.000000 ICntrl=       500 IOpCl=  0 I1Cent=   200000004 NGrid=           0
         NMat0=    1 NMatS0=      1 NMatT0=    0 NMatD0=    1 NMtDS0=    0 NMtDT0=    0
 Petite list used in FoFCou.
 Initial guess <Sx>= 0.0000 <Sy>= 0.0000 <Sz>= 0.5000 <S**2>= 0.7500 S= 0.5000
 Requested convergence on RMS density matrix=1.00D-08 within 128 cycles.
 Requested convergence on MAX density matrix=1.00D-06.
 Requested convergence on             energy=1.00D-06.
 No special actions if energy rises.
 Integral accuracy reduced to 1.0D-05 until final iterations.
 Initial convergence to 1.0D-05 achieved.  Increase integral accuracy.
 SCF Done:  E(UB3LYP) =  -383.217628366     A.U. after   23 cycles
            NFock= 23  Conv=0.90D-08     -V/T= 2.0073
 <Sx>= 0.0000 <Sy>= 0.0000 <Sz>= 0.5000 <S**2>= 0.7879 S= 0.5188
 <L.S>= 0.000000000000E+00
 Annihilation of the first spin contaminant:
 S**2 before annihilation     0.7879,   after     0.7507
 DoSCS=F DFT=T ScalE2(SS,OS)=  1.000000  1.000000
 Range of M.O.s used for correlation:     1   338
 NBasis=   338 NAE=    30 NBE=    29 NFC=     0 NFV=     0
 NROrb=    338 NOA=    30 NOB=    29 NVA=   308 NVB=   309

 **** Warning!!: The largest alpha MO coefficient is  0.17149305D+02


 **** Warning!!: The largest beta MO coefficient is  0.16698609D+02


 **** Warning!!: The smallest beta delta epsilon is  0.95968322D-01

 Symmetrizing basis deriv contribution to polar:
 IMax=3 JMax=2 DiffMx= 0.00D+00
 G2DrvN: will do    16 centers at a time, making    1 passes.
 Calling FoFCou, ICntrl=  3107 FMM=F I1Cent=   0 AccDes= 0.00D+00.
 End of G2Drv F.D. properties file   721 does not exist.
 End of G2Drv F.D. properties file   722 does not exist.
 End of G2Drv F.D. properties file   788 does not exist.
          IDoAtm=111111111111111
          Differentiating once with respect to nuclear coordinates.
 CalDSu exits because no D1Ps are significant.
          There are    48 degrees of freedom in the 1st order CPHF.  IDoFFX=6 NUNeed=     0.
     42 vectors produced by pass  0 Test12= 3.79D-14 2.08D-09 XBig12= 3.54D-01 2.52D-01.
 AX will form    42 AO Fock derivatives at one time.
     42 vectors produced by pass  1 Test12= 3.79D-14 2.08D-09 XBig12= 7.55D-02 6.45D-02.
     42 vectors produced by pass  2 Test12= 3.79D-14 2.08D-09 XBig12= 2.52D-03 9.61D-03.
     42 vectors produced by pass  3 Test12= 3.79D-14 2.08D-09 XBig12= 2.96D-05 9.44D-04.
     42 vectors produced by pass  4 Test12= 3.79D-14 2.08D-09 XBig12= 3.61D-07 6.41D-05.
     42 vectors produced by pass  5 Test12= 3.79D-14 2.08D-09 XBig12= 3.68D-09 5.78D-06.
     41 vectors produced by pass  6 Test12= 3.79D-14 2.08D-09 XBig12= 2.17D-11 4.43D-07.
     18 vectors produced by pass  7 Test12= 3.79D-14 2.08D-09 XBig12= 8.72D-14 2.83D-08.
 InvSVY:  IOpt=1 It=  1 EMax= 1.33D-15
 Solved reduced A of dimension   311 with    42 vectors.
 End of Minotr F.D. properties file   721 does not exist.
 End of Minotr F.D. properties file   722 does not exist.
 End of Minotr F.D. properties file   788 does not exist.

 **********************************************************************

            Population analysis using the SCF Density.

 **********************************************************************

 Orbital symmetries:
 Alpha Orbitals:
       Occupied  (A) (A) (A) (A) (A) (A) (A) (A) (A) (A) (A) (A)
                 (A) (A) (A) (A) (A) (A) (A) (A) (A) (A) (A) (A)
                 (A) (A) (A) (A) (A) (A)
       Virtual   (A) (A) (A) (A) (A) (A) (A) (A) (A) (A) (A) (A)
                 (A) (A) (A) (A) (A) (A) (A) (A) (A) (A) (A) (A)
                 (A) (A) (A) (A) (A) (A) (A) (A) (A) (A) (A) (A)
                 (A) (A) (A) (A) (A) (A) (A) (A) (A) (A) (A) (A)
                 (A) (A) (A) (A) (A) (A) (A) (A) (A) (A) (A) (A)
                 (A) (A) (A) (A) (A) (A) (A) (A) (A) (A) (A) (A)
                 (A) (A) (A) (A) (A) (A) (A) (A) (A) (A) (A) (A)
                 (A) (A) (A) (A) (A) (A) (A) (A) (A) (A) (A) (A)
                 (A) (A) (A) (A) (A) (A) (A) (A) (A) (A) (A) (A)
                 (A) (A) (A) (A) (A) (A) (A) (A) (A) (A) (A) (A)
                 (A) (A) (A) (A) (A) (A) (A) (A) (A) (A) (A) (A)
                 (A) (A) (A) (A) (A) (A) (A) (A) (A) (A) (A) (A)
                 (A) (A) (A) (A) (A) (A) (A) (A) (A) (A) (A) (A)
                 (A) (A) (A) (A) (A) (A) (A) (A) (A) (A) (A) (A)
                 (A) (A) (A) (A) (A) (A) (A) (A) (A) (A) (A) (A)
                 (A) (A) (A) (A) (A) (A) (A) (A) (A) (A) (A) (A)
                 (A) (A) (A) (A) (A) (A) (A) (A) (A) (A) (A) (A)
                 (A) (A) (A) (A) (A) (A) (A) (A) (A) (A) (A) (A)
                 (A) (A) (A) (A) (A) (A) (A) (A) (A) (A) (A) (A)
                 (A) (A) (A) (A) (A) (A) (A) (A) (A) (A) (A) (A)
                 (A) (A) (A) (A) (A) (A) (A) (A) (A) (A) (A) (A)
                 (A) (A) (A) (A) (A) (A) (A) (A) (A) (A) (A) (A)
                 (A) (A) (A) (A) (A) (A) (A) (A) (A) (A) (A) (A)
                 (A) (A) (A) (A) (A) (A) (A) (A) (A) (A) (A) (A)
                 (A) (A) (A) (A) (A) (A) (A) (A) (A) (A) (A) (A)
                 (A) (A) (A) (A) (A) (A) (A) (A)
 Beta  Orbitals:
       Occupied  (A) (A) (A) (A) (A) (A) (A) (A) (A) (A) (A) (A)
                 (A) (A) (A) (A) (A) (A) (A) (A) (A) (A) (A) (A)
                 (A) (A) (A) (A) (A)
       Virtual   (A) (A) (A) (A) (A) (A) (A) (A) (A) (A) (A) (A)
                 (A) (A) (A) (A) (A) (A) (A) (A) (A) (A) (A) (A)
                 (A) (A) (A) (A) (A) (A) (A) (A) (A) (A) (A) (A)
                 (A) (A) (A) (A) (A) (A) (A) (A) (A) (A) (A) (A)
                 (A) (A) (A) (A) (A) (A) (A) (A) (A) (A) (A) (A)
                 (A) (A) (A) (A) (A) (A) (A) (A) (A) (A) (A) (A)
                 (A) (A) (A) (A) (A) (A) (A) (A) (A) (A) (A) (A)
                 (A) (A) (A) (A) (A) (A) (A) (A) (A) (A) (A) (A)
                 (A) (A) (A) (A) (A) (A) (A) (A) (A) (A) (A) (A)
                 (A) (A) (A) (A) (A) (A) (A) (A) (A) (A) (A) (A)
                 (A) (A) (A) (A) (A) (A) (A) (A) (A) (A) (A) (A)
                 (A) (A) (A) (A) (A) (A) (A) (A) (A) (A) (A) (A)
                 (A) (A) (A) (A) (A) (A) (A) (A) (A) (A) (A) (A)
                 (A) (A) (A) (A) (A) (A) (A) (A) (A) (A) (A) (A)
                 (A) (A) (A) (A) (A) (A) (A) (A) (A) (A) (A) (A)
                 (A) (A) (A) (A) (A) (A) (A) (A) (A) (A) (A) (A)
                 (A) (A) (A) (A) (A) (A) (A) (A) (A) (A) (A) (A)
                 (A) (A) (A) (A) (A) (A) (A) (A) (A) (A) (A) (A)
                 (A) (A) (A) (A) (A) (A) (A) (A) (A) (A) (A) (A)
                 (A) (A) (A) (A) (A) (A) (A) (A) (A) (A) (A) (A)
                 (A) (A) (A) (A) (A) (A) (A) (A) (A) (A) (A) (A)
                 (A) (A) (A) (A) (A) (A) (A) (A) (A) (A) (A) (A)
                 (A) (A) (A) (A) (A) (A) (A) (A) (A) (A) (A) (A)
                 (A) (A) (A) (A) (A) (A) (A) (A) (A) (A) (A) (A)
                 (A) (A) (A) (A) (A) (A) (A) (A) (A) (A) (A) (A)
                 (A) (A) (A) (A) (A) (A) (A) (A) (A)
 The electronic state is 2-A.
 Alpha  occ. eigenvalues --  -19.19827 -19.17280 -10.25813 -10.21301 -10.20869
 Alpha  occ. eigenvalues --  -10.20785 -10.20676 -10.20234  -1.11595  -0.88880
 Alpha  occ. eigenvalues --   -0.85543  -0.77057  -0.74820  -0.63208  -0.61985
 Alpha  occ. eigenvalues --   -0.53420  -0.51665  -0.50612  -0.48107  -0.46459
 Alpha  occ. eigenvalues --   -0.43870  -0.42568  -0.40238  -0.38134  -0.35339
 Alpha  occ. eigenvalues --   -0.35105  -0.32909  -0.28836  -0.26086  -0.22986
 Alpha virt. eigenvalues --   -0.06079   0.00238   0.02757   0.04113   0.05884
 Alpha virt. eigenvalues --    0.06101   0.08080   0.09284   0.11210   0.12848
 Alpha virt. eigenvalues --    0.16273   0.19007   0.19964   0.21762   0.24238
 Alpha virt. eigenvalues --    0.25578   0.26069   0.26789   0.29825   0.30669
 Alpha virt. eigenvalues --    0.31335   0.32892   0.34263   0.36592   0.37181
 Alpha virt. eigenvalues --    0.37711   0.38842   0.39690   0.40768   0.41386
 Alpha virt. eigenvalues --    0.41998   0.43217   0.43379   0.44560   0.45453
 Alpha virt. eigenvalues --    0.46545   0.47755   0.49053   0.51147   0.52338
 Alpha virt. eigenvalues --    0.52810   0.56131   0.57011   0.59018   0.61509
 Alpha virt. eigenvalues --    0.62289   0.65803   0.66873   0.69061   0.70051
 Alpha virt. eigenvalues --    0.72477   0.73348   0.73888   0.76138   0.76497
 Alpha virt. eigenvalues --    0.78549   0.81686   0.83985   0.86329   0.89353
 Alpha virt. eigenvalues --    0.91468   0.93549   0.95103   0.96348   0.97486
 Alpha virt. eigenvalues --    0.98725   0.99503   1.02694   1.03205   1.05645
 Alpha virt. eigenvalues --    1.07568   1.08520   1.10418   1.11516   1.12284
 Alpha virt. eigenvalues --    1.14111   1.17110   1.18549   1.19218   1.20746
 Alpha virt. eigenvalues --    1.23365   1.23922   1.26826   1.27029   1.28547
 Alpha virt. eigenvalues --    1.29106   1.30474   1.31436   1.33001   1.34939
 Alpha virt. eigenvalues --    1.39210   1.40104   1.40967   1.41133   1.43387
 Alpha virt. eigenvalues --    1.45260   1.47491   1.49532   1.52230   1.53031
 Alpha virt. eigenvalues --    1.57120   1.57729   1.61592   1.70507   1.72716
 Alpha virt. eigenvalues --    1.77918   1.85914   1.88647   1.89651   1.92051
 Alpha virt. eigenvalues --    1.95935   1.98344   2.03784   2.04682   2.05541
 Alpha virt. eigenvalues --    2.08904   2.12110   2.13041   2.14237   2.17567
 Alpha virt. eigenvalues --    2.19000   2.22658   2.29323   2.33544   2.34882
 Alpha virt. eigenvalues --    2.36844   2.39333   2.41446   2.42881   2.44407
 Alpha virt. eigenvalues --    2.46374   2.48642   2.52269   2.53249   2.54068
 Alpha virt. eigenvalues --    2.57649   2.60321   2.64004   2.66542   2.67927
 Alpha virt. eigenvalues --    2.69390   2.70383   2.70952   2.73409   2.75531
 Alpha virt. eigenvalues --    2.76262   2.79576   2.80599   2.83521   2.84588
 Alpha virt. eigenvalues --    2.86561   2.88699   2.91223   2.92543   2.93755
 Alpha virt. eigenvalues --    2.94307   2.94685   2.95638   2.97426   2.99785
 Alpha virt. eigenvalues --    3.01938   3.03952   3.05186   3.07324   3.07997
 Alpha virt. eigenvalues --    3.10234   3.11443   3.13906   3.14904   3.15961
 Alpha virt. eigenvalues --    3.18576   3.20480   3.21512   3.22276   3.22981
 Alpha virt. eigenvalues --    3.25529   3.28382   3.30060   3.31406   3.33141
 Alpha virt. eigenvalues --    3.34359   3.36216   3.38179   3.40043   3.41348
 Alpha virt. eigenvalues --    3.43236   3.47342   3.49452   3.50980   3.53597
 Alpha virt. eigenvalues --    3.55060   3.56299   3.58908   3.62973   3.63245
 Alpha virt. eigenvalues --    3.65398   3.66516   3.69182   3.69926   3.70663
 Alpha virt. eigenvalues --    3.72172   3.74478   3.75704   3.77384   3.80421
 Alpha virt. eigenvalues --    3.81032   3.82094   3.84257   3.87493   3.89628
 Alpha virt. eigenvalues --    3.91561   3.91977   3.94301   3.97325   3.97869
 Alpha virt. eigenvalues --    3.99709   4.00776   4.03156   4.03976   4.07624
 Alpha virt. eigenvalues --    4.08627   4.10676   4.11016   4.13504   4.14912
 Alpha virt. eigenvalues --    4.18848   4.19635   4.20464   4.22616   4.25051
 Alpha virt. eigenvalues --    4.28780   4.30947   4.34759   4.35635   4.37763
 Alpha virt. eigenvalues --    4.40388   4.41292   4.43927   4.48810   4.52895
 Alpha virt. eigenvalues --    4.55417   4.57838   4.58479   4.61334   4.64001
 Alpha virt. eigenvalues --    4.66769   4.67779   4.70613   4.71681   4.74430
 Alpha virt. eigenvalues --    4.74522   4.79392   4.83781   4.84266   4.85681
 Alpha virt. eigenvalues --    4.89682   4.92569   4.94595   4.97197   4.98794
 Alpha virt. eigenvalues --    5.03415   5.06021   5.07527   5.08666   5.12924
 Alpha virt. eigenvalues --    5.17164   5.21849   5.23651   5.25888   5.31454
 Alpha virt. eigenvalues --    5.35938   5.40870   5.45597   5.52293   5.54057
 Alpha virt. eigenvalues --    5.55370   5.63158   5.64753   5.69616   5.73630
 Alpha virt. eigenvalues --    5.78477   5.86140   5.89765   5.97175   5.98470
 Alpha virt. eigenvalues --    6.06866   6.18431   6.19618   6.26574   6.37790
 Alpha virt. eigenvalues --    6.42740   6.48259   6.70990   6.77798   6.82592
 Alpha virt. eigenvalues --    6.90547   6.93377   7.16633   7.24741   7.62557
 Alpha virt. eigenvalues --    9.09118   9.42777  10.37590  11.25608  11.94159
 Alpha virt. eigenvalues --   12.14768  12.88267  14.20690
  Beta  occ. eigenvalues --  -19.19610 -19.15993 -10.25843 -10.21008 -10.20872
  Beta  occ. eigenvalues --  -10.20414 -10.20394 -10.20340  -1.10569  -0.86646
  Beta  occ. eigenvalues --   -0.84870  -0.76643  -0.73930  -0.62731  -0.61554
  Beta  occ. eigenvalues --   -0.53179  -0.50506  -0.50032  -0.47612  -0.45947
  Beta  occ. eigenvalues --   -0.43698  -0.41266  -0.39438  -0.37607  -0.34400
  Beta  occ. eigenvalues --   -0.33534  -0.31820  -0.26326  -0.23969
  Beta virt. eigenvalues --   -0.14372  -0.05145   0.01202   0.02856   0.04732
  Beta virt. eigenvalues --    0.05916   0.06509   0.08255   0.09402   0.11317
  Beta virt. eigenvalues --    0.13627   0.16620   0.19393   0.20294   0.21947
  Beta virt. eigenvalues --    0.24336   0.25726   0.26347   0.27081   0.30121
  Beta virt. eigenvalues --    0.30957   0.31738   0.33221   0.34519   0.36752
  Beta virt. eigenvalues --    0.37581   0.37947   0.39117   0.39983   0.41007
  Beta virt. eigenvalues --    0.41691   0.42294   0.43439   0.43619   0.45129
  Beta virt. eigenvalues --    0.45803   0.46660   0.47902   0.49374   0.51272
  Beta virt. eigenvalues --    0.52550   0.53173   0.56283   0.57180   0.59475
  Beta virt. eigenvalues --    0.61776   0.63080   0.66004   0.67256   0.69389
  Beta virt. eigenvalues --    0.70333   0.72755   0.73651   0.74115   0.76691
  Beta virt. eigenvalues --    0.76892   0.79026   0.81814   0.84241   0.86532
  Beta virt. eigenvalues --    0.89481   0.91604   0.93725   0.95431   0.96558
  Beta virt. eigenvalues --    0.97639   0.98848   0.99782   1.02972   1.03446
  Beta virt. eigenvalues --    1.05884   1.07772   1.08727   1.10642   1.11708
  Beta virt. eigenvalues --    1.12431   1.14345   1.17427   1.18755   1.19494
  Beta virt. eigenvalues --    1.20981   1.23537   1.24335   1.27130   1.27348
  Beta virt. eigenvalues --    1.29381   1.29468   1.30733   1.31702   1.33244
  Beta virt. eigenvalues --    1.35068   1.39605   1.40492   1.41247   1.41644
  Beta virt. eigenvalues --    1.43869   1.45471   1.47771   1.49896   1.52764
  Beta virt. eigenvalues --    1.53430   1.57355   1.58209   1.62197   1.71034
  Beta virt. eigenvalues --    1.73332   1.78393   1.86669   1.88908   1.90386
  Beta virt. eigenvalues --    1.92408   1.96232   1.98695   2.04471   2.05373
  Beta virt. eigenvalues --    2.06037   2.09146   2.12448   2.13390   2.14763
  Beta virt. eigenvalues --    2.18111   2.19740   2.23728   2.29750   2.33876
  Beta virt. eigenvalues --    2.35145   2.37291   2.39747   2.41807   2.43227
  Beta virt. eigenvalues --    2.44726   2.46898   2.49026   2.52676   2.53553
  Beta virt. eigenvalues --    2.54223   2.57992   2.60627   2.64427   2.66961
  Beta virt. eigenvalues --    2.68454   2.69699   2.70718   2.71369   2.73650
  Beta virt. eigenvalues --    2.76114   2.76607   2.79759   2.80851   2.83915
  Beta virt. eigenvalues --    2.85075   2.87047   2.89385   2.91733   2.93015
  Beta virt. eigenvalues --    2.94158   2.94747   2.95156   2.95938   2.97808
  Beta virt. eigenvalues --    3.00056   3.02475   3.04219   3.05479   3.07584
  Beta virt. eigenvalues --    3.08111   3.10514   3.11810   3.14056   3.15213
  Beta virt. eigenvalues --    3.16449   3.18980   3.20974   3.21839   3.22746
  Beta virt. eigenvalues --    3.23417   3.25973   3.28658   3.30421   3.31775
  Beta virt. eigenvalues --    3.33452   3.34753   3.36415   3.38584   3.40459
  Beta virt. eigenvalues --    3.41760   3.43588   3.47584   3.49678   3.51567
  Beta virt. eigenvalues --    3.53984   3.55350   3.56747   3.59220   3.63168
  Beta virt. eigenvalues --    3.63404   3.65803   3.66788   3.69565   3.70263
  Beta virt. eigenvalues --    3.70883   3.72388   3.74754   3.76011   3.77753
  Beta virt. eigenvalues --    3.80628   3.81423   3.82394   3.84480   3.87640
  Beta virt. eigenvalues --    3.89869   3.91764   3.92120   3.94505   3.97452
  Beta virt. eigenvalues --    3.98106   3.99998   4.00887   4.03322   4.04364
  Beta virt. eigenvalues --    4.07868   4.08715   4.10892   4.11405   4.13615
  Beta virt. eigenvalues --    4.15069   4.19069   4.19970   4.20605   4.23001
  Beta virt. eigenvalues --    4.25379   4.29004   4.31177   4.34905   4.36048
  Beta virt. eigenvalues --    4.38011   4.40678   4.41501   4.44327   4.49282
  Beta virt. eigenvalues --    4.53161   4.55769   4.58054   4.58635   4.61765
  Beta virt. eigenvalues --    4.64281   4.66962   4.68262   4.70835   4.71956
  Beta virt. eigenvalues --    4.74729   4.74931   4.80048   4.84183   4.84635
  Beta virt. eigenvalues --    4.85835   4.89900   4.92801   4.95068   4.97609
  Beta virt. eigenvalues --    4.99029   5.03700   5.06739   5.07808   5.09454
  Beta virt. eigenvalues --    5.13280   5.17784   5.22690   5.24307   5.26301
  Beta virt. eigenvalues --    5.32317   5.36503   5.41321   5.45896   5.54295
  Beta virt. eigenvalues --    5.54801   5.55776   5.63694   5.65081   5.70004
  Beta virt. eigenvalues --    5.74190   5.79347   5.86427   5.90789   5.97767
  Beta virt. eigenvalues --    5.98917   6.07360   6.19864   6.21763   6.27981
  Beta virt. eigenvalues --    6.38932   6.43639   6.51459   6.72078   6.78814
  Beta virt. eigenvalues --    6.83734   6.92438   6.94867   7.17594   7.26629
  Beta virt. eigenvalues --    7.63479   9.09665   9.44141  10.37915  11.25823
  Beta virt. eigenvalues --   11.94282  12.15318  12.88391  14.20871
          Condensed to atoms (all electrons):
               1          2          3          4          5          6
     1  C    4.949369   0.384308  -0.033762  -0.027488  -0.045751   0.516263
     2  C    0.384308   4.952412   0.480105  -0.019267  -0.009579  -0.045023
     3  C   -0.033762   0.480105   5.182100   0.276924  -0.053243  -0.025501
     4  C   -0.027488  -0.019267   0.276924   4.757602   0.328662  -0.012134
     5  C   -0.045751  -0.009579  -0.053243   0.328662   5.092941   0.324626
     6  C    0.516263  -0.045023  -0.025501  -0.012134   0.324626   5.042844
     7  H    0.008040  -0.002166   0.010681  -0.027866   0.387594  -0.036421
     8  H   -0.007531   0.003474  -0.006853  -0.025377   0.299514  -0.018431
     9  H    0.007334  -0.037353   0.396040  -0.034515   0.008385  -0.001665
    10  H   -0.046442   0.420445  -0.036429   0.005779  -0.001604   0.007161
    11  O   -0.000777   0.009297  -0.059028   0.348836  -0.055180   0.008031
    12  H    0.002042   0.004215  -0.054053   0.386067  -0.020196  -0.000725
    13  O    0.003688  -0.002489   0.022620  -0.101549  -0.075235  -0.008032
    14  H   -0.046342   0.006691  -0.001193   0.004347  -0.031714   0.416955
    15  H    0.427041  -0.041125   0.006327  -0.000757   0.006586  -0.045114
               7          8          9         10         11         12
     1  C    0.008040  -0.007531   0.007334  -0.046442  -0.000777   0.002042
     2  C   -0.002166   0.003474  -0.037353   0.420445   0.009297   0.004215
     3  C    0.010681  -0.006853   0.396040  -0.036429  -0.059028  -0.054053
     4  C   -0.027866  -0.025377  -0.034515   0.005779   0.348836   0.386067
     5  C    0.387594   0.299514   0.008385  -0.001604  -0.055180  -0.020196
     6  C   -0.036421  -0.018431  -0.001665   0.007161   0.008031  -0.000725
     7  H    0.570603  -0.017021  -0.000353   0.000089   0.010051  -0.006508
     8  H   -0.017021   0.491460   0.000465  -0.000092  -0.045065   0.003738
     9  H   -0.000353   0.000465   0.554886  -0.009617   0.004597  -0.001453
    10  H    0.000089  -0.000092  -0.009617   0.548040  -0.000174  -0.000495
    11  O    0.010051  -0.045065   0.004597  -0.000174   7.827605  -0.030462
    12  H   -0.006508   0.003738  -0.001453  -0.000495  -0.030462   0.640613
    13  O    0.000893   0.141657  -0.000767   0.000167   0.126158   0.007304
    14  H   -0.007528   0.001412   0.000099  -0.000354  -0.000242  -0.000255
    15  H   -0.000211  -0.000088  -0.000243  -0.005284  -0.000003   0.000054
              13         14         15
     1  C    0.003688  -0.046342   0.427041
     2  C   -0.002489   0.006691  -0.041125
     3  C    0.022620  -0.001193   0.006327
     4  C   -0.101549   0.004347  -0.000757
     5  C   -0.075235  -0.031714   0.006586
     6  C   -0.008032   0.416955  -0.045114
     7  H    0.000893  -0.007528  -0.000211
     8  H    0.141657   0.001412  -0.000088
     9  H   -0.000767   0.000099  -0.000243
    10  H    0.000167  -0.000354  -0.005284
    11  O    0.126158  -0.000242  -0.000003
    12  H    0.007304  -0.000255   0.000054
    13  O    8.144335  -0.000277   0.000078
    14  H   -0.000277   0.535967  -0.008002
    15  H    0.000078  -0.008002   0.544351
          Atomic-Atomic Spin Densities.
               1          2          3          4          5          6
     1  C    0.297690  -0.014890  -0.014964   0.000413  -0.017894   0.029145
     2  C   -0.014890  -0.102389   0.018877   0.000190   0.003285   0.002168
     3  C   -0.014964   0.018877   0.206379   0.001388   0.005196   0.000485
     4  C    0.000413   0.000190   0.001388  -0.034394   0.001081   0.000391
     5  C   -0.017894   0.003285   0.005196   0.001081   0.330961  -0.021000
     6  C    0.029145   0.002168   0.000485   0.000391  -0.021000  -0.154045
     7  H   -0.000395   0.000160  -0.000834  -0.002140   0.007947   0.000179
     8  H    0.000330  -0.001323   0.003459   0.012107   0.030223   0.002626
     9  H   -0.000258   0.000634   0.000842   0.000610   0.000131   0.000044
    10  H   -0.000327  -0.001228  -0.000382   0.000053   0.000011   0.000012
    11  O    0.000079  -0.000064  -0.010808  -0.002909   0.004287  -0.000479
    12  H    0.001098  -0.001194  -0.000034   0.009203  -0.009339   0.000168
    13  O    0.000762   0.000578  -0.003082   0.006153  -0.044820   0.003340
    14  H   -0.000593   0.000111  -0.000040   0.000022  -0.001546  -0.001758
    15  H    0.003759   0.000791  -0.000257   0.000031  -0.000216   0.000823
               7          8          9         10         11         12
     1  C   -0.000395   0.000330  -0.000258  -0.000327   0.000079   0.001098
     2  C    0.000160  -0.001323   0.000634  -0.001228  -0.000064  -0.001194
     3  C   -0.000834   0.003459   0.000842  -0.000382  -0.010808  -0.000034
     4  C   -0.002140   0.012107   0.000610   0.000053  -0.002909   0.009203
     5  C    0.007947   0.030223   0.000131   0.000011   0.004287  -0.009339
     6  C    0.000179   0.002626   0.000044   0.000012  -0.000479   0.000168
     7  H   -0.013862   0.003136   0.000026  -0.000005  -0.000985  -0.000234
     8  H    0.003136  -0.060273  -0.000003   0.000020   0.004855  -0.000502
     9  H    0.000026  -0.000003  -0.008703   0.000085   0.000873  -0.000542
    10  H   -0.000005   0.000020   0.000085   0.004402   0.000003  -0.000003
    11  O   -0.000985   0.004855   0.000873   0.000003   0.094533  -0.003170
    12  H   -0.000234  -0.000502  -0.000542  -0.000003  -0.003170   0.020119
    13  O    0.001144  -0.029586  -0.000189  -0.000011  -0.030116  -0.000911
    14  H    0.000273  -0.000094   0.000002  -0.000006   0.000002  -0.000046
    15  H    0.000009   0.000002   0.000008   0.000109   0.000000  -0.000002
              13         14         15
     1  C    0.000762  -0.000593   0.003759
     2  C    0.000578   0.000111   0.000791
     3  C   -0.003082  -0.000040  -0.000257
     4  C    0.006153   0.000022   0.000031
     5  C   -0.044820  -0.001546  -0.000216
     6  C    0.003340  -0.001758   0.000823
     7  H    0.001144   0.000273   0.000009
     8  H   -0.029586  -0.000094   0.000002
     9  H   -0.000189   0.000002   0.000008
    10  H   -0.000011  -0.000006   0.000109
    11  O   -0.030116   0.000002   0.000000
    12  H   -0.000911  -0.000046  -0.000002
    13  O    0.538857   0.000127  -0.000004
    14  H    0.000127   0.007601   0.000168
    15  H   -0.000004   0.000168  -0.016583
 Mulliken charges and spin densities:
               1          2
     1  C   -0.089993   0.283957
     2  C   -0.103943  -0.094294
     3  C   -0.104734   0.206224
     4  C    0.140735  -0.007801
     5  C   -0.155806   0.288306
     6  C   -0.122835  -0.137899
     7  H    0.110122  -0.005582
     8  H    0.178737  -0.035023
     9  H    0.114160  -0.006439
    10  H    0.118811   0.002733
    11  O   -0.143643   0.056102
    12  H    0.070115   0.014613
    13  O   -0.258551   0.442241
    14  H    0.130435   0.004224
    15  H    0.116389  -0.011362
 Sum of Mulliken charges =  -0.00000   1.00000
 Mulliken charges and spin densities with hydrogens summed into heavy atoms:
               1          2
     1  C    0.026396   0.272595
     2  C    0.014868  -0.091561
     3  C    0.009426   0.199785
     4  C    0.210851   0.006811
     5  C    0.133053   0.247702
     6  C    0.007601  -0.133675
    11  O   -0.143643   0.056102
    13  O   -0.258551   0.442241
 APT charges:
               1
     1  C   -0.511068
     2  C   -0.528963
     3  C   -0.504684
     4  C   -0.408608
     5  C   -0.614939
     6  C   -0.545588
     7  H    0.458042
     8  H    0.176562
     9  H    0.489336
    10  H    0.577203
    11  O    0.038984
    12  H    0.366780
    13  O   -0.217107
    14  H    0.585504
    15  H    0.638546
 Sum of APT charges =  -0.00000
 APT charges with hydrogens summed into heavy atoms:
               1
     1  C    0.127478
     2  C    0.048240
     3  C   -0.015348
     4  C   -0.041828
     5  C    0.019665
     6  C    0.039915
    11  O    0.038984
    13  O   -0.217107
 Electronic spatial extent (au):  <R**2>=            843.5902
 Charge=             -0.0000 electrons
 Dipole moment (field-independent basis, Debye):
    X=              3.4576    Y=             -0.1938    Z=             -1.5336  Tot=              3.7874
 Quadrupole moment (field-independent basis, Debye-Ang):
   XX=            -50.4339   YY=            -42.1675   ZZ=            -48.8831
   XY=             -0.6499   XZ=              4.4187   YZ=              0.6844
 Traceless Quadrupole moment (field-independent basis, Debye-Ang):
   XX=             -3.2724   YY=              4.9940   ZZ=             -1.7216
   XY=             -0.6499   XZ=              4.4187   YZ=              0.6844
 Octapole moment (field-independent basis, Debye-Ang**2):
  XXX=             12.2584  YYY=             -0.1076  ZZZ=             -0.9608  XYY=             -2.0132
  XXY=              0.3353  XXZ=              2.0713  XZZ=             -5.8319  YZZ=             -0.6059
  YYZ=              0.3229  XYZ=              0.8134
 Hexadecapole moment (field-independent basis, Debye-Ang**3):
 XXXX=           -619.6174 YYYY=           -306.9104 ZZZZ=           -145.6883 XXXY=             -3.8737
 XXXZ=             15.9144 YYYX=             -4.1921 YYYZ=              4.3653 ZZZX=              1.6789
 ZZZY=             -1.9945 XXYY=           -151.0867 XXZZ=           -136.1292 YYZZ=            -81.8536
 XXYZ=              4.4542 YYXZ=              3.1855 ZZXY=             -0.0088
 N-N= 3.609527878814D+02 E-N=-1.616356479056D+03  KE= 3.804292987566D+02
  Exact polarizability:   0.000   0.000   0.000   0.000   0.000   0.000
 Approx polarizability: 200.173  -6.456 133.345  -7.570  -3.545 110.160
                          Isotropic Fermi Contact Couplings
        Atom                 a.u.       MegaHertz       Gauss      10(-4) cm-1
     1  C(13)              0.01280      14.39214       5.13547       4.80070
     2  C(13)             -0.01377     -15.47913      -5.52334      -5.16328
     3  C(13)              0.00803       9.02258       3.21948       3.00961
     4  C(13)             -0.01754     -19.72270      -7.03755      -6.57879
     5  C(13)              0.02272      25.54579       9.11537       8.52116
     6  C(13)             -0.01638     -18.41328      -6.57032      -6.14201
     7  H(1)              -0.00190      -8.51172      -3.03719      -2.83920
     8  H(1)              -0.01235     -55.18213     -19.69035     -18.40678
     9  H(1)              -0.00264     -11.78721      -4.20597      -3.93179
    10  H(1)               0.00122       5.44430       1.94266       1.81602
    11  O(17)              0.05840     -35.40258     -12.63252     -11.80903
    12  H(1)               0.00913      40.79000      14.55489      13.60608
    13  O(17)              0.02457     -14.89494      -5.31488      -4.96842
    14  H(1)               0.00209       9.33195       3.32987       3.11280
    15  H(1)              -0.00421     -18.81135      -6.71236      -6.27479
 --------------------------------------------------------
       Center         ----  Spin Dipole Couplings  ----
                      3XX-RR        3YY-RR        3ZZ-RR
 --------------------------------------------------------
     1   Atom       -0.120685     -0.169016      0.289701
     2   Atom        0.035117      0.042905     -0.078021
     3   Atom       -0.060453     -0.105571      0.166023
     4   Atom        0.013176     -0.007310     -0.005866
     5   Atom       -0.132696     -0.141060      0.273756
     6   Atom        0.070971      0.064582     -0.135553
     7   Atom       -0.014225      0.011015      0.003210
     8   Atom        0.019160     -0.031241      0.012081
     9   Atom       -0.007762      0.012984     -0.005222
    10   Atom        0.003543      0.000563     -0.004106
    11   Atom       -0.147252      0.371019     -0.223767
    12   Atom       -0.003526     -0.004068      0.007594
    13   Atom       -0.272129      0.996772     -0.724643
    14   Atom        0.005861     -0.001212     -0.004649
    15   Atom        0.020285     -0.021483      0.001198
 --------------------------------------------------------
                        XY            XZ            YZ
 --------------------------------------------------------
     1   Atom        0.011622     -0.136122     -0.045822
     2   Atom       -0.009799      0.049009      0.014954
     3   Atom        0.030178     -0.139612     -0.057710
     4   Atom       -0.013637      0.000580     -0.007222
     5   Atom        0.054691     -0.173631     -0.150641
     6   Atom        0.000377      0.047292      0.028570
     7   Atom        0.015934      0.000088      0.014061
     8   Atom       -0.050060     -0.076693      0.035562
     9   Atom       -0.008205     -0.006294     -0.003590
    10   Atom       -0.002436      0.001877     -0.000876
    11   Atom        0.097759     -0.003071      0.159209
    12   Atom        0.000462     -0.001662     -0.001920
    13   Atom       -1.220893     -0.429514      0.697199
    14   Atom        0.004288      0.001908      0.003481
    15   Atom       -0.002740      0.005283     -0.003269
 --------------------------------------------------------


 ---------------------------------------------------------------------------------
              Anisotropic Spin Dipole Couplings in Principal Axis System
 ---------------------------------------------------------------------------------

       Atom             a.u.   MegaHertz   Gauss  10(-4) cm-1        Axes

              Baa    -0.1738   -23.323    -8.322    -7.780  0.1370  0.9810  0.1372
     1 C(13)  Bbb    -0.1614   -21.654    -7.727    -7.223  0.9481 -0.1700  0.2688
              Bcc     0.3352    44.977    16.049    15.003 -0.2871 -0.0933  0.9534
 
              Baa    -0.0985   -13.211    -4.714    -4.407 -0.3498 -0.1225  0.9288
     2 C(13)  Bbb     0.0435     5.837     2.083     1.947  0.3053  0.9224  0.2366
              Bcc     0.0550     7.374     2.631     2.460  0.8857 -0.3663  0.2852
 
              Baa    -0.1275   -17.116    -6.107    -5.709  0.8956 -0.2302  0.3807
     3 C(13)  Bbb    -0.1171   -15.713    -5.607    -5.241  0.1347  0.9558  0.2612
              Bcc     0.2446    32.829    11.714    10.950 -0.4240 -0.1827  0.8870
 
              Baa    -0.0175    -2.352    -0.839    -0.785  0.3483  0.8046  0.4809
     4 C(13)  Bbb    -0.0030    -0.404    -0.144    -0.135 -0.3416 -0.3688  0.8644
              Bcc     0.0205     2.757     0.984     0.920  0.8729 -0.4654  0.1464
 
              Baa    -0.1969   -26.417    -9.426    -8.812  0.9210  0.1078  0.3743
     5 C(13)  Bbb    -0.1897   -25.449    -9.081    -8.489 -0.2055  0.9507  0.2320
              Bcc     0.3865    51.866    18.507    17.301 -0.3309 -0.2907  0.8978
 
              Baa    -0.1495   -20.060    -7.158    -6.691 -0.2078 -0.1290  0.9696
     6 C(13)  Bbb     0.0656     8.802     3.141     2.936 -0.3947  0.9180  0.0376
              Bcc     0.0839    11.258     4.017     3.755  0.8950  0.3749  0.2417
 
              Baa    -0.0235   -12.551    -4.479    -4.187  0.8347 -0.4885  0.2542
     7 H(1)   Bbb    -0.0025    -1.337    -0.477    -0.446 -0.4481 -0.3342  0.8292
              Bcc     0.0260    13.888     4.956     4.633  0.3201  0.8060  0.4979
 
              Baa    -0.0672   -35.878   -12.802   -11.967  0.7087  0.5539  0.4369
     8 H(1)   Bbb    -0.0501   -26.720    -9.534    -8.913 -0.1805  0.7411 -0.6467
              Bcc     0.1173    62.598    22.336    20.880  0.6820 -0.3795 -0.6252
 
              Baa    -0.0156    -8.299    -2.961    -2.768  0.7681  0.2925  0.5696
     9 H(1)   Bbb    -0.0004    -0.200    -0.071    -0.067 -0.5601 -0.1239  0.8191
              Bcc     0.0159     8.498     3.032     2.835 -0.3102  0.9482 -0.0687
 
              Baa    -0.0046    -2.434    -0.869    -0.812 -0.2052  0.0693  0.9763
    10 H(1)   Bbb    -0.0008    -0.425    -0.152    -0.142  0.4766  0.8783  0.0378
              Bcc     0.0054     2.859     1.020     0.954  0.8549 -0.4730  0.2133
 
              Baa    -0.2702    19.553     6.977     6.522  0.2363 -0.2679  0.9340
    11 O(17)  Bbb    -0.1562    11.302     4.033     3.770  0.9581 -0.0961 -0.2700
              Bcc     0.4264   -30.855   -11.010   -10.292  0.1621  0.9586  0.2340
 
              Baa    -0.0044    -2.365    -0.844    -0.789 -0.2774  0.9540  0.1139
    12 H(1)   Bbb    -0.0037    -1.986    -0.709    -0.662  0.9497  0.2544  0.1827
              Bcc     0.0082     4.350     1.552     1.451 -0.1453 -0.1589  0.9766
 
              Baa    -1.0142    73.385    26.186    24.479  0.8662  0.4868  0.1128
    13 O(17)  Bbb    -0.9715    70.294    25.083    23.448  0.0485 -0.3066  0.9506
              Bcc     1.9856  -143.679   -51.268   -47.926 -0.4973  0.8179  0.2892
 
              Baa    -0.0069    -3.657    -1.305    -1.220  0.0644 -0.5590  0.8266
    14 H(1)   Bbb    -0.0018    -0.976    -0.348    -0.326 -0.5122  0.6924  0.5082
              Bcc     0.0087     4.633     1.653     1.545  0.8565  0.4561  0.2417
 
              Baa    -0.0220   -11.759    -4.196    -3.923  0.0481  0.9906  0.1284
    15 H(1)   Bbb     0.0001     0.059     0.021     0.020 -0.2659 -0.1112  0.9576
              Bcc     0.0219    11.700     4.175     3.903  0.9628 -0.0802  0.2580
 

 ---------------------------------------------------------------------------------

 Calling FoFJK, ICntrl=    100147 FMM=F ISym2X=0 I1Cent= 0 IOpClX= 1 NMat=1 NMatS=1 NMatT=0.
 ***** Axes restored to original set *****
 -------------------------------------------------------------------
 Center     Atomic                   Forces (Hartrees/Bohr)
 Number     Number              X              Y              Z
 -------------------------------------------------------------------
      1        6           0.007690735    0.002918349    0.000516792
      2        6           0.005159950   -0.002269317    0.007945536
      3        6           0.005700566    0.002568547   -0.012279912
      4        6          -0.040252294   -0.001225239    0.058358350
      5        6          -0.012733792    0.009272699    0.003953266
      6        6           0.005640018    0.008228077   -0.002570016
      7        1          -0.000696399    0.003304571   -0.005973724
      8        1           0.002460418   -0.000019733    0.000090021
      9        1          -0.008398804   -0.014357092   -0.000666784
     10        1           0.000686717   -0.001317456    0.001345832
     11        8           0.008823133   -0.015518592   -0.049196961
     12        1          -0.004420990   -0.005495040   -0.023757058
     13        8           0.017981399    0.012281556    0.017677854
     14        1           0.001153383   -0.001484026    0.000806583
     15        1           0.011205959    0.003112696    0.003750219
 -------------------------------------------------------------------
 Cartesian Forces:  Max     0.058358350 RMS     0.015186009
 FormGI is forming the generalized inverse of G from B-inverse, IUseBI=4.

 GradGradGradGradGradGradGradGradGradGradGradGradGradGradGradGradGradGrad
 Berny optimization.
 Internal  Forces:  Max     0.040776543 RMS     0.008996538
 Search for a saddle point.
 Step number   1 out of a maximum of   86
 All quantities printed in internal units (Hartrees-Bohrs-Radians)
 Swapping is turned off.
 Second derivative matrix not updated -- analytic derivatives used.
 ITU=  0
     Eigenvalues ---   -0.41429   0.00368   0.00879   0.01260   0.01584
     Eigenvalues ---    0.01784   0.02254   0.02376   0.02646   0.03323
     Eigenvalues ---    0.04736   0.05766   0.06577   0.07395   0.08851
     Eigenvalues ---    0.10508   0.10596   0.11071   0.12129   0.12219
     Eigenvalues ---    0.14846   0.15547   0.17756   0.18242   0.21272
     Eigenvalues ---    0.22102   0.24943   0.25756   0.30067   0.30739
     Eigenvalues ---    0.32368   0.32612   0.34113   0.35040   0.35747
     Eigenvalues ---    0.45041   0.48762   0.647781000.000001000.00000
     Eigenvalues --- 1000.000001000.000001000.000001000.000001000.00000
     Eigenvalues --- 1000.000001000.000001000.000001000.000001000.00000
     Eigenvalues --- 1000.000001000.000001000.000001000.000001000.00000
     Eigenvalues --- 1000.000001000.000001000.000001000.000001000.00000
     Eigenvalues --- 1000.000001000.000001000.000001000.000001000.00000
     Eigenvalues --- 1000.000001000.000001000.000001000.000001000.00000
     Eigenvalues --- 1000.000001000.000001000.000001000.000001000.00000
     Eigenvalues --- 1000.00000
 Eigenvectors required to have negative eigenvalues:
                          R13       A25       R15       A18       A13
   1                    0.61924  -0.32962   0.26340  -0.26041  -0.20252
                          D29       R8        D30       R11       D36
   1                   -0.18876  -0.17289  -0.16924  -0.16515   0.14233
 RFO step:  Lambda0=5.716540392D-04 Lambda=-1.89129104D-02.
 Linear search not attempted -- option 19 set.
 Iteration  1 RMS(Cart)=  0.03622230 RMS(Int)=  0.00182104
 Iteration  2 RMS(Cart)=  0.00239194 RMS(Int)=  0.00035659
 Iteration  3 RMS(Cart)=  0.00000938 RMS(Int)=  0.00035650
 Iteration  4 RMS(Cart)=  0.00000000 RMS(Int)=  0.00035650
 Iteration  1 RMS(Cart)=  0.00000000 RMS(Int)=  0.00000000
 Variable       Old X    -DE/DX   Delta X   Delta X   Delta X     New X
                                 (Linear)    (Quad)   (Total)
    R1        2.76274  -0.01344   0.00000  -0.04099  -0.04117   2.72157
    R2        2.59360  -0.01063   0.00000  -0.01303  -0.01315   2.58045
    R3        2.07782  -0.01217   0.00000  -0.03411  -0.03411   2.04371
    R4        2.56750  -0.01855   0.00000  -0.02908  -0.02917   2.53833
    R5        2.05063  -0.00186   0.00000  -0.00454  -0.00454   2.04609
    R6        2.87210  -0.00945   0.00000  -0.02001  -0.01992   2.85217
    R7        2.09575  -0.01637   0.00000  -0.05055  -0.05055   2.04520
    R8        2.99010  -0.01545   0.00000  -0.05686  -0.05663   2.93348
    R9        2.57524   0.03634   0.00000   0.00000   0.00000   2.57524
   R10        2.17807  -0.02474   0.00000  -0.11222  -0.11222   2.06585
   R11        2.75734  -0.01686   0.00000  -0.05797  -0.05793   2.69941
   R12        2.07159  -0.00629   0.00000  -0.01701  -0.01701   2.05459
   R13        2.35483   0.00122   0.00000   0.07127   0.07127   2.42610
   R14        2.04359   0.00097   0.00000   0.00255   0.00255   2.04614
   R15        2.80992  -0.02399   0.00000  -0.17316  -0.17316   2.63676
    A1        2.09148   0.00496   0.00000   0.01510   0.01477   2.10625
    A2        2.08969  -0.00339   0.00000  -0.01107  -0.01091   2.07878
    A3        2.10196  -0.00158   0.00000  -0.00397  -0.00382   2.09814
    A4        2.13477  -0.00260   0.00000  -0.01265  -0.01303   2.12174
    A5        2.06426   0.00115   0.00000   0.00402   0.00408   2.06834
    A6        2.08241   0.00146   0.00000   0.00997   0.01004   2.09245
    A7        2.15043  -0.00085   0.00000  -0.00460  -0.00479   2.14565
    A8        2.13129  -0.00269   0.00000  -0.01526  -0.01541   2.11589
    A9        2.00065   0.00362   0.00000   0.02110   0.02096   2.02161
   A10        1.95025   0.00206   0.00000   0.00372   0.00238   1.95263
   A11        2.06633  -0.00765   0.00000  -0.06783  -0.06806   1.99827
   A12        1.86738   0.00091   0.00000   0.02511   0.02494   1.89231
   A13        1.84032   0.00298   0.00000  -0.01114  -0.01276   1.82756
   A14        1.92335  -0.00031   0.00000   0.02940   0.02905   1.95240
   A15        1.80974   0.00219   0.00000   0.02789   0.02849   1.83823
   A16        2.07033  -0.00095   0.00000   0.00398   0.00424   2.07457
   A17        1.99211   0.00031   0.00000   0.00147   0.00107   1.99317
   A18        1.52000  -0.00072   0.00000  -0.01385  -0.01384   1.50616
   A19        2.01542   0.00116   0.00000   0.01120   0.01107   2.02649
   A20        1.91191   0.00094   0.00000   0.01979   0.01965   1.93157
   A21        1.87608  -0.00132   0.00000  -0.03392  -0.03391   1.84218
   A22        2.12650  -0.00289   0.00000  -0.00908  -0.00922   2.11728
   A23        2.07518   0.00321   0.00000   0.01326   0.01328   2.08846
   A24        2.07899  -0.00032   0.00000  -0.00332  -0.00328   2.07571
   A25        1.74429   0.04078   0.00000   0.10340   0.10340   1.84770
    D1       -0.09174   0.00004   0.00000   0.00491   0.00494  -0.08679
    D2        3.11365  -0.00020   0.00000  -0.02000  -0.01986   3.09379
    D3        3.03846   0.00017   0.00000   0.01056   0.01060   3.04907
    D4       -0.03934  -0.00006   0.00000  -0.01435  -0.01420  -0.05354
    D5       -0.10879   0.00082   0.00000   0.02596   0.02609  -0.08270
    D6        3.10959   0.00082   0.00000   0.01301   0.01313   3.12273
    D7        3.04428   0.00070   0.00000   0.02031   0.02040   3.06468
    D8       -0.02052   0.00069   0.00000   0.00736   0.00745  -0.01307
    D9        0.07900  -0.00214   0.00000  -0.05772  -0.05739   0.02161
   D10       -3.10810   0.00006   0.00000  -0.02220  -0.02219  -3.13029
   D11       -3.12702  -0.00191   0.00000  -0.03278  -0.03247   3.12369
   D12       -0.03094   0.00029   0.00000   0.00274   0.00272  -0.02822
   D13        0.10819   0.00281   0.00000   0.07103   0.07112   0.17931
   D14        2.25109   0.00256   0.00000   0.00297   0.00384   2.25493
   D15       -1.99845   0.00139   0.00000   0.01650   0.01652  -1.98193
   D16       -2.99100   0.00091   0.00000   0.03876   0.03852  -2.95249
   D17       -0.84810   0.00065   0.00000  -0.02930  -0.02877  -0.87687
   D18        1.18554  -0.00051   0.00000  -0.01577  -0.01608   1.16946
   D19       -0.28847  -0.00221   0.00000  -0.04290  -0.04289  -0.33136
   D20       -2.75632  -0.00343   0.00000  -0.07083  -0.07090  -2.82722
   D21        1.64402  -0.00168   0.00000  -0.02737  -0.02748   1.61654
   D22       -2.55539   0.00391   0.00000   0.04974   0.04998  -2.50540
   D23        1.25995   0.00269   0.00000   0.02181   0.02198   1.28193
   D24       -0.62290   0.00445   0.00000   0.06527   0.06540  -0.55750
   D25        1.78523   0.00003   0.00000   0.01025   0.01051   1.79574
   D26       -0.68262  -0.00119   0.00000  -0.01768  -0.01749  -0.70011
   D27       -2.56547   0.00057   0.00000   0.02578   0.02593  -2.53954
   D28       -1.31879   0.00026   0.00000  -0.01497  -0.01607  -1.33486
   D29        0.87830   0.00003   0.00000  -0.06925  -0.06840   0.80990
   D30        2.90024   0.00181   0.00000  -0.02917  -0.02893   2.87131
   D31        0.30316  -0.00014   0.00000  -0.00402  -0.00385   0.29931
   D32       -2.91538   0.00001   0.00000   0.00966   0.00972  -2.90566
   D33        2.76234   0.00077   0.00000   0.02061   0.02090   2.78323
   D34       -0.45621   0.00092   0.00000   0.03429   0.03447  -0.42174
   D35       -1.40036   0.00058   0.00000  -0.00070  -0.00061  -1.40097
   D36        1.66428   0.00074   0.00000   0.01298   0.01296   1.67724
         Item               Value     Threshold  Converged?
 Maximum Force            0.040777     0.000450     NO 
 RMS     Force            0.008026     0.000300     NO 
 Maximum Displacement     0.113794     0.001800     NO 
 RMS     Displacement     0.035935     0.001200     NO 
 Predicted change in Energy=-1.030217D-02
 GradGradGradGradGradGradGradGradGradGradGradGradGradGradGradGradGradGrad

                          Input orientation:                          
 ---------------------------------------------------------------------
 Center     Atomic      Atomic             Coordinates (Angstroms)
 Number     Number       Type             X           Y           Z
 ---------------------------------------------------------------------
      1          6           0       -2.032703   -0.259868   -0.228903
      2          6           0       -1.496636    1.071246   -0.351047
      3          6           0       -0.262767    1.375072    0.084279
      4          6           0        0.662783    0.356525    0.703894
      5          6           0        0.124592   -1.090127    0.538756
      6          6           0       -1.260160   -1.281347    0.244796
      7          1           0        0.574424   -1.812922    1.215004
      8          1           0        0.826859   -1.139847   -0.534832
      9          1           0        0.130785    2.379653   -0.000843
     10          1           0       -2.125746    1.845008   -0.772764
     11          8           0        1.912484    0.324899    0.161340
     12          1           0        0.810685    0.618384    1.754914
     13          8           0        1.782988   -0.344582   -1.056006
     14          1           0       -1.685232   -2.271996    0.346366
     15          1           0       -3.060373   -0.441216   -0.512834
 ---------------------------------------------------------------------
                    Distance matrix (angstroms):
                    1          2          3          4          5
     1  C    0.000000
     2  C    1.440191   0.000000
     3  C    2.429771   1.343225   0.000000
     4  C    2.918167   2.507352   1.509305   0.000000
     5  C    2.435683   2.844584   2.536494   1.552328   0.000000
     6  C    1.365515   2.438369   2.842028   2.567315   1.428466
     7  H    3.360648   3.880751   3.484642   2.230592   1.087241
     8  H    3.007499   3.212684   2.809876   1.949486   1.283839
     9  H    3.420492   2.117327   1.082272   2.207425   3.511493
    10  H    2.175993   1.082743   2.103819   3.488838   3.924171
    11  O    4.007336   3.527275   2.416716   1.362761   2.311125
    12  H    3.576550   3.156562   2.125063   1.093201   2.206530
    13  O    3.905224   3.641081   2.905610   2.200832   2.418550
    14  H    2.121398   3.420412   3.923417   3.542615   2.170090
    15  H    1.081485   2.181511   3.388517   3.997338   3.416274
                    6          7          8          9         10
     6  C    0.000000
     7  H    2.142329   0.000000
     8  H    2.232373   1.891740   0.000000
     9  H    3.924027   4.387799   3.627195   0.000000
    10  H    3.399818   4.962115   4.205216   2.444103   0.000000
    11  O    3.557057   2.733293   1.951594   2.724475   4.414813
    12  H    3.190271   2.501713   2.886967   2.578181   4.064035
    13  O    3.439530   2.962117   1.348426   3.356277   4.489179
    14  H    1.082769   2.464006   2.892900   5.005628   4.289082
    15  H    2.126168   4.251912   3.949575   4.289863   2.483528
                   11         12         13         14         15
    11  O    0.000000
    12  H    1.959483   0.000000
    13  O    1.395316   3.126332   0.000000
    14  H    4.440907   4.070369   4.208340   0.000000
    15  H    5.076490   4.609829   4.874682   2.445607   0.000000
 Stoichiometry    C6H7O2(2)
 Framework group  C1[X(C6H7O2)]
 Deg. of freedom    39
 Full point group                 C1      NOp   1
 Largest Abelian subgroup         C1      NOp   1
 Largest concise Abelian subgroup C1      NOp   1
                         Standard orientation:                         
 ---------------------------------------------------------------------
 Center     Atomic      Atomic             Coordinates (Angstroms)
 Number     Number       Type             X           Y           Z
 ---------------------------------------------------------------------
      1          6           0        2.026860   -0.173024    0.279829
      2          6           0        1.452225    1.147081    0.244197
      3          6           0        0.215659    1.363037   -0.233841
      4          6           0       -0.673409    0.253816   -0.740981
      5          6           0       -0.096875   -1.148185   -0.406729
      6          6           0        1.289049   -1.264033   -0.080680
      7          1           0       -0.518062   -1.956258   -0.999783
      8          1           0       -0.810371   -1.095617    0.659293
      9          1           0       -0.206920    2.358826   -0.267646
     10          1           0        2.054246    1.981972    0.580144
     11          8           0       -1.928184    0.247756   -0.209362
     12          1           0       -0.815909    0.389618   -1.816313
     13          8           0       -1.794653   -0.274393    1.077664
     14          1           0        1.742941   -2.246942   -0.064530
     15          1           0        3.055713   -0.290657    0.591651
 ---------------------------------------------------------------------
 Rotational constants (GHZ):           3.8281706           1.9029155           1.5488346
 Standard basis: CC-pVTZ+d (5D, 7F)
 There are   385 symmetry adapted cartesian basis functions of A   symmetry.
 There are   338 symmetry adapted basis functions of A   symmetry.
   338 basis functions,   535 primitive gaussians,   385 cartesian basis functions
    30 alpha electrons       29 beta electrons
       nuclear repulsion energy       365.9173804087 Hartrees.
 NAtoms=   15 NActive=   15 NUniq=   15 SFac= 1.00D+00 NAtFMM=   60 NAOKFM=F Big=F
 Integral buffers will be    131072 words long.
 Raffenetti 2 integral format.
 Two-electron integral symmetry is turned on.
 One-electron integrals computed using PRISM.
 NBasis=   338 RedAO= T EigKep=  6.47D-05  NBF=   338
 NBsUse=   338 1.00D-06 EigRej= -1.00D+00 NBFU=   338
 Initial guess from the checkpoint file:  "RcyclohexadienylO2-H-tranfer-ortho-TS-b3lyp-F3.chk"
 B after Tr=     0.000000   -0.000000   -0.000000
         Rot=    0.999948    0.003411    0.007914    0.005394 Ang=   1.16 deg.
 Initial guess <Sx>= 0.0000 <Sy>= 0.0000 <Sz>= 0.5000 <S**2>= 0.7875 S= 0.5186
 ExpMin= 1.03D-01 ExpMax= 1.53D+04 ExpMxC= 5.22D+02 IAcc=3 IRadAn=         5 AccDes= 0.00D+00
 Harris functional with IExCor=  402 and IRadAn=       5 diagonalized for initial guess.
 HarFok:  IExCor=  402 AccDes= 0.00D+00 IRadAn=         5 IDoV= 1 UseB2=F ITyADJ=14
 ICtDFT=  3500011 ScaDFX=  1.000000  1.000000  1.000000  1.000000
 FoFCou: FMM=F IPFlag=           0 FMFlag=      100000 FMFlg1=           0
         NFxFlg=           0 DoJE=T BraDBF=F KetDBF=T FulRan=T
         wScrn=  0.000000 ICntrl=       500 IOpCl=  0 I1Cent=   200000004 NGrid=           0
         NMat0=    1 NMatS0=      1 NMatT0=    0 NMatD0=    1 NMtDS0=    0 NMtDT0=    0
 Petite list used in FoFCou.
 Requested convergence on RMS density matrix=1.00D-08 within 128 cycles.
 Requested convergence on MAX density matrix=1.00D-06.
 Requested convergence on             energy=1.00D-06.
 No special actions if energy rises.
 Integral accuracy reduced to 1.0D-05 until final iterations.
 Initial convergence to 1.0D-05 achieved.  Increase integral accuracy.
 SCF Done:  E(UB3LYP) =  -383.227056972     A.U. after   20 cycles
            NFock= 20  Conv=0.91D-08     -V/T= 2.0061
 <Sx>= 0.0000 <Sy>= 0.0000 <Sz>= 0.5000 <S**2>= 0.7838 S= 0.5168
 <L.S>= 0.000000000000E+00
 Annihilation of the first spin contaminant:
 S**2 before annihilation     0.7838,   after     0.7505
 Calling FoFJK, ICntrl=      2127 FMM=F ISym2X=0 I1Cent= 0 IOpClX= 1 NMat=1 NMatS=1 NMatT=0.
 ***** Axes restored to original set *****
 -------------------------------------------------------------------
 Center     Atomic                   Forces (Hartrees/Bohr)
 Number     Number              X              Y              Z
 -------------------------------------------------------------------
      1        6           0.000423114   -0.000817786   -0.000262169
      2        6          -0.000997838    0.000439063    0.001352126
      3        6           0.002487788   -0.000756796   -0.002772148
      4        6          -0.043427455    0.000381287    0.020258583
      5        6          -0.000144901    0.001087349    0.000555211
      6        6          -0.001633385    0.000285651   -0.001759336
      7        1           0.000697814   -0.000257866   -0.000941562
      8        1          -0.000715644   -0.002457636    0.000196256
      9        1          -0.000091270    0.000383274   -0.000161386
     10        1           0.000046675   -0.000040169    0.000001663
     11        8           0.040088041    0.002294125   -0.015934990
     12        1           0.001272828    0.000718379    0.003079964
     13        8           0.002031865   -0.001326020   -0.004322082
     14        1           0.000018157   -0.000051843    0.000381488
     15        1          -0.000055789    0.000118989    0.000328382
 -------------------------------------------------------------------
 Cartesian Forces:  Max     0.043427455 RMS     0.009698972

 GradGradGradGradGradGradGradGradGradGradGradGradGradGradGradGradGradGrad
 Berny optimization.
 FormGI is forming the generalized inverse of G from B-inverse, IUseBI=4.
 Internal  Forces:  Max     0.046668144 RMS     0.005511976
 Search for a saddle point.
 Step number   2 out of a maximum of   86
 All quantities printed in internal units (Hartrees-Bohrs-Radians)
 Swapping is turned off.
 Update second derivatives using D2CorX and points    1    2
 ITU=  0  0
     Eigenvalues ---   -0.40946   0.00355   0.00874   0.01260   0.01579
     Eigenvalues ---    0.01765   0.02252   0.02374   0.02601   0.03311
     Eigenvalues ---    0.04586   0.05757   0.06535   0.07438   0.08916
     Eigenvalues ---    0.10542   0.10633   0.11126   0.12135   0.12254
     Eigenvalues ---    0.15494   0.16013   0.17778   0.18240   0.21317
     Eigenvalues ---    0.22479   0.25039   0.26473   0.30226   0.30736
     Eigenvalues ---    0.32374   0.32661   0.34363   0.35040   0.35748
     Eigenvalues ---    0.45014   0.48893   0.648971000.000001000.00000
     Eigenvalues --- 1000.000001000.000001000.000001000.000001000.00000
     Eigenvalues --- 1000.000001000.000001000.000001000.000001000.00000
     Eigenvalues --- 1000.000001000.000001000.000001000.000001000.00000
     Eigenvalues --- 1000.000001000.000001000.000001000.000001000.00000
     Eigenvalues --- 1000.000001000.000001000.000001000.000001000.00000
     Eigenvalues --- 1000.000001000.000001000.000001000.000001000.00000
     Eigenvalues --- 1000.000001000.000001000.000001000.000001000.00000
     Eigenvalues --- 1000.00000
 Eigenvectors required to have negative eigenvalues:
                          R13       A25       R15       A18       A13
   1                    0.61793  -0.33350   0.28274  -0.25891  -0.20096
                          D29       R8        D30       R11       D36
   1                   -0.18018  -0.16751  -0.16744  -0.16108   0.14106
 RFO step:  Lambda0=6.546897172D-05 Lambda=-6.85825321D-04.
 Linear search not attempted -- option 19 set.
 Iteration  1 RMS(Cart)=  0.02345129 RMS(Int)=  0.00030649
 Iteration  2 RMS(Cart)=  0.00037410 RMS(Int)=  0.00012647
 Iteration  3 RMS(Cart)=  0.00000009 RMS(Int)=  0.00012647
 Iteration  1 RMS(Cart)=  0.00000000 RMS(Int)=  0.00000000
 Variable       Old X    -DE/DX   Delta X   Delta X   Delta X     New X
                                 (Linear)    (Quad)   (Total)
    R1        2.72157   0.00011   0.00000  -0.00022  -0.00015   2.72141
    R2        2.58045  -0.00082   0.00000  -0.00127  -0.00115   2.57930
    R3        2.04371  -0.00005   0.00000  -0.00039  -0.00039   2.04332
    R4        2.53833   0.00054   0.00000   0.00111   0.00106   2.53939
    R5        2.04609  -0.00006   0.00000  -0.00035  -0.00035   2.04574
    R6        2.85217  -0.00012   0.00000  -0.00083  -0.00095   2.85122
    R7        2.04520   0.00034   0.00000   0.00035   0.00035   2.04555
    R8        2.93348   0.00245   0.00000  -0.00793  -0.00800   2.92548
    R9        2.57524   0.04667   0.00000   0.00000   0.00000   2.57524
   R10        2.06585   0.00331   0.00000   0.01430   0.01430   2.08015
   R11        2.69941   0.00137   0.00000   0.00244   0.00250   2.70191
   R12        2.05459  -0.00013   0.00000  -0.00005  -0.00005   2.05454
   R13        2.42610  -0.00046   0.00000   0.00902   0.00902   2.43513
   R14        2.04614   0.00008   0.00000  -0.00002  -0.00002   2.04612
   R15        2.63676   0.00422   0.00000   0.03109   0.03109   2.66785
    A1        2.10625   0.00005   0.00000  -0.00016  -0.00027   2.10598
    A2        2.07878  -0.00007   0.00000  -0.00020  -0.00015   2.07863
    A3        2.09814   0.00002   0.00000   0.00038   0.00044   2.09858
    A4        2.12174   0.00030   0.00000  -0.00002  -0.00046   2.12128
    A5        2.06834  -0.00015   0.00000   0.00042   0.00043   2.06877
    A6        2.09245  -0.00016   0.00000   0.00065   0.00066   2.09311
    A7        2.14565   0.00034   0.00000  -0.00266  -0.00326   2.14238
    A8        2.11589  -0.00043   0.00000  -0.00089  -0.00077   2.11512
    A9        2.02161   0.00010   0.00000   0.00380   0.00392   2.02553
   A10        1.95263  -0.00068   0.00000  -0.00399  -0.00447   1.94817
   A11        1.99827  -0.00251   0.00000  -0.01775  -0.01761   1.98066
   A12        1.89231   0.00105   0.00000   0.01067   0.01078   1.90309
   A13        1.82756   0.00324   0.00000   0.00590   0.00598   1.83355
   A14        1.95240  -0.00020   0.00000   0.00795   0.00804   1.96044
   A15        1.83823  -0.00094   0.00000  -0.00285  -0.00293   1.83531
   A16        2.07457  -0.00030   0.00000   0.00031  -0.00004   2.07452
   A17        1.99317  -0.00014   0.00000   0.00187   0.00201   1.99518
   A18        1.50616   0.00242   0.00000   0.01261   0.01260   1.51876
   A19        2.02649   0.00048   0.00000   0.00372   0.00385   2.03033
   A20        1.93157  -0.00137   0.00000   0.01294   0.01292   1.94449
   A21        1.84218  -0.00095   0.00000  -0.03470  -0.03471   1.80747
   A22        2.11728   0.00013   0.00000  -0.00156  -0.00175   2.11553
   A23        2.08846   0.00011   0.00000   0.00343   0.00343   2.09189
   A24        2.07571  -0.00022   0.00000  -0.00072  -0.00072   2.07500
   A25        1.84770   0.00675   0.00000   0.00217   0.00217   1.84986
    D1       -0.08679  -0.00002   0.00000  -0.00333  -0.00331  -0.09011
    D2        3.09379   0.00017   0.00000  -0.03435  -0.03433   3.05946
    D3        3.04907  -0.00039   0.00000   0.00188   0.00187   3.05094
    D4       -0.05354  -0.00019   0.00000  -0.02914  -0.02914  -0.08268
    D5       -0.08270  -0.00028   0.00000   0.03176   0.03175  -0.05095
    D6        3.12273  -0.00043   0.00000   0.01056   0.01051   3.13324
    D7        3.06468   0.00010   0.00000   0.02649   0.02651   3.09119
    D8       -0.01307  -0.00006   0.00000   0.00530   0.00527  -0.00780
    D9        0.02161  -0.00014   0.00000  -0.05155  -0.05151  -0.02990
   D10       -3.13029   0.00057   0.00000  -0.02184  -0.02186   3.13103
   D11        3.12369  -0.00034   0.00000  -0.02012  -0.02008   3.10361
   D12       -0.02822   0.00037   0.00000   0.00959   0.00957  -0.01865
   D13        0.17931   0.00037   0.00000   0.07075   0.07070   0.25001
[...]
 ! D31   D(4,5,6,1)             16.9786         -DE/DX =    0.0                 !
 ! D32   D(4,5,6,14)          -165.6308         -DE/DX =    0.0                 !
 ! D33   D(7,5,6,1)            159.65           -DE/DX =    0.0                 !
 ! D34   D(7,5,6,14)           -22.9594         -DE/DX =    0.0                 !
 ! D35   D(8,5,6,1)            -81.576          -DE/DX =    0.0                 !
 ! D36   D(8,5,6,14)            95.8145         -DE/DX =    0.0                 !
 --------------------------------------------------------------------------------
 GradGradGradGradGradGradGradGradGradGradGradGradGradGradGradGradGradGrad


 ----------------------------------------------------------------------

 Electric dipole moment (input orientation):
 (Debye = 10**-18 statcoulomb cm , SI units = C m)
                  (au)            (Debye)         (10**-30 SI)
   Tot        0.144216D+01      0.366559D+01      0.122271D+02
   x         -0.130596D+01     -0.331941D+01     -0.110724D+02
   y         -0.486965D-01     -0.123774D+00     -0.412866D+00
   z          0.609849D+00      0.155008D+01      0.517051D+01

 Dipole polarizability, Alpha (input orientation).
 (esu units = cm**3 , SI units = C**2 m**2 J**-1)
 Alpha(0;0):
               (au)            (10**-24 esu)      (10**-40 SI)
   iso        0.852310D+02      0.126299D+02      0.140527D+02
   aniso      0.532658D+02      0.789317D+01      0.878234D+01
   xx         0.117554D+03      0.174196D+02      0.193820D+02
   yx         0.282255D+01      0.418259D+00      0.465376D+00
   yy         0.807391D+02      0.119643D+02      0.133121D+02
   zx        -0.210664D+01     -0.312172D+00     -0.347338D+00
   zy        -0.368895D+01     -0.546646D+00     -0.608226D+00
   zz         0.574005D+02      0.850587D+01      0.946406D+01

 ----------------------------------------------------------------------

 Dipole orientation:
     6         -1.98738078         -0.41339188          3.34261602
     6         -1.83537770          2.06536746          2.22814897
     6         -0.15319846          2.59997463          0.40233326
     6          1.72653348          0.68992360         -0.57357316
     6          1.04353528         -2.02890776          0.27888843
     6         -0.55356559         -2.35573349          2.43333485
     1          2.56666955         -3.39041022          0.06040591
     1         -0.20932791         -2.21956441         -1.80049356
     1         -0.05899337          4.46218075         -0.43973260
     1         -3.10075555          3.52176670          2.90869150
     8          1.84673014          0.56538065         -3.14299462
     1          3.63121976          1.24837034          0.03585629
     8         -0.31222531         -0.77952585         -3.91139191
     1         -0.67828457         -4.20448428          3.30127961
     1         -3.25541080         -0.71953326          4.91577007

 Electric dipole moment (dipole orientation):
 (Debye = 10**-18 statcoulomb cm , SI units = C m)
                  (au)            (Debye)         (10**-30 SI)
   Tot        0.144216D+01      0.366559D+01      0.122271D+02
   x          0.000000D+00      0.000000D+00      0.000000D+00
   y          0.000000D+00      0.000000D+00      0.000000D+00
   z          0.144216D+01      0.366559D+01      0.122271D+02

 Dipole polarizability, Alpha (dipole orientation).
 (esu units = cm**3 , SI units = C**2 m**2 J**-1)
 Alpha(0;0):
               (au)            (10**-24 esu)      (10**-40 SI)
   iso        0.852310D+02      0.126299D+02      0.140527D+02
   aniso      0.532658D+02      0.789317D+01      0.878234D+01
   xx         0.666844D+02      0.988161D+01      0.109948D+02
   yx        -0.317699D+01     -0.470782D+00     -0.523815D+00
   yy         0.803624D+02      0.119085D+02      0.132500D+02
   zx        -0.215506D+02     -0.319347D+01     -0.355321D+01
   zy        -0.363966D+01     -0.539341D+00     -0.600098D+00
   zz         0.108646D+03      0.160997D+02      0.179134D+02

 ----------------------------------------------------------------------
 1\1\GINC-CNODE0690\Freq\UB3LYP\CC-pVTZ+d\C6H7O2(2)\LMOSKALEVA\31-Jul-2
 022\0\\#N Geom=AllCheck Guess=TCheck SCRF=Check GenChk UB3LYP/CC-pVTZ+
 d Freq\\RcyclohexadienylO2-H-tranfer-ortho-TS-b3lyp-F3\\0,2\C,-2.04265
 39961,-0.2557091221,-0.2117490779\C,-1.5027093418,1.0731279697,-0.3440
 070583\C,-0.2567126056,1.3692979322,0.0630766835\C,0.6540981644,0.3554
 139732,0.7113340191\C,0.1233885039,-1.0896418326,0.526218404\C,-1.2633
 769733,-1.2827863362,0.2371563627\H,0.5850537121,-1.8229577548,1.18288
 77449\H,0.8411090397,-1.1390491876,-0.5428756247\H,0.1467502099,2.3679
 204417,-0.0469385041\H,-2.129084853,1.8454333511,-0.7720660771\O,1.913
 7329863,0.3341062216,0.1917351403\H,0.7827365533,0.6181447398,1.770416
 062\O,1.8132089997,-0.3387355715,-1.0388188986\H,-1.686235188,-2.27440
 97121,0.338580722\H,-3.0773212116,-0.4312721126,-0.4728288977\\Version
 =ES64L-G16RevB.01\State=2-A\HF=-383.2272983\S2=0.784929\S2-1=0.\S2A=0.
 750567\RMSD=2.445e-09\RMSF=9.239e-03\ZeroPoint=0.1127998\Thermal=0.119
 2593\Dipole=-1.3059577,-0.0486965,0.6098489\DipoleDeriv=0.2529156,0.20
 36042,0.0163537,-0.6669909,-0.0063808,0.1620215,0.2857278,0.0206706,-0
 .1554189,0.3493903,-0.216772,-0.0366915,0.1056502,0.0547577,-0.1092706
 ,0.0846153,-0.1254654,-0.0598991,-0.2075407,0.1154639,0.1260108,0.1763
 256,-0.0113725,-0.0416056,-0.0746702,-0.0321374,-0.1407236,-0.2156456,
 -0.0954453,0.1410088,0.0263705,0.1746201,0.086621,0.3994204,0.1346073,
 0.2420846,0.9199381,0.1535674,-0.2212423,-0.163011,-0.1514158,-0.07778
 06,-0.4389363,-0.2814109,0.211189,-0.9011526,-0.1205985,0.2651528,0.47
 75397,0.1332163,-0.1193793,-0.2804624,0.0386467,-0.0565381,-0.0065811,
 -0.0055323,-0.0344301,0.0913323,0.0047628,0.0310573,0.0550226,0.140831
 4,-0.0154344,-0.6929782,-0.1281422,0.1653289,-0.4002788,0.0634202,0.08
 66949,0.5546492,0.1651884,-0.0457524,0.0251997,-0.0389887,-0.0110201,-
 0.018729,-0.0519496,0.0140662,0.0204892,0.0291928,0.0887258,0.031986,0
 .0567582,-0.0626083,0.0870141,-0.0157472,0.0549274,-0.0555872,0.078504
 2,0.1008101,-0.1115998,-0.0007334,-0.0868165,-0.6957507,-0.3191325,0.0
 993955,-1.3702913,-0.2031349,0.0864333,0.1444182,-0.0102089,-0.0805481
 ,0.0679924,0.0661611,-0.0684559,-0.1043779,-0.0613997,-0.0890392,0.429
 8732,0.1844754,-0.1210912,1.0172016,0.0556337,-0.1493656,1.0005242,0.0
 582122,-0.3989685,0.0467046,-0.0681772,-0.0092384,-0.0662591,-0.051327
 2,0.0212873,-0.0359823,0.0393089,0.1231386,-0.0649277,-0.0292707,-0.05
 01685,-0.0384068,0.0547537,0.0097864,-0.0401411,-0.0016141,0.109393\Po
 lar=117.5536139,2.822551,80.7390575,-2.1066383,-3.6889521,57.4004579\Q
 uadrupole=-2.6472867,3.5774092,-0.9301224,0.4657168,3.0958979,-0.87863
 51\PG=C01 [X(C6H7O2)]\NImag=1\\0.67913476,-0.00481241,0.57467753,0.161
 16977,-0.09590487,0.19219806,-0.13367032,-0.00637346,-0.02348752,0.685
 31667,-0.07241628,-0.21242508,0.01258490,0.00181270,0.58350856,-0.0061
 3734,0.03659735,-0.07092962,0.20931466,-0.11441912,0.23451006,-0.01254
 593,-0.06034340,0.00601671,-0.40351837,-0.04645603,-0.12040036,0.67684
 336,-0.03630127,-0.01527460,-0.00864459,-0.07815658,-0.12562092,-0.011
 46114,0.13936222,0.59226813,0.00211991,-0.01566662,0.01122550,-0.11551
 594,-0.00047150,-0.09752093,0.16937037,-0.06732063,0.23173048,0.001888
 94,-0.01334546,0.00918881,-0.00911217,0.01490875,-0.01694620,-0.099154
 04,0.03608396,-0.02988824,0.47173217,0.00348792,-0.00185554,0.00075017
 ,-0.00039981,0.01576087,-0.00332674,0.03084604,-0.14269985,0.03992721,
 -0.02958701,0.42713482,0.00177364,0.00691015,-0.00979195,-0.01618237,0
 .00856924,0.00085602,-0.02687266,0.02964059,-0.10603167,0.01426414,0.0
 5627104,0.55111290,-0.05134489,0.07573763,-0.03411965,-0.03138576,-0.0
 2561095,-0.00227830,0.02601080,0.01258185,0.00785526,-0.04133105,-0.00
 292864,-0.03561542,0.47748738,0.02621319,0.01165703,0.00195419,-0.0020
 6677,-0.00239538,-0.00094350,-0.00230847,-0.02907153,0.00012070,-0.001
 21449,-0.12909752,-0.00556648,-0.00320307,0.46622685,-0.00814509,-0.02
 297346,0.01236856,0.01193810,0.00510785,-0.00378365,-0.00002532,0.0173
 2137,-0.00157527,-0.03201378,0.00130169,-0.04989007,0.18236210,-0.1282
 4355,0.29848529,-0.18856579,0.05210767,-0.04478599,0.05462780,0.030798
 53,0.00822053,-0.02644032,-0.00264260,-0.00881761,-0.03221389,-0.00966
 864,0.01397648,-0.19599384,-0.02969039,-0.09831845,0.53480500,0.129933
 54,-0.26202341,0.07954064,-0.00423907,-0.05196611,0.00997152,0.0137381
 5,-0.00025928,0.00435481,-0.01428751,0.00343105,-0.00926787,-0.0668321
 0,-0.10700035,0.01486568,0.03203249,0.70562912,-0.06672663,0.06163314,
 -0.09099974,0.01577921,0.02041432,0.00725561,-0.01163164,0.00031322,-0
 .00341450,-0.01041084,-0.00604728,0.00566652,-0.02551903,0.00731323,-0
 .08433203,0.10241796,-0.12183681,0.19427162,-0.00426099,-0.00560510,-0
 .00151480,0.00141737,-0.00028834,0.00007660,-0.00116138,-0.00155286,-0
 .00049552,0.00433893,-0.00469274,0.00931287,-0.08910519,0.06695062,-0.
 07666837,-0.01540396,0.02539993,-0.02160527,0.10068224,-0.00326375,0.0
 0423105,0.00012449,-0.00129439,-0.00064688,-0.00043420,-0.00354388,-0.
 00441289,-0.00110326,0.01604629,-0.01504089,0.01456193,0.06696956,-0.1
 7249719,0.11456823,0.00283278,0.00416499,-0.00197000,-0.07836280,0.181
 92938,-0.00331716,0.00657930,0.00076489,-0.00287917,-0.00173285,-0.000
 71941,0.00043283,-0.00214579,0.00154914,0.00576343,-0.00657238,-0.0000
 4197,-0.09095642,0.12054737,-0.13422024,0.01069340,-0.00141380,0.00178
 062,0.08289540,-0.12381655,0.14487167,0.00949381,-0.03865172,0.0126903
 6,0.01779236,0.00853751,0.00159381,-0.00809546,0.00198003,-0.00358131,
 -0.02618864,0.00901428,0.03460791,0.06140103,-0.00033484,-0.05833282,-
 0.07600476,0.02528906,-0.00528898,-0.00174836,0.00539038,0.00469526,-0
 .04058545,0.00679994,-0.01868453,0.00790158,0.00913563,0.00553067,0.00
 100029,-0.00303805,0.00223826,-0.00227340,-0.01524963,-0.01725269,-0.0
 0461130,0.05784512,-0.02086097,-0.04283229,-0.03293518,0.00886484,-0.0
 0736204,-0.00762927,0.00262763,0.01566793,-0.04560109,0.04454552,-0.01
 173271,0.03522828,-0.01185468,-0.01612324,-0.00894009,-0.00079392,0.00
 793777,-0.00046514,0.00364420,0.01921381,-0.02042243,-0.03422540,-0.06
 608832,0.00608169,0.00348185,0.05557367,-0.01913902,0.01899834,0.00994
 993,-0.00448581,-0.02087597,0.07602336,0.07174125,0.02716696,-0.002924
 71,-0.00025485,-0.00489062,-0.00642786,-0.02917378,0.00219455,-0.08984
 104,-0.09493945,0.00320951,0.00537253,0.01794385,-0.00182607,-0.001533
 47,0.00214192,-0.00295616,-0.00082270,0.00001884,0.00013939,0.00039910
 ,0.00086392,0.00017304,-0.00086675,-0.00050540,0.00069516,0.09236322,-
 0.00200378,0.00265880,0.00152744,-0.00040341,-0.00229715,0.00248332,-0
 .09813019,-0.29362818,0.03042575,-0.00792702,-0.01596730,0.00108855,0.
 00189429,-0.00078689,0.00355964,0.00112761,0.00038161,-0.00010377,-0.0
 0043818,-0.00090303,-0.00036215,0.00067190,0.00052898,-0.00044917,0.10
 585584,0.30807241,-0.00549204,0.00239071,0.00752915,-0.00577745,-0.009
 92251,0.00737002,0.00222627,0.03298632,-0.04325717,0.00975969,0.012276
 59,0.00228583,-0.00262874,0.00169902,0.00012867,0.00035004,0.00015485,
 -0.00062497,0.00018511,0.00124132,0.00054365,0.00131763,0.00021815,-0.
 00136156,0.00039722,-0.03583763,0.03182710,0.00998351,-0.00893776,0.00
 486826,-0.14802216,0.11061762,-0.06791028,-0.01476552,0.02383688,-0.01
 351101,0.00064515,-0.00476479,-0.00456124,-0.00119136,-0.00043959,0.00
 059918,0.00072439,-0.00328202,-0.00020531,0.00007776,0.00007355,0.0000
 0027,0.00074278,0.00033974,-0.00058948,0.00013771,0.00035503,0.0025678
 1,0.15372604,0.01817078,-0.01604309,0.01136461,0.11191964,-0.19798425,
 0.08222637,-0.00572398,0.00892370,-0.00326035,-0.00188711,0.00055465,0
 .00145906,-0.00137693,0.00063539,0.00039909,-0.00320386,-0.00429288,0.
 00071175,0.00018809,0.00000282,-0.00020250,0.00082266,0.00034336,-0.00
 072369,0.00076995,0.00061266,-0.00150563,-0.11900096,0.20754245,-0.002
 05420,-0.00057525,0.00227812,-0.06607146,0.08308935,-0.08506403,-0.007
 51894,0.00785617,-0.00000818,-0.00339283,0.00058510,0.01081957,0.00039
 731,0.00069330,0.00022551,-0.00094824,0.00111930,0.00243453,0.00020013
 ,-0.00004854,-0.00042976,0.00036854,0.00014278,-0.00051175,0.00241731,
 -0.00193913,-0.00528902,0.07763670,-0.09017335,0.07774701,-0.00026856,
 0.00702483,-0.00195859,-0.00501231,0.00392638,-0.00118723,-0.04921551,
 0.00582802,0.00754100,-0.25593508,-0.01111181,0.04378895,-0.05320793,-
 0.03116924,0.00336727,0.00872860,-0.00992657,0.00620608,-0.00069755,-0
 .00146949,0.00054659,-0.00643038,-0.00759190,-0.00766171,0.00364477,-0
 .00100446,-0.00204402,-0.00152434,-0.00079969,-0.00242865,0.42801379,0
 .00165931,-0.01552516,0.00309374,0.00998343,-0.00225000,0.00372912,0.0
 2426830,0.00609475,-0.00978493,-0.01478468,-0.05057883,-0.00648651,-0.
 01819193,-0.01736514,-0.02592297,-0.02055413,0.00498643,-0.00134840,-0
 .00062786,0.00195331,0.00381133,-0.05264001,-0.03118089,0.01338202,-0.
 00181925,0.00252942,-0.00057549,0.00069187,0.00118520,0.00198488,0.060
 71547,0.13329737,0.00147287,-0.02570652,0.00731384,0.01577501,0.000395
 84,-0.00174891,-0.01205337,0.00123288,0.01091335,0.02004676,0.00465637
 ,-0.04661824,0.06396838,-0.00950962,-0.03935765,-0.03322221,0.02334089
 ,-0.01140405,-0.00669882,0.00387427,0.01115344,-0.06657615,-0.03991724
 ,0.04450716,-0.00126716,0.00025476,0.00311921,0.00123899,0.00081878,-0
 .00066983,-0.05066992,0.07795563,0.20337491,-0.00021768,0.00219631,-0.
 00064164,-0.00192109,0.00288517,-0.00070077,-0.00355034,-0.00308705,-0
 .01979008,-0.04708304,-0.01196881,-0.04790804,-0.00424813,-0.00242037,
 -0.00694088,0.00340362,-0.00167197,0.00165472,0.00092675,0.00024737,-0
 .00005596,0.00473317,0.00006605,-0.00467646,0.00038932,0.00032864,0.00
 009889,-0.00087123,0.00009137,0.00099220,-0.00303609,0.01666386,0.0475
 8927,0.06241989,-0.00192004,0.00081331,0.00030236,0.00138509,-0.002220
 89,0.00099949,0.00546003,0.00743035,0.02088854,-0.00387452,-0.06136991
 ,-0.05084030,-0.00841888,-0.00749725,-0.02097755,0.00360601,-0.0016355
 8,0.00008148,0.00035026,0.00129959,0.00030068,0.00413290,-0.00036009,-
 0.00515775,-0.00038312,-0.00015164,-0.00096078,0.00106523,-0.00028737,
 -0.00138222,-0.00060230,0.00104278,-0.00012716,0.00206719,0.06493985,0
 .00005466,-0.00207147,0.00018319,0.00215989,0.00330581,-0.00075072,-0.
 00989517,0.00030824,-0.01412192,-0.02901286,-0.05262669,-0.26002296,0.
 00144769,-0.00224640,-0.00195629,-0.00155715,0.00029990,-0.00092236,-0
 .00021144,-0.00006492,0.00144738,-0.00293464,-0.00153312,0.00265727,-0
 .00019752,0.00063355,0.00041225,-0.00057535,0.00005058,0.00037795,0.00
 708089,-0.00949458,-0.02643290,0.02783910,0.05929535,0.29600908,-0.006
 26798,0.02780821,-0.00963100,-0.01276183,-0.00273528,0.00064178,0.0053
 8645,-0.00127274,0.00159212,0.02861011,0.01024358,0.01593417,-0.088682
 42,0.00499077,0.08790928,0.04588488,-0.01990785,0.01313722,0.00475079,
 -0.00507940,-0.00822170,0.06577602,0.03835531,-0.06303368,0.00051431,-
 0.00041418,-0.00117072,-0.00054559,-0.00068707,-0.00007281,-0.06253246
 ,-0.00347279,0.01904514,-0.01087348,-0.00255763,0.00588736,0.03056452,
 -0.00763923,0.03236500,-0.01055400,-0.01679223,-0.00594548,-0.00216167
 ,0.00675653,-0.00130705,0.00267109,0.03480837,-0.01427574,-0.04253233,
 -0.08952390,0.01085008,0.07951039,0.04960253,-0.02067136,0.01407016,0.
 00487274,-0.00353628,-0.01033984,0.08175274,0.02410592,-0.06605718,0.0
 0074036,-0.00067639,-0.00121307,-0.00072974,-0.00105899,-0.00107687,-0
 .01369266,-0.03443681,-0.03770179,-0.00523932,-0.00196107,0.00420033,-
 0.04491374,0.01686045,0.00230806,0.00872481,-0.00069683,-0.00796683,-0
 .00091221,-0.00006923,0.00201506,-0.00108589,0.00449672,0.04689291,-0.
 02687243,-0.06737388,0.00401247,0.00922453,-0.01152162,0.00489102,-0.0
 0812261,0.00269720,0.00229853,-0.00120141,-0.00459091,0.00650126,0.002
 65359,-0.02947403,0.00114601,-0.00098067,-0.00155202,-0.00017081,-0.00
 074173,-0.00073883,-0.00308069,-0.05071059,-0.15533318,0.00283742,-0.0
 0234915,0.00326372,-0.06083145,0.07251623,0.26140355,0.01097614,0.0187
 5418,-0.00291766,-0.00129390,0.00208530,-0.00320780,-0.00068522,0.0003
 0421,-0.00019735,-0.00220767,0.00346675,-0.00104192,-0.00824772,-0.030
 06673,0.00074664,-0.09861733,-0.10111578,0.00622190,0.00081522,0.00079
 404,0.00022132,-0.00038607,0.00000608,0.00047492,0.00002106,-0.0000120
 9,0.00036358,0.00036232,0.00092077,-0.00004369,-0.00244086,-0.00217569
 ,0.00095970,-0.00009606,-0.00037101,-0.00004066,0.00042109,0.00023716,
 -0.00073858,0.10088999,-0.01180328,-0.01850991,0.00199808,0.00347611,-
 0.00102095,0.00332452,0.00059537,0.00067412,-0.00001575,0.00001874,0.0
 0181345,0.00070002,-0.00054860,0.00038012,0.00107510,-0.09844044,-0.28
 769851,0.02810483,0.00009119,0.00062244,-0.00057119,0.00020475,-0.0001
 3550,-0.00088042,-0.00000540,-0.00009001,-0.00024861,-0.00059644,-0.00
 099138,0.00004398,-0.00014016,0.00012840,0.00051752,-0.00010112,-0.000
 08437,-0.00003057,-0.00055248,-0.00062893,-0.00011390,0.10716839,0.304
 77967,0.00477877,0.00977006,0.00524324,-0.00297973,0.00245266,0.007030
 48,0.00050436,0.00021287,-0.00015013,-0.00401309,0.00003648,0.00386908
 ,-0.00016752,-0.00365413,0.00436588,0.00130082,0.02760196,-0.04441711,
 0.00180196,-0.00115175,-0.00129990,-0.00083529,-0.00117068,-0.00043362
 ,0.00048548,-0.00027762,-0.00099606,0.00017547,0.00032032,-0.00009871,
 0.00080383,0.00096185,0.00092183,-0.00006563,0.00000443,-0.00023510,-0
 .00093693,-0.00104867,-0.00033681,-0.00248839,-0.03261140,0.03094205,-
 0.31141032,-0.04530467,-0.06998644,-0.00602843,0.00110872,-0.00327364,
 0.00073252,-0.00202463,0.00010889,0.00063774,0.00011982,0.00034957,0.0
 0137254,0.00261746,-0.00352168,-0.01411170,-0.00514914,-0.00416878,-0.
 00103072,-0.00020417,0.00000887,0.00036670,0.00000265,0.00003699,-0.00
 042549,0.00010001,-0.00015327,0.00052054,-0.00020367,0.00051865,-0.000
 08607,0.00028411,0.00039152,0.00002441,0.00006077,-0.00004478,-0.00024
 441,-0.00023962,-0.00011437,0.00048900,0.00063339,0.00163590,0.3291937
 0,-0.04610463,-0.06606141,-0.00603875,-0.02798689,-0.00002702,-0.00758
 561,-0.00148264,-0.00535500,0.00150833,0.00029131,-0.00055657,0.000104
 21,0.00160656,-0.00317725,0.00324077,0.02502761,0.00808943,0.00602617,
 0.00134430,0.00020596,0.00025043,-0.00056853,-0.00031049,0.00028746,-0
 .00125343,-0.00028331,-0.00070324,0.00077138,0.00085773,-0.00031950,0.
 00001358,0.00011917,-0.00008461,-0.00005730,0.00004226,-0.00002600,0.0
 0019529,0.00031665,-0.00002857,0.00000443,0.00076135,-0.00144638,0.048
 19897,0.06537852,-0.07007251,-0.00493560,-0.05483174,0.00201685,0.0004
 7831,0.00435824,-0.00010590,0.00125151,0.00252040,0.00054828,0.0000633
 0,-0.00061378,-0.00266980,0.00252964,0.00758107,-0.00977426,-0.0014694
 4,0.00301033,0.00047370,-0.00009381,0.00006738,-0.00024893,0.00037450,
 -0.00092485,0.00027985,-0.00002287,-0.00013508,0.00043681,-0.00074331,
 -0.00107259,-0.00030378,-0.00059511,0.00026102,-0.00023211,-0.00007742
 ,0.00009141,-0.00024875,-0.00028278,-0.00017385,0.00168799,-0.00129221
 ,-0.00440512,0.07821257,0.00481529,0.04426717\\-0.00000094,-0.00000270
 ,0.00000420,0.00000007,-0.00000186,0.00000221,-0.00000514,0.00000286,0
 .00000298,0.04051255,-0.00067063,-0.01668836,0.00000622,-0.00000904,-0
 .00000525,-0.00000182,0.00000314,-0.00000423,-0.00000209,0.00000297,0.
 00000547,-0.00001031,-0.00000109,0.00001253,-0.00000093,-0.00000166,-0
 .00000100,-0.00000004,-0.00000056,-0.00000147,-0.04050336,0.00069338,0
 .01673088,-0.00000301,-0.00000703,-0.00003095,0.00000807,-0.00000667,-
 0.00002708,0.00000060,-0.00000045,-0.00000154,0.00000011,-0.00000066,0
 .00000161\\\@


 WHEN IT COMES TO CASH FLOW, IT SEEMS LIKE THE TIDE IS ALWAYS GOING OUT.
 Job cpu time:       0 days  3 hours  4 minutes 34.4 seconds.
 Elapsed time:       0 days  0 hours  7 minutes 42.3 seconds.
 File lengths (MBytes):  RWF=    280 Int=      0 D2E=      0 Chk=     14 Scr=      1
 Normal termination of Gaussian 16 at Sun Jul 31 01:01:16 2022.
