 Entering Gaussian System, Link 0=g16
 Initial command:
 /apps/chpc/chem/gaussian16/B01/g16/l1.exe "/mnt/lustre/users/kotukile/Kgalaletso/4319146.sched01/Gau-119628.inp" -scrdir="/mnt/lustre/users/kotukile/Kgalaletso/4319146.sched01/"
 Entering Link 1 = /apps/chpc/chem/gaussian16/B01/g16/l1.exe PID=    119630.
  
 Copyright (c) 1988-2017, Gaussian, Inc.  All Rights Reserved.
  
 This is part of the Gaussian(R) 16 program.  It is based on
 the Gaussian(R) 09 system (copyright 2009, Gaussian, Inc.),
 the Gaussian(R) 03 system (copyright 2003, Gaussian, Inc.),
 the Gaussian(R) 98 system (copyright 1998, Gaussian, Inc.),
 the Gaussian(R) 94 system (copyright 1995, Gaussian, Inc.),
 the Gaussian 92(TM) system (copyright 1992, Gaussian, Inc.),
 the Gaussian 90(TM) system (copyright 1990, Gaussian, Inc.),
 the Gaussian 88(TM) system (copyright 1988, Gaussian, Inc.),
 the Gaussian 86(TM) system (copyright 1986, Carnegie Mellon
 University), and the Gaussian 82(TM) system (copyright 1983,
 Carnegie Mellon University). Gaussian is a federally registered
 trademark of Gaussian, Inc.
  
 This software contains proprietary and confidential information,
 including trade secrets, belonging to Gaussian, Inc.
  
 This software is provided under written license and may be
 used, copied, transmitted, or stored only in accord with that
 written license.
  
 The following legend is applicable only to US Government
 contracts under FAR:
  
                    RESTRICTED RIGHTS LEGEND
  
 Use, reproduction and disclosure by the US Government is
 subject to restrictions as set forth in subparagraphs (a)
 and (c) of the Commercial Computer Software - Restricted
 Rights clause in FAR 52.227-19.
  
 Gaussian, Inc.
 340 Quinnipiac St., Bldg. 40, Wallingford CT 06492
  
  
 ---------------------------------------------------------------
 Warning -- This program may not be used in any manner that
 competes with the business of Gaussian, Inc. or will provide
 assistance to any competitor of Gaussian, Inc.  The licensee
 of this program is prohibited from giving any competitor of
 Gaussian, Inc. access to this program.  By using this program,
 the user acknowledges that Gaussian, Inc. is engaged in the
 business of creating and licensing software in the field of
 computational chemistry and represents and warrants to the
 licensee that it is not a competitor of Gaussian, Inc. and that
 it will not use this program in any manner prohibited above.
 ---------------------------------------------------------------
  

 Cite this work as:
 Gaussian 16, Revision B.01,
 M. J. Frisch, G. W. Trucks, H. B. Schlegel, G. E. Scuseria, 
 M. A. Robb, J. R. Cheeseman, G. Scalmani, V. Barone, 
 G. A. Petersson, H. Nakatsuji, X. Li, M. Caricato, A. V. Marenich, 
 J. Bloino, B. G. Janesko, R. Gomperts, B. Mennucci, H. P. Hratchian, 
 J. V. Ortiz, A. F. Izmaylov, J. L. Sonnenberg, D. Williams-Young, 
 F. Ding, F. Lipparini, F. Egidi, J. Goings, B. Peng, A. Petrone, 
 T. Henderson, D. Ranasinghe, V. G. Zakrzewski, J. Gao, N. Rega, 
 G. Zheng, W. Liang, M. Hada, M. Ehara, K. Toyota, R. Fukuda, 
 J. Hasegawa, M. Ishida, T. Nakajima, Y. Honda, O. Kitao, H. Nakai, 
 T. Vreven, K. Throssell, J. A. Montgomery, Jr., J. E. Peralta, 
 F. Ogliaro, M. J. Bearpark, J. J. Heyd, E. N. Brothers, K. N. Kudin, 
 V. N. Staroverov, T. A. Keith, R. Kobayashi, J. Normand, 
 K. Raghavachari, A. P. Rendell, J. C. Burant, S. S. Iyengar, 
 J. Tomasi, M. Cossi, J. M. Millam, M. Klene, C. Adamo, R. Cammi, 
 J. W. Ochterski, R. L. Martin, K. Morokuma, O. Farkas, 
 J. B. Foresman, and D. J. Fox, Gaussian, Inc., Wallingford CT, 2016.
 
 ******************************************
 Gaussian 16:  ES64L-G16RevB.01 20-Dec-2017
                27-Jul-2022 
 ******************************************
 %nprocshared=24
 Will use up to   24 processors via shared memory.
 %lindaworkers=cnode0983.cm.cluster
 %mem=20GB
 %chk=RcyclohexadienylO2-concerted-OOH-elim-ortho-TS-b3lyp.chk
 SetLPE:    new flags="-opt 'Tsnet.Node.lindarsharg: ssh'  -nodelist 'cnode0983.cm.cluster' -env GAUSS_MDEF=2684354560 -env GAUSS_EXEDIR="/apps/chpc/chem/gaussian16/B01/g16/bsd:/apps/chpc/chem/gaussian16/B01/g16""
 Will use up to    1 processors via Linda.
 ----------------------------------------------------------------------
 # opt=(calcfc,ts,noeigentest) freq ub3lyp cc-pvtz+d int=grid=ultrafine
 ----------------------------------------------------------------------
 1/5=1,10=4,11=1,18=20,26=4,38=1/1,3;
 2/9=110,12=2,17=6,18=5,40=1/2;
 3/5=16,6=1,7=9,11=2,25=1,30=1,71=2,74=-5,75=-5,116=2,140=1/1,2,3;
 4//1;
 5/5=2,38=5/2;
 8/6=4,10=90,11=11/1;
 11/6=1,8=1,9=11,15=111,16=1/1,2,10;
 10/6=1,13=1/2;
 6/7=2,8=2,9=2,10=2,28=1/1;
 7/10=1,18=20,25=1/1,2,3,16;
 1/5=1,10=4,11=1,18=20,26=4/3(2);
 2/9=110/2;
 99//99;
 2/9=110/2;
 3/5=16,6=1,7=9,11=2,25=1,30=1,71=1,74=-5,75=-5,116=2/1,2,3;
 4/5=5,16=3,69=1/1;
 5/5=2,38=5/2;
 7//1,2,3,16;
 1/5=1,11=1,18=20,26=4/3(-5);
 2/9=110/2;
 6/7=2,8=2,9=2,10=2,19=2,28=1/1;
 99/9=1/99;
 ----------------------------------------------------
 RcyclohexadienylO2-concerted-OOH-elim-ortho-TS-b3lyp
 ----------------------------------------------------
 Symbolic Z-matrix:
 Charge =  0 Multiplicity = 2
 C                     1.9237    0.4936   -0.58585 
 C                     1.70864  -0.90935  -0.45503 
 C                     0.67715  -1.39828   0.31775 
 C                    -0.21682  -0.52926   0.94237 
 C                    -0.07132   0.92763   0.80474 
 C                     1.11008   1.37539   0.03977 
 H                    -0.19208   1.46349   1.75174 
 H                    -1.00557   1.25532   0.23378 
 H                     0.55745  -2.46569   0.44606 
 H                     2.38677  -1.59546  -0.94434 
 O                    -2.07233  -0.64373  -0.41959 
 H                    -0.91344  -0.9119    1.6718 
 O                    -2.38686   0.545    -0.62186 
 H                     1.28894   2.43988  -0.03893 
 H                     2.76289   0.84576  -1.17097 
 
 Add virtual bond connecting atoms O13        and H8         Dist= 3.35D+00.

 GradGradGradGradGradGradGradGradGradGradGradGradGradGradGradGradGradGrad
 Berny optimization.
 Initialization pass.
                           ----------------------------
                           !    Initial Parameters    !
                           ! (Angstroms and Degrees)  !
 --------------------------                            --------------------------
 ! Name  Definition              Value          Derivative Info.                !
 --------------------------------------------------------------------------------
 ! R1    R(1,2)                  1.4254         calculate D2E/DX2 analytically  !
 ! R2    R(1,6)                  1.3531         calculate D2E/DX2 analytically  !
 ! R3    R(1,15)                 1.082          calculate D2E/DX2 analytically  !
 ! R4    R(2,3)                  1.3785         calculate D2E/DX2 analytically  !
 ! R5    R(2,10)                 1.0817         calculate D2E/DX2 analytically  !
 ! R6    R(3,4)                  1.3945         calculate D2E/DX2 analytically  !
 ! R7    R(3,9)                  1.0817         calculate D2E/DX2 analytically  !
 ! R8    R(4,5)                  1.4706         calculate D2E/DX2 analytically  !
 ! R9    R(4,12)                 1.0788         calculate D2E/DX2 analytically  !
 ! R10   R(5,6)                  1.477          calculate D2E/DX2 analytically  !
 ! R11   R(5,7)                  1.0948         calculate D2E/DX2 analytically  !
 ! R12   R(5,8)                  1.1429         calculate D2E/DX2 analytically  !
 ! R13   R(6,14)                 1.0823         calculate D2E/DX2 analytically  !
 ! R14   R(8,13)                 1.7733         calculate D2E/DX2 analytically  !
 ! R15   R(11,13)                1.2462         calculate D2E/DX2 analytically  !
 ! A1    A(2,1,6)              120.5488         calculate D2E/DX2 analytically  !
 ! A2    A(2,1,15)             119.1457         calculate D2E/DX2 analytically  !
 ! A3    A(6,1,15)             120.2854         calculate D2E/DX2 analytically  !
 ! A4    A(1,2,3)              120.8949         calculate D2E/DX2 analytically  !
 ! A5    A(1,2,10)             119.2238         calculate D2E/DX2 analytically  !
 ! A6    A(3,2,10)             119.85           calculate D2E/DX2 analytically  !
 ! A7    A(2,3,4)              120.6497         calculate D2E/DX2 analytically  !
 ! A8    A(2,3,9)              119.9529         calculate D2E/DX2 analytically  !
 ! A9    A(4,3,9)              119.3972         calculate D2E/DX2 analytically  !
 ! A10   A(3,4,5)              120.7996         calculate D2E/DX2 analytically  !
 ! A11   A(3,4,12)             119.7235         calculate D2E/DX2 analytically  !
 ! A12   A(5,4,12)             118.5912         calculate D2E/DX2 analytically  !
 ! A13   A(4,5,6)              115.3377         calculate D2E/DX2 analytically  !
 ! A14   A(4,5,7)              113.1439         calculate D2E/DX2 analytically  !
 ! A15   A(4,5,8)              104.473          calculate D2E/DX2 analytically  !
 ! A16   A(6,5,7)              112.822          calculate D2E/DX2 analytically  !
 ! A17   A(6,5,8)              107.9502         calculate D2E/DX2 analytically  !
 ! A18   A(7,5,8)              101.6327         calculate D2E/DX2 analytically  !
 ! A19   A(1,6,5)              121.5253         calculate D2E/DX2 analytically  !
 ! A20   A(1,6,14)             120.5287         calculate D2E/DX2 analytically  !
 ! A21   A(5,6,14)             117.9071         calculate D2E/DX2 analytically  !
 ! A22   A(5,8,13)             139.7237         calculate D2E/DX2 analytically  !
 ! A23   A(8,13,11)             96.1525         calculate D2E/DX2 analytically  !
 ! D1    D(6,1,2,3)             -0.5265         calculate D2E/DX2 analytically  !
 ! D2    D(6,1,2,10)          -178.4881         calculate D2E/DX2 analytically  !
 ! D3    D(15,1,2,3)           177.8451         calculate D2E/DX2 analytically  !
 ! D4    D(15,1,2,10)           -0.1165         calculate D2E/DX2 analytically  !
 ! D5    D(2,1,6,5)             -3.9034         calculate D2E/DX2 analytically  !
 ! D6    D(2,1,6,14)           178.4106         calculate D2E/DX2 analytically  !
 ! D7    D(15,1,6,5)           177.7436         calculate D2E/DX2 analytically  !
 ! D8    D(15,1,6,14)            0.0576         calculate D2E/DX2 analytically  !
 ! D9    D(1,2,3,4)              2.8612         calculate D2E/DX2 analytically  !
 ! D10   D(1,2,3,9)           -176.9737         calculate D2E/DX2 analytically  !
 ! D11   D(10,2,3,4)          -179.1899         calculate D2E/DX2 analytically  !
 ! D12   D(10,2,3,9)             0.9753         calculate D2E/DX2 analytically  !
 ! D13   D(2,3,4,5)             -0.7254         calculate D2E/DX2 analytically  !
 ! D14   D(2,3,4,12)          -169.8016         calculate D2E/DX2 analytically  !
 ! D15   D(9,3,4,5)            179.1104         calculate D2E/DX2 analytically  !
 ! D16   D(9,3,4,12)            10.0342         calculate D2E/DX2 analytically  !
 ! D17   D(3,4,5,6)             -3.3578         calculate D2E/DX2 analytically  !
 ! D18   D(3,4,5,7)           -135.3561         calculate D2E/DX2 analytically  !
 ! D19   D(3,4,5,8)            114.9617         calculate D2E/DX2 analytically  !
 ! D20   D(12,4,5,6)           165.8396         calculate D2E/DX2 analytically  !
 ! D21   D(12,4,5,7)            33.8413         calculate D2E/DX2 analytically  !
 ! D22   D(12,4,5,8)           -75.8409         calculate D2E/DX2 analytically  !
 ! D23   D(4,5,6,1)              5.6934         calculate D2E/DX2 analytically  !
 ! D24   D(4,5,6,14)          -176.5621         calculate D2E/DX2 analytically  !
 ! D25   D(7,5,6,1)            137.843          calculate D2E/DX2 analytically  !
 ! D26   D(7,5,6,14)           -44.4125         calculate D2E/DX2 analytically  !
 ! D27   D(8,5,6,1)           -110.6705         calculate D2E/DX2 analytically  !
 ! D28   D(8,5,6,14)            67.074          calculate D2E/DX2 analytically  !
 ! D29   D(4,5,8,13)            -8.2915         calculate D2E/DX2 analytically  !
 ! D30   D(6,5,8,13)           114.9529         calculate D2E/DX2 analytically  !
 ! D31   D(7,5,8,13)          -126.1684         calculate D2E/DX2 analytically  !
 ! D32   D(5,8,13,11)            0.8037         calculate D2E/DX2 analytically  !
 --------------------------------------------------------------------------------
 Trust Radius=3.00D-01 FncErr=1.00D-07 GrdErr=1.00D-06 EigMax=2.50D+02 EigMin=1.00D-04
 Number of steps in this run=     80 maximum allowed number of steps=    100.
 Search for a saddle point of order  1.
 GradGradGradGradGradGradGradGradGradGradGradGradGradGradGradGradGradGrad

                          Input orientation:                          
 ---------------------------------------------------------------------
 Center     Atomic      Atomic             Coordinates (Angstroms)
 Number     Number       Type             X           Y           Z
 ---------------------------------------------------------------------
      1          6           0        1.923702    0.493599   -0.585848
      2          6           0        1.708643   -0.909350   -0.455026
      3          6           0        0.677150   -1.398276    0.317750
      4          6           0       -0.216821   -0.529264    0.942367
      5          6           0       -0.071322    0.927633    0.804742
      6          6           0        1.110078    1.375393    0.039766
      7          1           0       -0.192077    1.463490    1.751741
      8          1           0       -1.005570    1.255322    0.233781
      9          1           0        0.557446   -2.465686    0.446063
     10          1           0        2.386767   -1.595460   -0.944341
     11          8           0       -2.072328   -0.643730   -0.419592
     12          1           0       -0.913439   -0.911899    1.671801
     13          8           0       -2.386864    0.545003   -0.621863
     14          1           0        1.288940    2.439876   -0.038932
     15          1           0        2.762890    0.845759   -1.170973
 ---------------------------------------------------------------------
                    Distance matrix (angstroms):
                    1          2          3          4          5
     1  C    0.000000
     2  C    1.425353   0.000000
     3  C    2.439175   1.378481   0.000000
     4  C    2.821972   2.409270   1.394458   0.000000
     5  C    2.470273   2.851280   2.491430   1.470598   0.000000
     6  C    1.353121   2.413120   2.820982   2.490596   1.476951
     7  H    3.298717   3.756718   3.316865   2.150992   1.094775
     8  H    3.135705   3.539380   3.143275   2.075805   1.142889
     9  H    3.418898   2.135275   1.081738   2.143720   3.469671
    10  H    2.169588   1.081678   2.134138   3.387493   3.932873
    11  O    4.158054   3.790455   2.944935   2.304548   2.823509
    12  H    3.888672   3.376198   2.144759   1.078777   2.201098
    13  O    4.311023   4.349271   3.747984   2.882699   2.746515
    14  H    2.118970   3.400970   3.902937   3.470743   2.202039
    15  H    1.081954   2.168969   3.406215   3.903277   3.455852
                    6          7          8          9         10
     6  C    0.000000
     7  H    2.152726   0.000000
     8  H    2.127916   1.734736   0.000000
     9  H    3.901842   4.207731   4.041532   0.000000
    10  H    3.379995   4.824569   4.585071   2.457017   0.000000
    11  O    3.796785   3.562360   2.274042   3.314301   4.589627
    12  H    3.462638   2.483793   2.602544   2.465804   4.266476
    13  O    3.654573   3.360759   1.773317   4.344384   5.241481
    14  H    1.082270   2.520566   2.596597   4.983457   4.278893
    15  H    2.116173   4.201866   4.042569   4.294701   2.480399
                   11         12         13         14         15
    11  O    0.000000
    12  H    2.406006   0.000000
    13  O    1.246167   3.091026   0.000000
    14  H    4.577297   4.360215   4.176349   0.000000
    15  H    5.114928   4.968513   5.187672   2.448521   0.000000
 Stoichiometry    C6H7O2(2)
 Framework group  C1[X(C6H7O2)]
 Deg. of freedom    39
 Full point group                 C1      NOp   1
 Largest Abelian subgroup         C1      NOp   1
 Largest concise Abelian subgroup C1      NOp   1
                         Standard orientation:                         
 ---------------------------------------------------------------------
 Center     Atomic      Atomic             Coordinates (Angstroms)
 Number     Number       Type             X           Y           Z
 ---------------------------------------------------------------------
      1          6           0       -1.923702   -0.493599   -0.585848
      2          6           0       -1.708643    0.909350   -0.455026
      3          6           0       -0.677150    1.398276    0.317750
      4          6           0        0.216821    0.529264    0.942367
      5          6           0        0.071322   -0.927633    0.804742
      6          6           0       -1.110078   -1.375393    0.039766
      7          1           0        0.192077   -1.463490    1.751741
      8          1           0        1.005570   -1.255322    0.233781
      9          1           0       -0.557446    2.465686    0.446063
     10          1           0       -2.386767    1.595460   -0.944341
     11          8           0        2.072328    0.643730   -0.419592
     12          1           0        0.913439    0.911899    1.671801
     13          8           0        2.386864   -0.545003   -0.621863
     14          1           0       -1.288940   -2.439876   -0.038932
     15          1           0       -2.762890   -0.845759   -1.170973
 ---------------------------------------------------------------------
 Rotational constants (GHZ):           3.4259134           1.5746277           1.3244479
 Standard basis: CC-pVTZ+d (5D, 7F)
 There are   385 symmetry adapted cartesian basis functions of A   symmetry.
 There are   338 symmetry adapted basis functions of A   symmetry.
   338 basis functions,   535 primitive gaussians,   385 cartesian basis functions
    30 alpha electrons       29 beta electrons
       nuclear repulsion energy       347.3559121620 Hartrees.
 NAtoms=   15 NActive=   15 NUniq=   15 SFac= 1.00D+00 NAtFMM=   60 NAOKFM=F Big=F
 Integral buffers will be    131072 words long.
 Raffenetti 2 integral format.
 Two-electron integral symmetry is turned on.
 One-electron integrals computed using PRISM.
 NBasis=   338 RedAO= T EigKep=  4.87D-05  NBF=   338
 NBsUse=   338 1.00D-06 EigRej= -1.00D+00 NBFU=   338
 ExpMin= 1.03D-01 ExpMax= 1.53D+04 ExpMxC= 5.22D+02 IAcc=3 IRadAn=         5 AccDes= 0.00D+00
 Harris functional with IExCor=  402 and IRadAn=       5 diagonalized for initial guess.
 HarFok:  IExCor=  402 AccDes= 0.00D+00 IRadAn=         5 IDoV= 1 UseB2=F ITyADJ=14
 ICtDFT=  3500011 ScaDFX=  1.000000  1.000000  1.000000  1.000000
 FoFCou: FMM=F IPFlag=           0 FMFlag=      100000 FMFlg1=           0
         NFxFlg=           0 DoJE=T BraDBF=F KetDBF=T FulRan=T
         wScrn=  0.000000 ICntrl=       500 IOpCl=  0 I1Cent=   200000004 NGrid=           0
         NMat0=    1 NMatS0=      1 NMatT0=    0 NMatD0=    1 NMtDS0=    0 NMtDT0=    0
 Petite list used in FoFCou.
 Initial guess <Sx>= 0.0000 <Sy>= 0.0000 <Sz>= 0.5000 <S**2>= 0.7500 S= 0.5000
 Requested convergence on RMS density matrix=1.00D-08 within 128 cycles.
 Requested convergence on MAX density matrix=1.00D-06.
 Requested convergence on             energy=1.00D-06.
 No special actions if energy rises.
 Integral accuracy reduced to 1.0D-05 until final iterations.
 Rare condition: small coef for last iteration:  0.000D+00
 Initial convergence to 1.0D-05 achieved.  Increase integral accuracy.
 SCF Done:  E(UB3LYP) =  -383.260686992     A.U. after   30 cycles
            NFock= 30  Conv=0.34D-08     -V/T= 2.0063
 <Sx>= 0.0000 <Sy>= 0.0000 <Sz>= 0.5000 <S**2>= 1.0686 S= 0.6483
 <L.S>= 0.000000000000E+00
 Annihilation of the first spin contaminant:
 S**2 before annihilation     1.0686,   after     0.7638
 DoSCS=F DFT=T ScalE2(SS,OS)=  1.000000  1.000000
 Range of M.O.s used for correlation:     1   338
 NBasis=   338 NAE=    30 NBE=    29 NFC=     0 NFV=     0
 NROrb=    338 NOA=    30 NOB=    29 NVA=   308 NVB=   309

 **** Warning!!: The largest alpha MO coefficient is  0.23841292D+02


 **** Warning!!: The largest beta MO coefficient is  0.23718765D+02

 Symmetrizing basis deriv contribution to polar:
 IMax=3 JMax=2 DiffMx= 0.00D+00
 G2DrvN: will do    16 centers at a time, making    1 passes.
 Calling FoFCou, ICntrl=  3107 FMM=F I1Cent=   0 AccDes= 0.00D+00.
 End of G2Drv F.D. properties file   721 does not exist.
 End of G2Drv F.D. properties file   722 does not exist.
 End of G2Drv F.D. properties file   788 does not exist.
          IDoAtm=111111111111111
          Differentiating once with respect to nuclear coordinates.
 CalDSu exits because no D1Ps are significant.
          There are    48 degrees of freedom in the 1st order CPHF.  IDoFFX=6 NUNeed=     0.
     42 vectors produced by pass  0 Test12= 3.79D-14 2.08D-09 XBig12= 3.21D-01 2.10D-01.
 AX will form    42 AO Fock derivatives at one time.
     42 vectors produced by pass  1 Test12= 3.79D-14 2.08D-09 XBig12= 7.48D-02 1.05D-01.
     42 vectors produced by pass  2 Test12= 3.79D-14 2.08D-09 XBig12= 2.41D-03 1.73D-02.
     42 vectors produced by pass  3 Test12= 3.79D-14 2.08D-09 XBig12= 2.09D-05 7.44D-04.
     42 vectors produced by pass  4 Test12= 3.79D-14 2.08D-09 XBig12= 1.48D-07 3.36D-05.
     42 vectors produced by pass  5 Test12= 3.79D-14 2.08D-09 XBig12= 1.33D-09 3.91D-06.
     40 vectors produced by pass  6 Test12= 3.79D-14 2.08D-09 XBig12= 8.83D-12 3.44D-07.
     16 vectors produced by pass  7 Test12= 3.79D-14 2.08D-09 XBig12= 3.48D-14 1.87D-08.
 InvSVY:  IOpt=1 It=  1 EMax= 1.55D-15
 Solved reduced A of dimension   308 with    42 vectors.
 End of Minotr F.D. properties file   721 does not exist.
 End of Minotr F.D. properties file   722 does not exist.
 End of Minotr F.D. properties file   788 does not exist.

 **********************************************************************

            Population analysis using the SCF Density.

 **********************************************************************

 Orbital symmetries:
 Alpha Orbitals:
       Occupied  (A) (A) (A) (A) (A) (A) (A) (A) (A) (A) (A) (A)
                 (A) (A) (A) (A) (A) (A) (A) (A) (A) (A) (A) (A)
                 (A) (A) (A) (A) (A) (A)
       Virtual   (A) (A) (A) (A) (A) (A) (A) (A) (A) (A) (A) (A)
                 (A) (A) (A) (A) (A) (A) (A) (A) (A) (A) (A) (A)
                 (A) (A) (A) (A) (A) (A) (A) (A) (A) (A) (A) (A)
                 (A) (A) (A) (A) (A) (A) (A) (A) (A) (A) (A) (A)
                 (A) (A) (A) (A) (A) (A) (A) (A) (A) (A) (A) (A)
                 (A) (A) (A) (A) (A) (A) (A) (A) (A) (A) (A) (A)
                 (A) (A) (A) (A) (A) (A) (A) (A) (A) (A) (A) (A)
                 (A) (A) (A) (A) (A) (A) (A) (A) (A) (A) (A) (A)
                 (A) (A) (A) (A) (A) (A) (A) (A) (A) (A) (A) (A)
                 (A) (A) (A) (A) (A) (A) (A) (A) (A) (A) (A) (A)
                 (A) (A) (A) (A) (A) (A) (A) (A) (A) (A) (A) (A)
                 (A) (A) (A) (A) (A) (A) (A) (A) (A) (A) (A) (A)
                 (A) (A) (A) (A) (A) (A) (A) (A) (A) (A) (A) (A)
                 (A) (A) (A) (A) (A) (A) (A) (A) (A) (A) (A) (A)
                 (A) (A) (A) (A) (A) (A) (A) (A) (A) (A) (A) (A)
                 (A) (A) (A) (A) (A) (A) (A) (A) (A) (A) (A) (A)
                 (A) (A) (A) (A) (A) (A) (A) (A) (A) (A) (A) (A)
                 (A) (A) (A) (A) (A) (A) (A) (A) (A) (A) (A) (A)
                 (A) (A) (A) (A) (A) (A) (A) (A) (A) (A) (A) (A)
                 (A) (A) (A) (A) (A) (A) (A) (A) (A) (A) (A) (A)
                 (A) (A) (A) (A) (A) (A) (A) (A) (A) (A) (A) (A)
                 (A) (A) (A) (A) (A) (A) (A) (A) (A) (A) (A) (A)
                 (A) (A) (A) (A) (A) (A) (A) (A) (A) (A) (A) (A)
                 (A) (A) (A) (A) (A) (A) (A) (A) (A) (A) (A) (A)
                 (A) (A) (A) (A) (A) (A) (A) (A) (A) (A) (A) (A)
                 (A) (A) (A) (A) (A) (A) (A) (A)
 Beta  Orbitals:
       Occupied  (A) (A) (A) (A) (A) (A) (A) (A) (A) (A) (A) (A)
                 (A) (A) (A) (A) (A) (A) (A) (A) (A) (A) (A) (A)
                 (A) (A) (A) (A) (A)
       Virtual   (A) (A) (A) (A) (A) (A) (A) (A) (A) (A) (A) (A)
                 (A) (A) (A) (A) (A) (A) (A) (A) (A) (A) (A) (A)
                 (A) (A) (A) (A) (A) (A) (A) (A) (A) (A) (A) (A)
                 (A) (A) (A) (A) (A) (A) (A) (A) (A) (A) (A) (A)
                 (A) (A) (A) (A) (A) (A) (A) (A) (A) (A) (A) (A)
                 (A) (A) (A) (A) (A) (A) (A) (A) (A) (A) (A) (A)
                 (A) (A) (A) (A) (A) (A) (A) (A) (A) (A) (A) (A)
                 (A) (A) (A) (A) (A) (A) (A) (A) (A) (A) (A) (A)
                 (A) (A) (A) (A) (A) (A) (A) (A) (A) (A) (A) (A)
                 (A) (A) (A) (A) (A) (A) (A) (A) (A) (A) (A) (A)
                 (A) (A) (A) (A) (A) (A) (A) (A) (A) (A) (A) (A)
                 (A) (A) (A) (A) (A) (A) (A) (A) (A) (A) (A) (A)
                 (A) (A) (A) (A) (A) (A) (A) (A) (A) (A) (A) (A)
                 (A) (A) (A) (A) (A) (A) (A) (A) (A) (A) (A) (A)
                 (A) (A) (A) (A) (A) (A) (A) (A) (A) (A) (A) (A)
                 (A) (A) (A) (A) (A) (A) (A) (A) (A) (A) (A) (A)
                 (A) (A) (A) (A) (A) (A) (A) (A) (A) (A) (A) (A)
                 (A) (A) (A) (A) (A) (A) (A) (A) (A) (A) (A) (A)
                 (A) (A) (A) (A) (A) (A) (A) (A) (A) (A) (A) (A)
                 (A) (A) (A) (A) (A) (A) (A) (A) (A) (A) (A) (A)
                 (A) (A) (A) (A) (A) (A) (A) (A) (A) (A) (A) (A)
                 (A) (A) (A) (A) (A) (A) (A) (A) (A) (A) (A) (A)
                 (A) (A) (A) (A) (A) (A) (A) (A) (A) (A) (A) (A)
                 (A) (A) (A) (A) (A) (A) (A) (A) (A) (A) (A) (A)
                 (A) (A) (A) (A) (A) (A) (A) (A) (A) (A) (A) (A)
                 (A) (A) (A) (A) (A) (A) (A) (A) (A)
 The electronic state is 2-A.
 Alpha  occ. eigenvalues --  -19.21963 -19.21480 -10.20872 -10.19614 -10.19606
 Alpha  occ. eigenvalues --  -10.19313 -10.19025 -10.18931  -1.21224  -0.86615
 Alpha  occ. eigenvalues --   -0.78949  -0.76522  -0.76225  -0.63187  -0.61287
 Alpha  occ. eigenvalues --   -0.53755  -0.50656  -0.49565  -0.48457  -0.48111
 Alpha  occ. eigenvalues --   -0.45899  -0.44008  -0.43123  -0.40303  -0.36380
 Alpha  occ. eigenvalues --   -0.35288  -0.33565  -0.27485  -0.26128  -0.23680
 Alpha virt. eigenvalues --   -0.08924  -0.01283   0.03185   0.06088   0.06357
 Alpha virt. eigenvalues --    0.08573   0.09090   0.09362   0.12168   0.13796
 Alpha virt. eigenvalues --    0.18311   0.20123   0.21313   0.23690   0.24437
 Alpha virt. eigenvalues --    0.25145   0.26440   0.28077   0.28993   0.31511
 Alpha virt. eigenvalues --    0.33123   0.33632   0.36355   0.36783   0.38658
 Alpha virt. eigenvalues --    0.39045   0.39397   0.41674   0.42063   0.42739
 Alpha virt. eigenvalues --    0.42932   0.45468   0.46212   0.47118   0.47672
 Alpha virt. eigenvalues --    0.48005   0.50012   0.52230   0.52972   0.54291
 Alpha virt. eigenvalues --    0.54417   0.54945   0.56813   0.57634   0.61314
 Alpha virt. eigenvalues --    0.62765   0.65025   0.66131   0.68531   0.69649
 Alpha virt. eigenvalues --    0.71174   0.71740   0.72694   0.74329   0.77034
 Alpha virt. eigenvalues --    0.77765   0.81525   0.84665   0.86010   0.87752
 Alpha virt. eigenvalues --    0.90167   0.91102   0.94507   0.97157   0.98455
 Alpha virt. eigenvalues --    1.01077   1.02532   1.03563   1.04922   1.06070
 Alpha virt. eigenvalues --    1.07396   1.09063   1.10541   1.11504   1.14369
 Alpha virt. eigenvalues --    1.14926   1.15488   1.17300   1.19182   1.20121
 Alpha virt. eigenvalues --    1.22907   1.24346   1.25329   1.27049   1.28691
 Alpha virt. eigenvalues --    1.31173   1.32022   1.33759   1.34223   1.34857
 Alpha virt. eigenvalues --    1.36437   1.37560   1.38259   1.40300   1.41522
 Alpha virt. eigenvalues --    1.42793   1.43724   1.45780   1.49470   1.50422
 Alpha virt. eigenvalues --    1.52014   1.55592   1.59416   1.62452   1.65347
 Alpha virt. eigenvalues --    1.70649   1.74768   1.87818   1.91146   1.93436
 Alpha virt. eigenvalues --    1.97922   1.98687   2.00553   2.01256   2.09454
 Alpha virt. eigenvalues --    2.11230   2.12875   2.14124   2.15964   2.19228
 Alpha virt. eigenvalues --    2.19947   2.22775   2.24125   2.25968   2.30998
 Alpha virt. eigenvalues --    2.35224   2.38548   2.39892   2.42057   2.42865
 Alpha virt. eigenvalues --    2.46307   2.50133   2.51153   2.54277   2.54531
 Alpha virt. eigenvalues --    2.56294   2.57623   2.64186   2.65533   2.66050
 Alpha virt. eigenvalues --    2.66950   2.68284   2.71319   2.72629   2.74436
 Alpha virt. eigenvalues --    2.76095   2.78353   2.79291   2.82185   2.83739
 Alpha virt. eigenvalues --    2.88403   2.90563   2.91774   2.91872   2.93691
 Alpha virt. eigenvalues --    2.94727   2.96533   2.98532   3.00503   3.01574
 Alpha virt. eigenvalues --    3.02977   3.03465   3.04688   3.05912   3.06959
 Alpha virt. eigenvalues --    3.09105   3.11024   3.11515   3.13616   3.17474
 Alpha virt. eigenvalues --    3.21067   3.21944   3.22571   3.25083   3.27030
 Alpha virt. eigenvalues --    3.28705   3.30531   3.31727   3.33312   3.34562
 Alpha virt. eigenvalues --    3.36047   3.37531   3.39019   3.42893   3.44477
 Alpha virt. eigenvalues --    3.45950   3.48417   3.51220   3.53069   3.54575
 Alpha virt. eigenvalues --    3.56405   3.60082   3.63220   3.64147   3.65776
 Alpha virt. eigenvalues --    3.67487   3.69456   3.70673   3.72714   3.73170
 Alpha virt. eigenvalues --    3.74973   3.75835   3.76219   3.77458   3.80945
 Alpha virt. eigenvalues --    3.82572   3.83760   3.85954   3.88178   3.91309
 Alpha virt. eigenvalues --    3.92006   3.93965   3.97987   3.98708   3.98927
 Alpha virt. eigenvalues --    4.00481   4.02517   4.04242   4.07837   4.09434
 Alpha virt. eigenvalues --    4.12906   4.13705   4.15846   4.16894   4.18852
 Alpha virt. eigenvalues --    4.23184   4.25572   4.26702   4.28694   4.30913
 Alpha virt. eigenvalues --    4.32457   4.33347   4.34935   4.37603   4.38703
 Alpha virt. eigenvalues --    4.43278   4.44853   4.50147   4.54813   4.60242
 Alpha virt. eigenvalues --    4.60969   4.63613   4.65576   4.66729   4.68898
 Alpha virt. eigenvalues --    4.69411   4.70074   4.71012   4.75622   4.76641
 Alpha virt. eigenvalues --    4.77654   4.81172   4.82729   4.83755   4.87004
 Alpha virt. eigenvalues --    4.90214   4.91911   4.92667   4.96342   5.00817
 Alpha virt. eigenvalues --    5.01351   5.03577   5.04466   5.07764   5.10280
 Alpha virt. eigenvalues --    5.13956   5.15002   5.18382   5.20801   5.25536
 Alpha virt. eigenvalues --    5.26869   5.35582   5.42802   5.43456   5.48790
 Alpha virt. eigenvalues --    5.54709   5.65292   5.68636   5.68875   5.72073
 Alpha virt. eigenvalues --    5.75793   5.87900   5.88920   5.94419   6.04161
 Alpha virt. eigenvalues --    6.09577   6.19135   6.22903   6.26497   6.29272
 Alpha virt. eigenvalues --    6.32163   6.36147   6.40194   6.45417   6.53877
 Alpha virt. eigenvalues --    6.62708   6.98124   7.13127   7.20266   7.41271
 Alpha virt. eigenvalues --    8.46435   9.43513  11.66725  11.82448  12.52698
 Alpha virt. eigenvalues --   12.89623  13.20378  14.97113
  Beta  occ. eigenvalues --  -19.19669 -19.19253 -10.21247 -10.19974 -10.19872
  Beta  occ. eigenvalues --  -10.19246 -10.18837 -10.18814  -1.16903  -0.86970
  Beta  occ. eigenvalues --   -0.76959  -0.76837  -0.72212  -0.63629  -0.61469
  Beta  occ. eigenvalues --   -0.53756  -0.48932  -0.48242  -0.46279  -0.45189
  Beta  occ. eigenvalues --   -0.44007  -0.42979  -0.39876  -0.38748  -0.36466
  Beta  occ. eigenvalues --   -0.35389  -0.34136  -0.27642  -0.19380
  Beta virt. eigenvalues --   -0.08730  -0.07919  -0.01895   0.03147   0.06058
  Beta virt. eigenvalues --    0.06342   0.07929   0.09022   0.09249   0.12092
  Beta virt. eigenvalues --    0.13916   0.18283   0.20948   0.22439   0.23692
  Beta virt. eigenvalues --    0.24445   0.25286   0.26282   0.27925   0.28808
  Beta virt. eigenvalues --    0.31277   0.32849   0.33620   0.35819   0.36696
  Beta virt. eigenvalues --    0.38523   0.38898   0.39263   0.41432   0.42111
  Beta virt. eigenvalues --    0.42664   0.42944   0.45228   0.46125   0.47084
  Beta virt. eigenvalues --    0.47530   0.47974   0.50093   0.52215   0.52978
  Beta virt. eigenvalues --    0.54301   0.54593   0.55305   0.56800   0.58997
  Beta virt. eigenvalues --    0.62605   0.64419   0.65435   0.66657   0.68576
  Beta virt. eigenvalues --    0.69705   0.71097   0.71772   0.72812   0.74481
  Beta virt. eigenvalues --    0.77519   0.78662   0.81565   0.84735   0.86693
  Beta virt. eigenvalues --    0.87618   0.90242   0.91216   0.94542   0.97147
  Beta virt. eigenvalues --    0.98354   1.01092   1.02453   1.03460   1.04848
  Beta virt. eigenvalues --    1.06210   1.07377   1.09237   1.10349   1.11836
  Beta virt. eigenvalues --    1.14454   1.14982   1.15511   1.17278   1.19372
  Beta virt. eigenvalues --    1.20145   1.22981   1.24323   1.25370   1.27089
  Beta virt. eigenvalues --    1.28884   1.31252   1.32808   1.34151   1.34570
  Beta virt. eigenvalues --    1.34972   1.36704   1.38308   1.39027   1.40228
  Beta virt. eigenvalues --    1.41876   1.43001   1.44074   1.45840   1.49829
  Beta virt. eigenvalues --    1.51050   1.52084   1.55719   1.59671   1.62991
  Beta virt. eigenvalues --    1.65670   1.72303   1.77249   1.87879   1.91125
  Beta virt. eigenvalues --    1.93365   1.97567   1.99329   2.00447   2.02286
  Beta virt. eigenvalues --    2.09599   2.11370   2.14165   2.14345   2.15500
  Beta virt. eigenvalues --    2.19566   2.22382   2.23434   2.25092   2.25978
  Beta virt. eigenvalues --    2.30814   2.35081   2.38242   2.39590   2.41734
  Beta virt. eigenvalues --    2.42541   2.46177   2.50037   2.51005   2.54092
  Beta virt. eigenvalues --    2.54199   2.56078   2.57337   2.63786   2.65194
  Beta virt. eigenvalues --    2.65705   2.66636   2.68038   2.70911   2.72494
  Beta virt. eigenvalues --    2.74072   2.75846   2.78175   2.78992   2.81961
  Beta virt. eigenvalues --    2.83540   2.88133   2.90201   2.91325   2.91633
  Beta virt. eigenvalues --    2.93289   2.94584   2.96246   2.98385   2.99899
  Beta virt. eigenvalues --    3.01315   3.02635   3.03460   3.04465   3.05728
  Beta virt. eigenvalues --    3.06765   3.08628   3.10701   3.11303   3.13364
  Beta virt. eigenvalues --    3.17335   3.20778   3.21624   3.22131   3.25002
  Beta virt. eigenvalues --    3.26836   3.28539   3.30351   3.31527   3.33211
  Beta virt. eigenvalues --    3.34472   3.35940   3.37435   3.38817   3.42722
  Beta virt. eigenvalues --    3.44730   3.45971   3.50839   3.52562   3.53564
  Beta virt. eigenvalues --    3.55810   3.56623   3.60140   3.63035   3.64753
  Beta virt. eigenvalues --    3.67053   3.68000   3.69531   3.71102   3.72881
  Beta virt. eigenvalues --    3.73806   3.75509   3.75982   3.76765   3.79244
  Beta virt. eigenvalues --    3.81223   3.83575   3.83905   3.85833   3.89184
  Beta virt. eigenvalues --    3.91196   3.91955   3.93834   3.97908   3.98557
  Beta virt. eigenvalues --    3.98960   4.00408   4.02381   4.03998   4.07689
  Beta virt. eigenvalues --    4.09306   4.12755   4.13508   4.15715   4.16585
  Beta virt. eigenvalues --    4.18773   4.23021   4.25451   4.26615   4.28543
  Beta virt. eigenvalues --    4.30743   4.32521   4.33116   4.34737   4.37431
  Beta virt. eigenvalues --    4.38647   4.43100   4.44756   4.50118   4.54684
  Beta virt. eigenvalues --    4.60327   4.61062   4.63565   4.65917   4.68785
  Beta virt. eigenvalues --    4.68891   4.71148   4.71566   4.72758   4.76333
  Beta virt. eigenvalues --    4.76705   4.77903   4.82629   4.83415   4.84538
  Beta virt. eigenvalues --    4.86852   4.90439   4.92379   4.94686   4.96525
  Beta virt. eigenvalues --    5.01391   5.01989   5.04368   5.08054   5.09146
  Beta virt. eigenvalues --    5.10409   5.14103   5.16187   5.19547   5.24983
  Beta virt. eigenvalues --    5.26194   5.28124   5.37883   5.43005   5.43681
  Beta virt. eigenvalues --    5.48691   5.54674   5.67775   5.69584   5.71493
  Beta virt. eigenvalues --    5.73630   5.75961   5.87860   5.88939   5.94546
  Beta virt. eigenvalues --    6.04075   6.12558   6.22055   6.27751   6.32152
  Beta virt. eigenvalues --    6.35092   6.36713   6.43143   6.46221   6.51158
  Beta virt. eigenvalues --    6.57489   6.62691   7.01093   7.16700   7.22329
  Beta virt. eigenvalues --    7.43225   8.50567   9.43435  11.67685  11.84530
  Beta virt. eigenvalues --   12.52300  12.89638  13.20281  14.96951
          Condensed to atoms (all electrons):
               1          2          3          4          5          6
     1  C    4.915044   0.405617  -0.028543  -0.033372  -0.031027   0.542699
     2  C    0.405617   4.954787   0.482849  -0.041205  -0.033075  -0.039736
     3  C   -0.028543   0.482849   4.915017   0.441643  -0.021357  -0.044927
     4  C   -0.033372  -0.041205   0.441643   5.010262   0.362945  -0.016108
     5  C   -0.031027  -0.033075  -0.021357   0.362945   4.916227   0.329730
     6  C    0.542699  -0.039736  -0.044927  -0.016108   0.329730   5.012055
     7  H    0.006387  -0.001387   0.007765  -0.041560   0.415846  -0.043626
     8  H   -0.000180  -0.000666   0.003013  -0.032807   0.311322  -0.028930
     9  H    0.007577  -0.047412   0.429540  -0.045477   0.007495  -0.001340
    10  H   -0.045279   0.429919  -0.046038   0.007612  -0.000890   0.007044
    11  O    0.000625  -0.003083   0.002165   0.046734  -0.002278   0.003784
    12  H   -0.001056   0.006591  -0.042266   0.429662  -0.039338   0.006552
    13  O   -0.000057   0.001213  -0.000596  -0.035341  -0.037498  -0.004081
    14  H   -0.043492   0.007063  -0.000699   0.005670  -0.040879   0.421721
    15  H    0.431673  -0.046540   0.007197  -0.001287   0.008285  -0.049051
               7          8          9         10         11         12
     1  C    0.006387  -0.000180   0.007577  -0.045279   0.000625  -0.001056
     2  C   -0.001387  -0.000666  -0.047412   0.429919  -0.003083   0.006591
     3  C    0.007765   0.003013   0.429540  -0.046038   0.002165  -0.042266
     4  C   -0.041560  -0.032807  -0.045477   0.007612   0.046734   0.429662
     5  C    0.415846   0.311322   0.007495  -0.000890  -0.002278  -0.039338
     6  C   -0.043626  -0.028930  -0.001340   0.007044   0.003784   0.006552
     7  H    0.594891  -0.031722  -0.000219   0.000055   0.002691  -0.007916
     8  H   -0.031722   0.585331  -0.000047   0.000012  -0.040122   0.002034
     9  H   -0.000219  -0.000047   0.552648  -0.008217   0.000788  -0.006980
    10  H    0.000055   0.000012  -0.008217   0.549243   0.000025  -0.000304
    11  O    0.002691  -0.040122   0.000788   0.000025   7.988596  -0.006497
    12  H   -0.007916   0.002034  -0.006980  -0.000304  -0.006497   0.519886
    13  O   -0.002400   0.096628  -0.000037   0.000003   0.120221   0.002291
    14  H   -0.004468  -0.000661   0.000082  -0.000340  -0.000007  -0.000261
    15  H   -0.000269  -0.000102  -0.000286  -0.006695   0.000005   0.000074
              13         14         15
     1  C   -0.000057  -0.043492   0.431673
     2  C    0.001213   0.007063  -0.046540
     3  C   -0.000596  -0.000699   0.007197
     4  C   -0.035341   0.005670  -0.001287
     5  C   -0.037498  -0.040879   0.008285
     6  C   -0.004081   0.421721  -0.049051
     7  H   -0.002400  -0.004468  -0.000269
     8  H    0.096628  -0.000661  -0.000102
     9  H   -0.000037   0.000082  -0.000286
    10  H    0.000003  -0.000340  -0.006695
    11  O    0.120221  -0.000007   0.000005
    12  H    0.002291  -0.000261   0.000074
    13  O    7.978570  -0.000041   0.000014
    14  H   -0.000041   0.544643  -0.008913
    15  H    0.000014  -0.008913   0.555055
          Atomic-Atomic Spin Densities.
               1          2          3          4          5          6
     1  C    0.080606   0.007512  -0.003420  -0.000101  -0.001178  -0.008431
     2  C    0.007512  -0.275244  -0.007716   0.018280  -0.001503   0.016714
     3  C   -0.003420  -0.007716   0.127613   0.008710  -0.002924   0.001106
     4  C   -0.000101   0.018280   0.008710  -0.288602   0.011606  -0.015956
     5  C   -0.001178  -0.001503  -0.002924   0.011606   0.035189   0.011766
     6  C   -0.008431   0.016714   0.001106  -0.015956   0.011766  -0.198042
     7  H    0.000061  -0.000777   0.000248   0.004145  -0.009832   0.003766
     8  H   -0.000051  -0.001019  -0.001846   0.024417  -0.001149   0.017272
     9  H    0.000024   0.000056   0.001384   0.000338  -0.000075   0.000005
    10  H   -0.000495  -0.004218  -0.000301   0.000127   0.000014   0.000141
    11  O   -0.000258   0.001129  -0.002394  -0.021019   0.005916  -0.001031
    12  H    0.000088   0.000230  -0.001189  -0.000231  -0.000334  -0.000173
    13  O   -0.000038  -0.000429  -0.000060   0.013457  -0.009833   0.002425
    14  H   -0.000268   0.000179   0.000029  -0.000123  -0.000632  -0.002304
    15  H    0.001240   0.000283  -0.000087   0.000081  -0.000158   0.000355
               7          8          9         10         11         12
     1  C    0.000061  -0.000051   0.000024  -0.000495  -0.000258   0.000088
     2  C   -0.000777  -0.001019   0.000056  -0.004218   0.001129   0.000230
     3  C    0.000248  -0.001846   0.001384  -0.000301  -0.002394  -0.001189
     4  C    0.004145   0.024417   0.000338   0.000127  -0.021019  -0.000231
     5  C   -0.009832  -0.001149  -0.000075   0.000014   0.005916  -0.000334
     6  C    0.003766   0.017272   0.000005   0.000141  -0.001031  -0.000173
     7  H   -0.034292   0.014670   0.000026  -0.000003  -0.000833   0.001499
     8  H    0.014670  -0.096110  -0.000063   0.000006   0.005523  -0.001449
     9  H    0.000026  -0.000063  -0.005087  -0.000156  -0.000176   0.000014
    10  H   -0.000003   0.000006  -0.000156   0.015364   0.000020  -0.000016
    11  O   -0.000833   0.005523  -0.000176   0.000020   1.032967  -0.002120
    12  H    0.001499  -0.001449   0.000014  -0.000016  -0.002120   0.012053
    13  O    0.001244  -0.015864  -0.000002  -0.000006  -0.264444  -0.000101
    14  H    0.000095  -0.000217   0.000001  -0.000011   0.000009  -0.000021
    15  H    0.000011  -0.000027   0.000006  -0.000120  -0.000007   0.000003
              13         14         15
     1  C   -0.000038  -0.000268   0.001240
     2  C   -0.000429   0.000179   0.000283
     3  C   -0.000060   0.000029  -0.000087
     4  C    0.013457  -0.000123   0.000081
     5  C   -0.009833  -0.000632  -0.000158
     6  C    0.002425  -0.002304   0.000355
     7  H    0.001244   0.000095   0.000011
     8  H   -0.015864  -0.000217  -0.000027
     9  H   -0.000002   0.000001   0.000006
    10  H   -0.000006  -0.000011  -0.000120
    11  O   -0.264444   0.000009  -0.000007
    12  H   -0.000101  -0.000021   0.000003
    13  O    1.010195   0.000005   0.000001
    14  H    0.000005   0.009423  -0.000050
    15  H    0.000001  -0.000050  -0.004022
 Mulliken charges and spin densities:
               1          2
     1  C   -0.126617   0.075292
     2  C   -0.074934  -0.246524
     3  C   -0.104765   0.119152
     4  C   -0.057372  -0.244872
     5  C   -0.145507   0.036874
     6  C   -0.095786  -0.172388
     7  H    0.105931  -0.019974
     8  H    0.136898  -0.055906
     9  H    0.111886  -0.003706
    10  H    0.113851   0.010346
    11  O   -0.113645   0.753282
    12  H    0.137527   0.008253
    13  O   -0.118890   0.736549
    14  H    0.120582   0.006114
    15  H    0.110841  -0.002493
 Sum of Mulliken charges =  -0.00000   1.00000
 Mulliken charges and spin densities with hydrogens summed into heavy atoms:
               1          2
     1  C   -0.015776   0.072799
     2  C    0.038917  -0.236178
     3  C    0.007121   0.115446
     4  C    0.080155  -0.236619
     5  C    0.097322  -0.039007
     6  C    0.024796  -0.166274
    11  O   -0.113645   0.753282
    13  O   -0.118890   0.736549
 APT charges:
               1
     1  C   -0.564834
     2  C   -0.485087
     3  C   -0.546850
     4  C   -0.389844
     5  C   -0.637604
     6  C   -0.524335
     7  H    0.446993
     8  H    0.201593
     9  H    0.510656
    10  H    0.590476
    11  O   -0.136651
    12  H    0.466095
    13  O   -0.085887
    14  H    0.549969
    15  H    0.605311
 Sum of APT charges =  -0.00000
 APT charges with hydrogens summed into heavy atoms:
               1
     1  C    0.040477
     2  C    0.105389
     3  C   -0.036195
     4  C    0.076251
     5  C    0.010982
     6  C    0.025634
    11  O   -0.136651
    13  O   -0.085887
 Electronic spatial extent (au):  <R**2>=            943.9551
 Charge=             -0.0000 electrons
 Dipole moment (field-independent basis, Debye):
    X=             -2.5101    Y=             -0.2158    Z=              1.1765  Tot=              2.7805
 Quadrupole moment (field-independent basis, Debye-Ang):
   XX=            -50.7184   YY=            -42.8040   ZZ=            -46.4495
   XY=             -0.1632   XZ=              5.0223   YZ=             -0.3688
 Traceless Quadrupole moment (field-independent basis, Debye-Ang):
   XX=             -4.0611   YY=              3.8533   ZZ=              0.2078
   XY=             -0.1632   XZ=              5.0223   YZ=             -0.3688
 Octapole moment (field-independent basis, Debye-Ang**2):
  XXX=              1.9046  YYY=              0.5378  ZZZ=             -1.2379  XYY=              1.0488
  XXY=              1.3173  XXZ=             -4.0867  XZZ=              7.5884  YZZ=             -0.1637
  YYZ=              0.4049  XYZ=              0.9037
 Hexadecapole moment (field-independent basis, Debye-Ang**3):
 XXXX=           -720.4849 YYYY=           -313.6941 ZZZZ=           -168.4641 XXXY=              1.1659
 XXXZ=             22.7743 YYYX=              0.4849 YYYZ=              0.4638 ZZZX=             -3.3309
 ZZZY=             -2.7186 XXYY=           -171.2386 XXZZ=           -142.5889 YYZZ=            -84.7442
 XXYZ=             -0.8632 YYXZ=              3.7611 ZZXY=              1.4532
 N-N= 3.473559121620D+02 E-N=-1.589652240166D+03  KE= 3.808423480727D+02
  Exact polarizability:   0.000   0.000   0.000   0.000   0.000   0.000
 Approx polarizability: 250.622  -8.761 150.321 -10.715   0.764 103.218
                          Isotropic Fermi Contact Couplings
        Atom                 a.u.       MegaHertz       Gauss      10(-4) cm-1
     1  C(13)              0.01146      12.88275       4.59688       4.29722
     2  C(13)             -0.01077     -12.10768      -4.32032      -4.03869
     3  C(13)              0.01432      16.10078       5.74516       5.37064
     4  C(13)             -0.01278     -14.36156      -5.12456      -4.79050
     5  C(13)              0.01572      17.66718       6.30409       5.89314
     6  C(13)             -0.00722      -8.11113      -2.89425      -2.70558
     7  H(1)              -0.01267     -56.61591     -20.20197     -18.88504
     8  H(1)              -0.02507    -112.04080     -39.97894     -37.37279
     9  H(1)              -0.00160      -7.14859      -2.55079      -2.38451
    10  H(1)               0.00371      16.57103       5.91296       5.52750
    11  O(17)              0.04415     -26.76584      -9.55072      -8.92812
    12  H(1)               0.00459      20.51709       7.32101       6.84376
    13  O(17)              0.05253     -31.84117     -11.36172     -10.62107
    14  H(1)               0.00259      11.59915       4.13887       3.86906
    15  H(1)              -0.00095      -4.25490      -1.51826      -1.41928
 --------------------------------------------------------
       Center         ----  Spin Dipole Couplings  ----
                      3XX-RR        3YY-RR        3ZZ-RR
 --------------------------------------------------------
     1   Atom        0.008252     -0.045273      0.037021
     2   Atom        0.002919      0.144736     -0.147655
     3   Atom        0.007930     -0.064525      0.056595
     4   Atom       -0.032920      0.137323     -0.104403
     5   Atom        0.016415     -0.010687     -0.005728
     6   Atom       -0.001846      0.099185     -0.097339
     7   Atom        0.002271     -0.003570      0.001299
     8   Atom        0.013643     -0.005719     -0.007924
     9   Atom       -0.000611      0.003790     -0.003179
    10   Atom        0.000692      0.003034     -0.003726
    11   Atom        0.554653     -1.752637      1.197984
    12   Atom       -0.009161      0.004811      0.004350
    13   Atom        0.488768     -1.708435      1.219666
    14   Atom        0.010332     -0.012990      0.002658
    15   Atom        0.004450     -0.005334      0.000884
 --------------------------------------------------------
                        XY            XZ            YZ
 --------------------------------------------------------
     1   Atom        0.002592     -0.054278      0.004787
     2   Atom        0.004096      0.209475      0.000589
     3   Atom        0.000003     -0.104580     -0.001908
     4   Atom       -0.010428      0.205124      0.005387
     5   Atom       -0.007739     -0.020530      0.004391
     6   Atom        0.007360      0.148929     -0.010092
     7   Atom        0.003347     -0.008589     -0.001980
     8   Atom        0.027698     -0.026653     -0.017863
     9   Atom       -0.004352     -0.008160      0.002968
    10   Atom        0.013872     -0.000220      0.010681
    11   Atom        0.452284      0.875607     -0.275823
    12   Atom       -0.013132     -0.019794     -0.003358
    13   Atom        0.412365      0.948009     -0.248508
    14   Atom       -0.000883      0.005168     -0.003232
    15   Atom        0.001947     -0.000964      0.001208
 --------------------------------------------------------


 ---------------------------------------------------------------------------------
              Anisotropic Spin Dipole Couplings in Principal Axis System
 ---------------------------------------------------------------------------------

       Atom             a.u.   MegaHertz   Gauss  10(-4) cm-1        Axes

              Baa    -0.0471    -6.324    -2.257    -2.110 -0.2619  0.9391 -0.2223
     1 C(13)  Bbb    -0.0317    -4.254    -1.518    -1.419  0.7486  0.3431  0.5674
              Bcc     0.0788    10.578     3.774     3.528 -0.6091  0.0179  0.7929
 
              Baa    -0.2950   -39.582   -14.124   -13.203 -0.5753  0.0043  0.8180
     2 C(13)  Bbb     0.1429    19.174     6.842     6.396 -0.3653  0.8934 -0.2616
              Bcc     0.1521    20.408     7.282     6.807  0.7319  0.4493  0.5124
 
              Baa    -0.0752   -10.097    -3.603    -3.368  0.7779  0.1099  0.6187
     3 C(13)  Bbb    -0.0644    -8.643    -3.084    -2.883 -0.0906  0.9939 -0.0626
              Bcc     0.1396    18.739     6.687     6.251 -0.6218 -0.0073  0.7831
 
              Baa    -0.2772   -37.192   -13.271   -12.406 -0.6436 -0.0261  0.7650
     4 C(13)  Bbb     0.1340    17.976     6.414     5.996  0.4676  0.7778  0.4200
              Bcc     0.1432    19.216     6.857     6.410 -0.6060  0.6280 -0.4883
 
              Baa    -0.0180    -2.414    -0.861    -0.805  0.5179  0.0349  0.8547
     5 C(13)  Bbb    -0.0126    -1.690    -0.603    -0.564  0.1626  0.9769 -0.1384
              Bcc     0.0306     4.104     1.465     1.369  0.8398 -0.2107 -0.5003
 
              Baa    -0.2065   -27.710    -9.888    -9.243 -0.5889  0.0408  0.8072
     6 C(13)  Bbb     0.0997    13.378     4.774     4.462  0.0242  0.9992 -0.0329
              Bcc     0.1068    14.332     5.114     4.781  0.8079 -0.0002  0.5894
 
              Baa    -0.0071    -3.784    -1.350    -1.262  0.7008 -0.3030  0.6458
     7 H(1)   Bbb    -0.0043    -2.274    -0.812    -0.759  0.0396  0.9205  0.3888
              Bcc     0.0114     6.058     2.162     2.021  0.7123  0.2469 -0.6570
 
              Baa    -0.0262   -13.961    -4.981    -4.657  0.6804 -0.3679  0.6339
     8 H(1)   Bbb    -0.0247   -13.154    -4.694    -4.388 -0.1429  0.7817  0.6070
              Bcc     0.0508    27.114     9.675     9.044  0.7188  0.5036 -0.4793
 
              Baa    -0.0102    -5.432    -1.938    -1.812  0.6602  0.0464  0.7496
     9 H(1)   Bbb    -0.0003    -0.157    -0.056    -0.052  0.4397  0.7853 -0.4359
              Bcc     0.0105     5.589     1.994     1.864 -0.6089  0.6174  0.4980
 
              Baa    -0.0169    -9.005    -3.213    -3.004 -0.5250  0.6564 -0.5418
    10 H(1)   Bbb    -0.0018    -0.956    -0.341    -0.319 -0.6323  0.1254  0.7645
              Bcc     0.0187     9.962     3.555     3.323  0.5697  0.7440  0.3492
 
              Baa    -1.9042   137.789    49.166    45.961 -0.2304  0.9614  0.1505
    11 O(17)  Bbb     0.0948    -6.858    -2.447    -2.288  0.7854  0.2751 -0.5546
              Bcc     1.8095  -130.931   -46.719   -43.674  0.5745  0.0096  0.8184
 
              Baa    -0.0282   -15.061    -5.374    -5.024  0.7797  0.3618  0.5110
    12 H(1)   Bbb     0.0077     4.119     1.470     1.374 -0.0566  0.8535 -0.5180
              Bcc     0.0205    10.942     3.905     3.650 -0.6236  0.3749  0.6860
 
              Baa    -1.8458   133.562    47.658    44.552 -0.2304  0.9616  0.1492
    13 O(17)  Bbb    -0.0246     1.783     0.636     0.595  0.7905  0.2744 -0.5475
              Bcc     1.8705  -135.345   -48.295   -45.146  0.5674  0.0082  0.8234
 
              Baa    -0.0136    -7.274    -2.595    -2.426 -0.0063  0.9805  0.1965
    14 H(1)   Bbb     0.0005     0.269     0.096     0.090 -0.4705 -0.1763  0.8646
              Bcc     0.0131     7.004     2.499     2.336  0.8824 -0.0871  0.4624
 
              Baa    -0.0060    -3.192    -1.139    -1.065 -0.1974  0.9604 -0.1967
    15 H(1)   Bbb     0.0010     0.547     0.195     0.182  0.1423  0.2266  0.9635
              Bcc     0.0050     2.645     0.944     0.882  0.9699  0.1622 -0.1814
 

 ---------------------------------------------------------------------------------

 Calling FoFJK, ICntrl=    100147 FMM=F ISym2X=0 I1Cent= 0 IOpClX= 1 NMat=1 NMatS=1 NMatT=0.
 ***** Axes restored to original set *****
 -------------------------------------------------------------------
 Center     Atomic                   Forces (Hartrees/Bohr)
 Number     Number              X              Y              Z
 -------------------------------------------------------------------
      1        6           0.000002977   -0.000009152   -0.000002626
      2        6           0.000016948    0.000006894   -0.000010144
      3        6          -0.000019365    0.000002156    0.000005812
      4        6           0.000988688    0.000039031    0.000750057
      5        6          -0.000033079    0.000001492   -0.000035018
      6        6          -0.000002543    0.000004086   -0.000000710
      7        1          -0.000005772    0.000000993    0.000003713
      8        1           0.000140737    0.000055206    0.000086408
      9        1          -0.000001246   -0.000000515   -0.000001747
     10        1           0.000000341    0.000001840    0.000000080
     11        8          -0.000969961   -0.000047281   -0.000723127
     12        1           0.000009785   -0.000003203    0.000006986
     13        8          -0.000129461   -0.000051155   -0.000080922
     14        1           0.000001045   -0.000000922    0.000001192
     15        1           0.000000905    0.000000531    0.000000048
 -------------------------------------------------------------------
 Cartesian Forces:  Max     0.000988688 RMS     0.000261081
 FormGI is forming the generalized inverse of G from B-inverse, IUseBI=4.

 GradGradGradGradGradGradGradGradGradGradGradGradGradGradGradGradGradGrad
 Berny optimization.
 Internal  Forces:  Max     0.004253303 RMS     0.000694196
 Search for a saddle point.
 Step number   1 out of a maximum of   80
 All quantities printed in internal units (Hartrees-Bohrs-Radians)
 Swapping is turned off.
 Second derivative matrix not updated -- analytic derivatives used.
 ITU=  0
     Eigenvalues ---   -0.01967   0.00119   0.00420   0.00881   0.01389
     Eigenvalues ---    0.01598   0.01840   0.02184   0.02484   0.02621
     Eigenvalues ---    0.03579   0.04348   0.05885   0.06511   0.08032
     Eigenvalues ---    0.10372   0.11129   0.11495   0.11977   0.12542
     Eigenvalues ---    0.12576   0.17661   0.18650   0.19503   0.20437
     Eigenvalues ---    0.25523   0.29447   0.31691   0.32921   0.35539
     Eigenvalues ---    0.35651   0.35713   0.35823   0.36317   0.37748
     Eigenvalues ---    0.42028   0.46757   0.52780   0.58972
 Eigenvectors required to have negative eigenvalues:
                          R14       D21       A22       D22       D16
   1                   -0.54680  -0.31449  -0.31298  -0.28265   0.26494
                          D14       D20       D17       R6        A23
   1                    0.23792  -0.21227   0.17549   0.16870  -0.16841
 RFO step:  Lambda0=4.154312497D-04 Lambda=-3.46156580D-04.
 Linear search not attempted -- option 19 set.
 Iteration  1 RMS(Cart)=  0.02905761 RMS(Int)=  0.00208548
 Iteration  2 RMS(Cart)=  0.00255770 RMS(Int)=  0.00012206
 Iteration  3 RMS(Cart)=  0.00000643 RMS(Int)=  0.00012182
 Iteration  4 RMS(Cart)=  0.00000000 RMS(Int)=  0.00012182
 Variable       Old X    -DE/DX   Delta X   Delta X   Delta X     New X
                                 (Linear)    (Quad)   (Total)
    R1        2.69353  -0.00008   0.00000  -0.00114  -0.00120   2.69232
    R2        2.55703  -0.00001   0.00000   0.00163   0.00164   2.55866
    R3        2.04460   0.00000   0.00000  -0.00027  -0.00027   2.04432
    R4        2.60495  -0.00004   0.00000  -0.00576  -0.00583   2.59912
    R5        2.04408  -0.00000   0.00000   0.00034   0.00034   2.04442
    R6        2.63514  -0.00000   0.00000   0.00781   0.00781   2.64295
    R7        2.04419   0.00000   0.00000  -0.00031  -0.00031   2.04388
    R8        2.77903  -0.00000   0.00000  -0.01353  -0.01347   2.76556
    R9        2.03859  -0.00000   0.00000  -0.00041  -0.00041   2.03819
   R10        2.79103   0.00007   0.00000  -0.01124  -0.01117   2.77986
   R11        2.06882   0.00000   0.00000  -0.00348  -0.00348   2.06535
   R12        2.15975   0.00113   0.00000   0.03350   0.03350   2.19325
   R13        2.04519  -0.00000   0.00000  -0.00011  -0.00011   2.04509
   R14        3.35108   0.00128   0.00000  -0.20857  -0.20857   3.14252
   R15        2.35491  -0.00032   0.00000   0.01055   0.01055   2.36547
    A1        2.10397  -0.00001   0.00000  -0.00287  -0.00289   2.10109
    A2        2.07948   0.00000   0.00000   0.00115   0.00116   2.08064
    A3        2.09938   0.00001   0.00000   0.00163   0.00163   2.10101
    A4        2.11001  -0.00007   0.00000   0.00264   0.00256   2.11258
    A5        2.08085   0.00003   0.00000  -0.00154  -0.00150   2.07934
    A6        2.09178   0.00003   0.00000  -0.00123  -0.00119   2.09058
    A7        2.10573   0.00002   0.00000  -0.00211  -0.00214   2.10359
    A8        2.09357  -0.00001   0.00000   0.00184   0.00185   2.09543
    A9        2.08387  -0.00001   0.00000   0.00026   0.00027   2.08414
   A10        2.10835   0.00014   0.00000  -0.00478  -0.00467   2.10368
   A11        2.08957  -0.00005   0.00000  -0.00122  -0.00126   2.08830
   A12        2.06981  -0.00007   0.00000   0.00513   0.00506   2.07487
   A13        2.01302  -0.00026   0.00000   0.00849   0.00811   2.02113
   A14        1.97473  -0.00021   0.00000   0.01728   0.01674   1.99148
   A15        1.82340   0.00145   0.00000  -0.02815  -0.02813   1.79526
   A16        1.96911   0.00015   0.00000   0.01573   0.01525   1.98436
   A17        1.88409  -0.00073   0.00000  -0.01242  -0.01242   1.87166
   A18        1.77383  -0.00032   0.00000  -0.01018  -0.00995   1.76388
   A19        2.12102   0.00015   0.00000  -0.00322  -0.00311   2.11790
   A20        2.10362  -0.00007   0.00000   0.00067   0.00059   2.10422
   A21        2.05787  -0.00009   0.00000   0.00227   0.00220   2.06007
   A22        2.43864   0.00425   0.00000   0.05672   0.05672   2.49536
   A23        1.67818   0.00274   0.00000   0.01480   0.01480   1.69298
    D1       -0.00919  -0.00001   0.00000  -0.00266  -0.00262  -0.01181
    D2       -3.11521   0.00008   0.00000   0.00160   0.00157  -3.11363
    D3        3.10398  -0.00016   0.00000  -0.00638  -0.00630   3.09768
    D4       -0.00203  -0.00007   0.00000  -0.00212  -0.00210  -0.00414
    D5       -0.06813  -0.00024   0.00000  -0.01158  -0.01149  -0.07961
    D6        3.11385  -0.00028   0.00000  -0.00293  -0.00286   3.11099
    D7        3.10221  -0.00009   0.00000  -0.00782  -0.00776   3.09445
    D8        0.00101  -0.00013   0.00000   0.00083   0.00087   0.00187
    D9        0.04994   0.00012   0.00000   0.00195   0.00190   0.05184
   D10       -3.08877   0.00006   0.00000   0.00683   0.00675  -3.08203
   D11       -3.12745   0.00003   0.00000  -0.00234  -0.00233  -3.12978
   D12        0.01702  -0.00003   0.00000   0.00254   0.00252   0.01954
   D13       -0.01266   0.00002   0.00000   0.01291   0.01282   0.00016
   D14       -2.96360  -0.00010   0.00000   0.01759   0.01752  -2.94608
   D15        3.12607   0.00008   0.00000   0.00806   0.00801   3.13408
   D16        0.17513  -0.00004   0.00000   0.01274   0.01270   0.18783
   D17       -0.05860  -0.00023   0.00000  -0.02574  -0.02567  -0.08428
   D18       -2.36241   0.00003   0.00000  -0.07537  -0.07553  -2.43794
   D19        2.00646  -0.00030   0.00000  -0.05548  -0.05539   1.95107
   D20        2.89445  -0.00011   0.00000  -0.03103  -0.03100   2.86345
   D21        0.59064   0.00015   0.00000  -0.08066  -0.08086   0.50978
   D22       -1.32367  -0.00018   0.00000  -0.06077  -0.06072  -1.38439
   D23        0.09937   0.00035   0.00000   0.02533   0.02528   0.12465
   D24       -3.08159   0.00039   0.00000   0.01686   0.01684  -3.06475
   D25        2.40581  -0.00008   0.00000   0.07555   0.07566   2.48147
   D26       -0.77514  -0.00004   0.00000   0.06708   0.06722  -0.70793
   D27       -1.93156  -0.00081   0.00000   0.06421   0.06419  -1.86737
   D28        1.17066  -0.00077   0.00000   0.05575   0.05575   1.22641
   D29       -0.14471  -0.00013   0.00000   0.06482   0.06467  -0.08004
   D30        2.00631  -0.00002   0.00000   0.05264   0.05288   2.05918
   D31       -2.20205  -0.00031   0.00000   0.06035   0.06027  -2.14179
   D32        0.01403  -0.00024   0.00000  -0.02415  -0.02415  -0.01012
         Item               Value     Threshold  Converged?
 Maximum Force            0.004253     0.000450     NO 
 RMS     Force            0.000694     0.000300     NO 
 Maximum Displacement     0.124596     0.001800     NO 
 RMS     Displacement     0.030226     0.001200     NO 
 Predicted change in Energy= 2.494388D-05
 GradGradGradGradGradGradGradGradGradGradGradGradGradGradGradGradGradGrad

                          Input orientation:                          
 ---------------------------------------------------------------------
 Center     Atomic      Atomic             Coordinates (Angstroms)
 Number     Number       Type             X           Y           Z
 ---------------------------------------------------------------------
      1          6           0        1.918586    0.494370   -0.585905
      2          6           0        1.699356   -0.907974   -0.462677
      3          6           0        0.675863   -1.400359    0.313038
      4          6           0       -0.213727   -0.530114    0.951284
      5          6           0       -0.070567    0.918900    0.804270
      6          6           0        1.109297    1.372689    0.051972
      7          1           0       -0.247083    1.480550    1.725085
      8          1           0       -1.007066    1.209336    0.183260
      9          1           0        0.557499   -2.467942    0.439784
     10          1           0        2.373907   -1.592282   -0.959792
     11          8           0       -2.071329   -0.630845   -0.383107
     12          1           0       -0.893847   -0.913559    1.695395
     13          8           0       -2.320930    0.573875   -0.613826
     14          1           0        1.290122    2.437475   -0.016700
     15          1           0        2.757115    0.848292   -1.170644
 ---------------------------------------------------------------------
                    Distance matrix (angstroms):
                    1          2          3          4          5
     1  C    0.000000
     2  C    1.424717   0.000000
     3  C    2.437716   1.375396   0.000000
     4  C    2.821219   2.408723   1.398590   0.000000
     5  C    2.463645   2.841699   2.485444   1.463472   0.000000
     6  C    1.353987   2.411318   2.818832   2.485922   1.471039
     7  H    3.317129   3.778885   3.338464   2.154681   1.092935
     8  H    3.108414   3.496421   3.107990   2.060324   1.160619
     9  H    3.417586   2.133488   1.081576   2.147463   3.463815
    10  H    2.168231   1.081859   2.130795   3.387663   3.923443
    11  O    4.150501   3.781692   2.936636   2.289418   2.795465
    12  H    3.885405   3.373723   2.147527   1.078562   2.197681
    13  O    4.240354   4.287357   3.706406   2.847572   2.682196
    14  H    2.120052   3.399765   3.900643   3.464843   2.198076
    15  H    1.081809   2.168996   3.404314   3.902368   3.449791
                    6          7          8          9         10
     6  C    0.000000
     7  H    2.156550   0.000000
     8  H    2.126714   1.740217   0.000000
     9  H    3.899400   4.229650   4.004502   0.000000
    10  H    3.378454   4.849788   4.537247   2.454574   0.000000
    11  O    3.784154   3.497190   2.199931   3.311013   4.584436
    12  H    3.455481   2.480110   2.608841   2.469629   4.264844
    13  O    3.584390   3.254751   1.662948   4.318344   5.182030
    14  H    1.082213   2.512473   2.612543   4.980786   4.278195
    15  H    2.117802   4.220213   4.016524   4.292924   2.479456
                   11         12         13         14         15
    11  O    0.000000
    12  H    2.405527   0.000000
    13  O    1.251752   3.095404   0.000000
    14  H    4.565982   4.350910   4.107221   0.000000
    15  H    5.110961   4.964657   5.115847   2.451359   0.000000
 Stoichiometry    C6H7O2(2)
 Framework group  C1[X(C6H7O2)]
 Deg. of freedom    39
 Full point group                 C1      NOp   1
 Largest Abelian subgroup         C1      NOp   1
 Largest concise Abelian subgroup C1      NOp   1
                         Standard orientation:                         
 ---------------------------------------------------------------------
 Center     Atomic      Atomic             Coordinates (Angstroms)
 Number     Number       Type             X           Y           Z
 ---------------------------------------------------------------------
      1          6           0       -1.914228   -0.505323   -0.570880
      2          6           0       -1.701697    0.899080   -0.459970
      3          6           0       -0.673990    1.402816    0.302777
      4          6           0        0.226158    0.542226    0.939307
      5          6           0        0.089739   -0.908603    0.804266
      6          6           0       -1.094333   -1.374430    0.066070
      7          1           0        0.277691   -1.462436    1.727548
      8          1           0        1.022188   -1.198480    0.176934
      9          1           0       -0.560426    2.471943    0.420583
     10          1           0       -2.384510    1.575967   -0.955963
     11          8           0        2.071036    0.643276   -0.412599
     12          1           0        0.910832    0.934906    1.674371
     13          8           0        2.325240   -0.561731   -0.636702
     14          1           0       -1.269845   -2.440674    0.006879
     15          1           0       -2.756025   -0.868171   -1.145363
 ---------------------------------------------------------------------
 Rotational constants (GHZ):           3.4325398           1.6051941           1.3451007
 Standard basis: CC-pVTZ+d (5D, 7F)
 There are   385 symmetry adapted cartesian basis functions of A   symmetry.
 There are   338 symmetry adapted basis functions of A   symmetry.
   338 basis functions,   535 primitive gaussians,   385 cartesian basis functions
    30 alpha electrons       29 beta electrons
       nuclear repulsion energy       348.7270310797 Hartrees.
 NAtoms=   15 NActive=   15 NUniq=   15 SFac= 1.00D+00 NAtFMM=   60 NAOKFM=F Big=F
 Integral buffers will be    131072 words long.
 Raffenetti 2 integral format.
 Two-electron integral symmetry is turned on.
 One-electron integrals computed using PRISM.
 NBasis=   338 RedAO= T EigKep=  4.85D-05  NBF=   338
 NBsUse=   338 1.00D-06 EigRej= -1.00D+00 NBFU=   338
 Initial guess from the checkpoint file:  "RcyclohexadienylO2-concerted-OOH-elim-ortho-TS-b3lyp.chk"
 B after Tr=    -0.000000   -0.000000   -0.000000
         Rot=    0.999983    0.004873   -0.003211   -0.000499 Ang=   0.67 deg.
 Initial guess <Sx>= 0.0000 <Sy>= 0.0000 <Sz>= 0.5000 <S**2>= 1.0649 S= 0.6467
 ExpMin= 1.03D-01 ExpMax= 1.53D+04 ExpMxC= 5.22D+02 IAcc=3 IRadAn=         5 AccDes= 0.00D+00
 Harris functional with IExCor=  402 and IRadAn=       5 diagonalized for initial guess.
 HarFok:  IExCor=  402 AccDes= 0.00D+00 IRadAn=         5 IDoV= 1 UseB2=F ITyADJ=14
 ICtDFT=  3500011 ScaDFX=  1.000000  1.000000  1.000000  1.000000
 FoFCou: FMM=F IPFlag=           0 FMFlag=      100000 FMFlg1=           0
         NFxFlg=           0 DoJE=T BraDBF=F KetDBF=T FulRan=T
         wScrn=  0.000000 ICntrl=       500 IOpCl=  0 I1Cent=   200000004 NGrid=           0
         NMat0=    1 NMatS0=      1 NMatT0=    0 NMatD0=    1 NMtDS0=    0 NMtDT0=    0
 Petite list used in FoFCou.
 Requested convergence on RMS density matrix=1.00D-08 within 128 cycles.
 Requested convergence on MAX density matrix=1.00D-06.
 Requested convergence on             energy=1.00D-06.
 No special actions if energy rises.
 Integral accuracy reduced to 1.0D-05 until final iterations.
 Initial convergence to 1.0D-05 achieved.  Increase integral accuracy.
 SCF Done:  E(UB3LYP) =  -383.260698938     A.U. after   22 cycles
            NFock= 22  Conv=0.68D-08     -V/T= 2.0064
 <Sx>= 0.0000 <Sy>= 0.0000 <Sz>= 0.5000 <S**2>= 0.9370 S= 0.5895
 <L.S>= 0.000000000000E+00
 Annihilation of the first spin contaminant:
 S**2 before annihilation     0.9370,   after     0.7552
 Calling FoFJK, ICntrl=      2127 FMM=F ISym2X=0 I1Cent= 0 IOpClX= 1 NMat=1 NMatS=1 NMatT=0.
 ***** Axes restored to original set *****
 -------------------------------------------------------------------
 Center     Atomic                   Forces (Hartrees/Bohr)
 Number     Number              X              Y              Z
 -------------------------------------------------------------------
      1        6           0.000096540   -0.000373301   -0.000101930
      2        6           0.000201352    0.000239849   -0.000134431
      3        6          -0.000196392    0.000057186    0.000117312
      4        6           0.000221306    0.000400083    0.000175639
      5        6           0.002059961   -0.000780898    0.000902000
      6        6          -0.000536287    0.000154399    0.000135856
      7        1          -0.000164112    0.000057741   -0.000050900
      8        1          -0.001491324    0.000079193   -0.000904061
      9        1          -0.000002798   -0.000001557    0.000012105
     10        1          -0.000003914    0.000002841   -0.000012420
     11        8          -0.000062373   -0.000285440   -0.000029275
     12        1          -0.000128156   -0.000029768   -0.000094755
     13        8          -0.000019526    0.000469092   -0.000038143
     14        1           0.000020412    0.000008088    0.000013490
     15        1           0.000005312    0.000002491    0.000009514
 -------------------------------------------------------------------
 Cartesian Forces:  Max     0.002059961 RMS     0.000471015

 GradGradGradGradGradGradGradGradGradGradGradGradGradGradGradGradGradGrad
 Berny optimization.
 FormGI is forming the generalized inverse of G from B-inverse, IUseBI=4.
 Internal  Forces:  Max     0.001855010 RMS     0.000272695
 Search for a saddle point.
 Step number   2 out of a maximum of   80
 All quantities printed in internal units (Hartrees-Bohrs-Radians)
 Swapping is turned off.
 Update second derivatives using D2CorX and points    1    2
 ITU=  0  0
     Eigenvalues ---   -0.01870   0.00008   0.00378   0.00883   0.01385
     Eigenvalues ---    0.01599   0.01840   0.02184   0.02484   0.02621
     Eigenvalues ---    0.03577   0.04347   0.05871   0.06509   0.08007
     Eigenvalues ---    0.10368   0.11127   0.11494   0.11971   0.12540
     Eigenvalues ---    0.12575   0.17658   0.18648   0.19502   0.20409
     Eigenvalues ---    0.25474   0.29445   0.31689   0.32920   0.35539
     Eigenvalues ---    0.35651   0.35713   0.35823   0.36317   0.37745
     Eigenvalues ---    0.42017   0.46754   0.52780   0.58967
 Eigenvectors required to have negative eigenvalues:
                          R14       A22       D21       D22       D16
   1                   -0.54163  -0.31294  -0.31071  -0.27471   0.26523
                          D14       D20       D17       R6        A23
   1                    0.23615  -0.20610   0.18723   0.16778  -0.16715
 RFO step:  Lambda0=6.479504620D-06 Lambda=-5.33285936D-04.
 Linear search not attempted -- option 19 set.
 Maximum step size (   0.300) exceeded in Quadratic search.
    -- Step size scaled by   0.534
 Iteration  1 RMS(Cart)=  0.04659623 RMS(Int)=  0.01058278
 Iteration  2 RMS(Cart)=  0.01195304 RMS(Int)=  0.00042710
 Iteration  3 RMS(Cart)=  0.00015230 RMS(Int)=  0.00035781
 Iteration  4 RMS(Cart)=  0.00000008 RMS(Int)=  0.00035781
 Variable       Old X    -DE/DX   Delta X   Delta X   Delta X     New X
                                 (Linear)    (Quad)   (Total)
    R1        2.69232  -0.00025   0.00000  -0.01330  -0.01348   2.67884
    R2        2.55866   0.00023   0.00000   0.00991   0.00978   2.56845
    R3        2.04432  -0.00000   0.00000  -0.00007  -0.00007   2.04425
    R4        2.59912   0.00018   0.00000   0.01229   0.01222   2.61134
    R5        2.04442   0.00000   0.00000  -0.00010  -0.00010   2.04432
    R6        2.64295  -0.00008   0.00000  -0.01383  -0.01371   2.62924
    R7        2.04388   0.00000   0.00000  -0.00003  -0.00003   2.04385
    R8        2.76556  -0.00042   0.00000  -0.01872  -0.01853   2.74703
    R9        2.03819   0.00003   0.00000  -0.00060  -0.00060   2.03759
   R10        2.77986  -0.00029   0.00000  -0.01757  -0.01752   2.76234
   R11        2.06535   0.00001   0.00000  -0.00324  -0.00324   2.06211
   R12        2.19325   0.00186   0.00000   0.05447   0.05447   2.24772
   R13        2.04509   0.00001   0.00000  -0.00027  -0.00027   2.04482
   R14        3.14252   0.00003   0.00000  -0.24972  -0.24972   2.89280
   R15        2.36547   0.00026   0.00000   0.00299   0.00299   2.36846
    A1        2.10109  -0.00005   0.00000  -0.00231  -0.00253   2.09855
    A2        2.08064   0.00003   0.00000   0.00297   0.00309   2.08373
    A3        2.10101   0.00002   0.00000  -0.00067  -0.00056   2.10045
    A4        2.11258  -0.00008   0.00000  -0.00209  -0.00225   2.11032
    A5        2.07934   0.00004   0.00000   0.00272   0.00280   2.08214
    A6        2.09058   0.00005   0.00000  -0.00071  -0.00063   2.08995
    A7        2.10359   0.00003   0.00000  -0.00100  -0.00089   2.10271
    A8        2.09543  -0.00000   0.00000  -0.00200  -0.00209   2.09333
    A9        2.08414  -0.00002   0.00000   0.00292   0.00282   2.08696
   A10        2.10368  -0.00001   0.00000  -0.00179  -0.00276   2.10092
   A11        2.08830   0.00001   0.00000   0.00779   0.00625   2.09455
   A12        2.07487   0.00002   0.00000   0.01030   0.00874   2.08361
   A13        2.02113   0.00012   0.00000   0.00812   0.00749   2.02862
   A14        1.99148  -0.00006   0.00000   0.02184   0.02086   2.01234
   A15        1.79526   0.00014   0.00000  -0.02978  -0.02974   1.76552
   A16        1.98436   0.00003   0.00000   0.02232   0.02143   2.00579
   A17        1.87166  -0.00016   0.00000  -0.01673  -0.01668   1.85498
   A18        1.76388  -0.00010   0.00000  -0.02157  -0.02118   1.74270
   A19        2.11790  -0.00000   0.00000  -0.00585  -0.00585   2.11205
   A20        2.10422  -0.00000   0.00000  -0.00014  -0.00018   2.10404
   A21        2.06007   0.00001   0.00000   0.00543   0.00540   2.06547
   A22        2.49536   0.00099   0.00000   0.13221   0.13221   2.62757
   A23        1.69298   0.00034   0.00000   0.04037   0.04037   1.73335
    D1       -0.01181   0.00002   0.00000  -0.01269  -0.01257  -0.02439
    D2       -3.11363  -0.00000   0.00000  -0.01027  -0.01028  -3.12391
    D3        3.09768   0.00000   0.00000  -0.01288  -0.01271   3.08497
    D4       -0.00414  -0.00002   0.00000  -0.01046  -0.01042  -0.01456
    D5       -0.07961   0.00000   0.00000  -0.01159  -0.01138  -0.09100
    D6        3.11099  -0.00003   0.00000   0.00183   0.00195   3.11294
    D7        3.09445   0.00002   0.00000  -0.01146  -0.01131   3.08314
    D8        0.00187  -0.00001   0.00000   0.00195   0.00202   0.00389
    D9        0.05184  -0.00001   0.00000  -0.00605  -0.00613   0.04571
   D10       -3.08203  -0.00003   0.00000   0.00670   0.00652  -3.07550
   D11       -3.12978   0.00001   0.00000  -0.00841  -0.00835  -3.13813
   D12        0.01954  -0.00001   0.00000   0.00434   0.00430   0.02384
   D13        0.00016  -0.00002   0.00000   0.04863   0.04843   0.04860
   D14       -2.94608  -0.00009   0.00000  -0.04896  -0.04910  -2.99518
   D15        3.13408   0.00001   0.00000   0.03594   0.03581  -3.11330
   D16        0.18783  -0.00007   0.00000  -0.06165  -0.06172   0.12611
   D17       -0.08428   0.00002   0.00000  -0.06993  -0.06995  -0.15423
   D18       -2.43794  -0.00009   0.00000  -0.13865  -0.13896  -2.57691
   D19        1.95107  -0.00002   0.00000  -0.10577  -0.10571   1.84536
   D20        2.86345   0.00010   0.00000   0.02666   0.02671   2.89016
   D21        0.50978  -0.00002   0.00000  -0.04206  -0.04231   0.46748
   D22       -1.38439   0.00005   0.00000  -0.00918  -0.00906  -1.39344
   D23        0.12465  -0.00001   0.00000   0.05182   0.05175   0.17641
   D24       -3.06475   0.00002   0.00000   0.03859   0.03857  -3.02619
   D25        2.48147   0.00007   0.00000   0.12009   0.12029   2.60176
   D26       -0.70793   0.00009   0.00000   0.10686   0.10710  -0.60083
   D27       -1.86737  -0.00014   0.00000   0.09549   0.09542  -1.77195
   D28        1.22641  -0.00011   0.00000   0.08226   0.08223   1.30865
   D29       -0.08004  -0.00007   0.00000   0.11268   0.11253   0.03248
   D30        2.05918   0.00007   0.00000   0.09883   0.09910   2.15828
   D31       -2.14179  -0.00001   0.00000   0.10712   0.10701  -2.03478
   D32       -0.01012  -0.00001   0.00000  -0.05955  -0.05955  -0.06967
         Item               Value     Threshold  Converged?
 Maximum Force            0.001855     0.000450     NO 
 RMS     Force            0.000273     0.000300     YES
 Maximum Displacement     0.170010     0.001800     NO 
 RMS     Displacement     0.048916     0.001200     NO 
 Predicted change in Energy=-2.650529D-04
 GradGradGradGradGradGradGradGradGradGradGradGradGradGradGradGradGradGrad

                          Input orientation:                          
 ---------------------------------------------------------------------
 Center     Atomic      Atomic             Coordinates (Angstroms)
 Number     Number       Type             X           Y           Z
 ---------------------------------------------------------------------
      1          6           0        1.916083    0.493014   -0.587920
[...]
 ! D27   D(8,5,6,1)           -106.2334         -DE/DX =    0.0                 !
 ! D28   D(8,5,6,14)            70.8572         -DE/DX =    0.0                 !
 ! D29   D(4,5,8,13)            -2.6661         -DE/DX =    0.0                 !
 ! D30   D(6,5,8,13)           119.9632         -DE/DX =    0.0                 !
 ! D31   D(7,5,8,13)          -120.7884         -DE/DX =    0.0                 !
 ! D32   D(5,8,13,11)           -2.2028         -DE/DX =    0.0                 !
 --------------------------------------------------------------------------------
 GradGradGradGradGradGradGradGradGradGradGradGradGradGradGradGradGradGrad


 ----------------------------------------------------------------------

 Electric dipole moment (input orientation):
 (Debye = 10**-18 statcoulomb cm , SI units = C m)
                  (au)            (Debye)         (10**-30 SI)
   Tot        0.113337D+01      0.288074D+01      0.960912D+01
   x          0.103784D+01      0.263793D+01      0.879918D+01
   y          0.105303D+00      0.267655D+00      0.892799D+00
   z          0.443089D+00      0.112622D+01      0.375666D+01

 Dipole polarizability, Alpha (input orientation).
 (esu units = cm**3 , SI units = C**2 m**2 J**-1)
 Alpha(0;0):
               (au)            (10**-24 esu)      (10**-40 SI)
   iso        0.942201D+02      0.139620D+02      0.155348D+02
   aniso      0.629227D+02      0.932418D+01      0.103746D+02
   xx         0.133647D+03      0.198044D+02      0.220354D+02
   yx        -0.181525D+01     -0.268992D+00     -0.299294D+00
   yy         0.867389D+02      0.128534D+02      0.143013D+02
   zx         0.979662D+00      0.145171D+00      0.161524D+00
   zy         0.954746D-01      0.141479D-01      0.157416D-01
   zz         0.622743D+02      0.922810D+01      0.102676D+02

 ----------------------------------------------------------------------

 Dipole orientation:
     6          2.40421230          0.80182317          2.99114022
     6          2.19094642         -1.82241489          2.48269823
     6          0.11198802         -2.77588506          1.21351905
     6         -1.76379415         -1.16938933          0.32922486
     6         -1.54804911          1.56563198          0.65353972
     6          0.58596051          2.43137850          2.20139372
     1         -3.33358640          2.51203291          1.08410211
     1         -1.19994966          2.28820803         -1.40274575
     1         -0.06927257         -4.79162378          0.92672743
     1          3.64359891         -3.09434569          3.15338932
     8         -0.83733583         -0.79239882         -4.21853613
     1         -3.47934655         -1.93802862         -0.45910306
     8         -0.78213641          1.55875562         -4.40982812
     1          0.72501812          4.42699316          2.62553256
     1          4.00787498          1.48671560          4.05851183

 Electric dipole moment (dipole orientation):
 (Debye = 10**-18 statcoulomb cm , SI units = C m)
                  (au)            (Debye)         (10**-30 SI)
   Tot        0.113337D+01      0.288074D+01      0.960912D+01
   x          0.000000D+00      0.000000D+00      0.000000D+00
   y          0.000000D+00      0.000000D+00      0.000000D+00
   z          0.113337D+01      0.288074D+01      0.960912D+01

 Dipole polarizability, Alpha (dipole orientation).
 (esu units = cm**3 , SI units = C**2 m**2 J**-1)
 Alpha(0;0):
               (au)            (10**-24 esu)      (10**-40 SI)
   iso        0.942201D+02      0.139620D+02      0.155348D+02
   aniso      0.629227D+02      0.932418D+01      0.103746D+02
   xx         0.730099D+02      0.108189D+02      0.120377D+02
   yx        -0.401185D+01     -0.594495D+00     -0.661465D+00
   yy         0.869174D+02      0.128798D+02      0.143307D+02
   zx         0.251726D+02      0.373019D+01      0.415040D+01
   zy        -0.345086D+01     -0.511365D+00     -0.568971D+00
   zz         0.122733D+03      0.181871D+02      0.202359D+02

 ----------------------------------------------------------------------
 1\1\GINC-CNODE0983\Freq\UB3LYP\CC-pVTZ+d\C6H7O2(2)\KOTUKILE\27-Jul-202
 2\0\\#N Geom=AllCheck Guess=TCheck SCRF=Check GenChk UB3LYP/CC-pVTZ+d 
 Freq\\RcyclohexadienylO2-concerted-OOH-elim-ortho-TS-b3lyp\\0,2\C,1.92
 87546814,0.4909176443,-0.5856322775\C,1.7224981452,-0.9072461737,-0.45
 84507729\C,0.7014258211,-1.4037786112,0.3332682184\C,-0.1733025404,-0.
 5416958132,0.9802934053\C,-0.0593339795,0.9055949657,0.8083713948\C,1.
 1111860968,1.3679137653,0.0519415115\H,-0.256585104,1.4822646681,1.716
 1392107\H,-1.0059859957,1.1732244337,0.1787594713\H,0.5896055304,-2.47
 20750125,0.4608780194\H,2.3939638552,-1.5901898166,-0.9610782565\O,-2.
 1945212575,-0.597025551,-0.4280224088\H,-0.8909745528,-0.9291479078,1.
 6863066565\O,-2.3517181114,0.6282381977,-0.6099437726\H,1.2813430355,2
 .4337460175,-0.0258139395\H,2.7608393757,0.8516691937,-1.17558046\\Ver
 sion=ES64L-G16RevB.01\State=2-A\HF=-383.2608194\S2=1.065496\S2-1=0.\S2
 A=0.76311\RMSD=7.047e-09\RMSF=2.243e-05\ZeroPoint=0.1128985\Thermal=0.
 1202058\Dipole=1.0378408,0.1053034,0.4430886\DipoleDeriv=0.1263478,0.1
 655945,-0.0768429,-0.0300434,-0.1952285,-0.0364492,-0.2120999,-0.13248
 67,-0.0809658,-0.2663669,-0.0457019,-0.2084771,0.1541589,0.191427,0.04
 82376,0.1808518,0.0438907,0.0776879,0.1355104,-0.0173146,0.1387393,-0.
 10305,0.1251092,-0.1288976,-0.1473685,0.0532657,-0.2683107,-0.2020026,
 0.0392302,-0.2683605,0.4147608,0.0142964,0.2532192,-0.214679,-0.027354
 4,-0.0044564,0.6141629,0.1684655,0.3171361,-0.3907081,-0.1473275,-0.10
 38626,0.205911,0.1057435,0.1610279,-0.3437297,-0.1977961,-0.2046955,-0
 .0431574,0.1181344,-0.0149402,0.0595752,0.0279606,-0.0572537,0.0222551
 ,-0.0436996,-0.0186375,0.0059815,0.0542854,-0.0562734,-0.0113202,-0.11
 25947,-0.0594277,-0.3632063,-0.0425408,-0.1316319,-0.1905334,0.1097126
 ,-0.0431876,-0.3101203,-0.0308283,-0.005873,0.0798429,-0.0168239,0.030
 9411,0.0131663,-0.0835031,0.0255189,0.0143851,0.0168113,0.100363,0.026
 8439,0.0594681,0.0720131,0.0576968,0.0017146,-0.0460337,0.0672444,-0.0
 467464,0.0747729,0.3406309,-0.08543,0.1599406,-2.198559,-0.0956185,-0.
 6886527,0.4691532,-0.0301673,0.0277406,0.0498164,-0.0261855,0.0829673,
 -0.0026058,0.0421606,0.0416962,0.0361774,0.0168916,0.0326954,-0.254826
 ,0.1060991,-0.0224193,2.4082535,-0.1007961,0.7153688,-0.2629589,0.0518
 6,-0.1626686,0.0572324,-0.0235933,0.0299591,-0.0375245,-0.0787417,0.00
 68336,0.0234687,0.0269929,0.0998791,-0.0225111,-0.0397717,0.0993681,-0
 .0578362,0.044375,0.0274227,0.1017802,0.0367614,0.0647891\Polar=133.64
 70246,-1.8152472,86.7389322,0.979662,0.0954746,62.2743149\Quadrupole=-
 3.1668107,3.0078886,0.1589222,-0.2241411,-3.8379959,0.2892339\PG=C01 [
 X(C6H7O2)]\NImag=1\\0.54055656,-0.00640919,0.62356595,-0.30147430,0.01
 604357,0.34915186,-0.10780717,0.00411395,0.03390740,0.49272211,-0.0513
 9264,-0.25914023,0.03440713,-0.03280150,0.63130209,0.03366802,-0.00746
 089,-0.08559710,-0.27289080,0.02848686,0.33724345,0.01078438,-0.060985
 02,-0.00292380,-0.20538132,-0.02577558,0.10937620,0.44166114,-0.030791
 13,-0.00896288,0.02388298,-0.08681270,-0.16215293,0.06942531,0.0132846
 9,0.73034932,-0.00424381,0.04625819,0.00983736,0.11298592,0.02151329,-
 0.14496562,-0.23841180,-0.02941589,0.31394004,-0.00752011,0.02415761,0
 .00065423,-0.05203058,-0.01293442,0.04726749,-0.14750866,0.09816856,0.
 06866736,0.43758118,0.01005876,-0.02981128,-0.00890534,0.02770077,0.04
 813001,-0.02372476,0.06007409,-0.21188620,-0.03662784,-0.00913217,0.57
 833563,-0.00017953,-0.00935860,-0.00526076,0.02936363,-0.00195483,-0.0
 1627537,0.09660195,-0.07816011,-0.13334846,-0.29186293,-0.02097503,0.4
 0033121,-0.02329196,0.02560730,0.02664317,-0.00318655,-0.01641687,-0.0
 0639375,0.00231525,0.01913454,0.00467128,-0.07326968,-0.04000550,0.025
 90083,0.39096720,0.01359729,0.02000922,-0.00717277,-0.01220980,-0.0113
 5201,0.01100471,0.02576140,-0.02966208,-0.02041824,-0.02405793,-0.2204
 1829,0.02097452,0.04464810,0.52791635,0.02462058,-0.00184290,-0.004191
 96,0.00185037,0.00713519,-0.01217212,-0.01025401,-0.01320059,0.0220407
 5,0.03024255,-0.00185117,-0.08819269,-0.11687092,0.06668565,0.47958077
 ,-0.21257920,0.08895880,0.11318120,0.02506923,0.04006092,-0.01259677,-
 0.02229089,0.00491395,0.01650151,0.00585049,-0.02386985,-0.00538966,-0
 .14762156,-0.04790995,0.08104570,0.46420537,0.12810601,-0.23060270,-0.
 10036871,0.00881791,-0.05666443,-0.00844807,0.01520363,-0.00161201,-0.
 01012121,-0.03760865,-0.00924114,0.02135872,-0.04247807,-0.11855372,0.
 02111922,-0.04116383,0.73134061,0.11544625,-0.07275100,-0.14737770,-0.
 01279083,-0.03186889,0.01750540,0.01596749,-0.00363771,-0.01665991,-0.
 00207185,0.02379421,0.00279720,0.05853611,0.02031476,-0.12014579,-0.22
 507932,0.05821584,0.30721025,-0.00208796,-0.00578473,0.00261888,-0.000
 70027,0.00013752,0.00092861,0.00425430,0.00009081,-0.00123963,-0.00268
 688,0.00812702,-0.00160783,-0.03626814,0.01040008,0.04459056,-0.010336
 03,0.01667972,0.02442118,0.05231706,-0.00319036,0.00252476,0.00083891,
 -0.00040118,-0.00168401,0.00050898,-0.00266304,-0.00480566,0.00098683,
 0.00768642,-0.01641971,-0.02616534,0.01354241,-0.11623008,-0.10960677,
 0.00397325,0.00737519,0.00711459,-0.02140081,0.12674629,0.00194834,0.0
 0045446,-0.00127363,-0.00079528,0.00124152,0.00042595,0.00089149,0.001
 42803,-0.00062166,-0.00458925,0.00617476,0.00641933,0.05224391,-0.1157
 7444,-0.21688336,-0.00128300,-0.00714917,-0.00957142,-0.04601222,0.122
 21987,0.23893439,0.00241201,-0.01370847,-0.00513587,-0.00750465,0.0055
 0901,0.00693897,0.01275973,-0.00470784,-0.01349124,-0.01307799,0.04032
 537,-0.00434987,-0.06368806,-0.00392004,-0.03943803,-0.04683258,0.0030
 4333,0.00587746,-0.00656516,0.00224850,-0.00593504,0.09725820,-0.00139
 809,0.00199228,0.00051737,-0.00212697,-0.00180931,0.00170985,0.0012935
 4,-0.00350012,-0.00297773,0.01701602,-0.01038950,0.01295152,0.02980008
 ,-0.04132075,0.02558380,-0.00491128,0.00207057,-0.00552506,-0.00947486
 ,0.00259440,-0.00921609,-0.03335330,0.06803238,0.00305210,-0.00793273,
 -0.00586736,-0.00347237,0.00436505,0.00453220,0.00704729,-0.00210224,-
 0.00811716,-0.01114846,0.02293208,-0.00656487,-0.02294163,0.00426877,-
 0.05698696,-0.00256044,-0.00497927,0.01498525,-0.02347104,0.00434558,-
 0.02128857,0.03581198,-0.02517995,0.07273889,-0.00034018,-0.00026479,0
 .00610036,0.00081710,-0.02483282,0.00293796,-0.05322257,-0.02814699,0.
 01301410,0.00515348,0.02305690,-0.00224592,0.00041932,0.00098506,0.005
 83788,-0.00025360,0.00009429,-0.00017043,0.00003583,0.00115724,-0.0002
 9782,0.00003106,-0.00010750,0.00013316,0.04988921,-0.00142089,0.001569
 57,0.00150494,0.00049498,-0.00750747,-0.00001760,-0.02815122,-0.328259
 67,0.03305972,-0.00303188,-0.01665303,0.00326437,0.00202948,0.00071455
 ,-0.00217219,0.00037727,0.00071464,-0.00026047,0.00016436,-0.00070878,
 0.00032833,0.00013124,-0.00026551,0.00003806,0.02976959,0.34891442,0.0
 0618882,0.00127402,0.00292190,0.00062127,0.01873812,0.00247342,0.01532
 013,0.03209479,-0.05157051,-0.00257566,-0.01424796,0.00598492,0.004639
 44,-0.00206513,0.00357373,0.00080132,-0.00030829,-0.00121737,0.0001970
 4,-0.00022062,-0.00002345,-0.00034087,-0.00071081,0.00000993,-0.019685
 86,-0.03536344,0.04252811,0.00664887,-0.00407263,-0.00162781,-0.158126
 86,0.10835349,0.09121720,-0.00953885,0.01658913,0.01087358,-0.00018215
 ,-0.00280758,0.00585559,-0.00029352,-0.00061418,-0.00071561,0.00238932
 ,-0.00167665,0.00157632,-0.00012626,0.00006577,-0.00006658,0.00026103,
 0.00003109,0.00020289,-0.00092146,-0.00032342,-0.00261957,0.16087644,0
 .02047448,-0.01372065,-0.01514271,0.10853643,-0.17104042,-0.08115864,-
 0.00814065,0.01096383,0.00578600,-0.00254246,-0.00005198,0.00178816,-0
 .00059396,0.00003448,0.00032595,-0.00198435,-0.00551522,0.00130729,0.0
 0006545,0.00002683,-0.00003937,-0.00009656,-0.00004661,-0.00002651,0.0
 0033341,0.00088252,-0.00037229,-0.11660733,0.17777843,-0.00161120,0.00
 325950,0.00561286,0.09078359,-0.08050597,-0.10455756,0.01121096,-0.012
 48900,-0.00255424,0.00546011,0.00148391,0.00295582,-0.00065881,0.00024
 311,-0.00099760,0.00213839,0.00087892,0.00325160,-0.00018870,0.0000347
 9,-0.00009704,0.00027333,0.00017183,0.00022024,-0.00255123,0.00002425,
 -0.00229501,-0.10324726,0.08745396,0.10046644,0.00062760,-0.00740275,0
 .00002668,0.01129683,0.00687783,-0.01049965,-0.02188090,0.00665569,0.0
 1096194,0.02180706,-0.01559905,0.01017506,-0.00620019,-0.00305612,-0.0
 0678945,-0.00030293,0.00353705,0.00165365,-0.00120890,-0.00039523,0.00
 057396,0.00379103,-0.00784356,0.00034044,-0.00013111,-0.00014861,0.000
 40070,0.00029286,0.00028768,0.00008357,0.02823199,0.00468971,-0.005595
 44,-0.00514210,-0.00968791,0.00809350,0.00962404,0.01008950,-0.0054786
 0,-0.00647551,-0.01067286,0.01626242,-0.00369121,0.03943444,-0.0199566
 5,0.01118942,-0.01727289,-0.00160841,0.00761179,-0.00505110,-0.0002030
 8,-0.00345535,-0.03816697,-0.02427505,-0.02316400,-0.00047634,0.001031
 17,-0.00050447,-0.00009705,-0.00005414,-0.00006033,-0.04279347,0.54972
 050,-0.00008716,-0.00552972,0.00031626,0.00935708,0.00371893,-0.006809
 90,-0.01198136,0.00519840,0.01091562,0.01890416,-0.01112373,-0.0035619
 2,-0.00752688,0.00030488,-0.00322960,0.00049067,0.00257555,-0.00014700
 ,-0.00007030,-0.00030924,0.00071032,0.00258476,-0.00314071,0.00733505,
 -0.00021479,-0.00017395,0.00014519,-0.00019049,0.00022166,-0.00029421,
 0.01664291,-0.06280874,0.02373566,0.00024891,-0.00105853,-0.00061438,0
 .00334428,0.00479143,0.00279064,-0.01180726,-0.00763764,0.01574272,-0.
 16953268,-0.06967783,0.13876117,0.00186626,0.00162035,-0.00126216,0.00
 129937,0.00021841,0.00168504,-0.00018652,0.00049993,-0.00013433,0.0008
 6176,-0.00075698,0.00094358,-0.00106702,0.00006155,-0.00251869,-0.0007
 7878,-0.00038309,0.00017576,-0.00307119,0.00077737,-0.00610129,0.18007
 507,-0.00014696,-0.00043945,-0.00014138,0.00331018,-0.00246225,-0.0019
 7444,0.01365495,0.01167545,-0.01432305,-0.06823683,-0.09682917,0.06971
 498,-0.02177034,-0.00577051,0.01916606,0.00234322,-0.00555256,-0.00010
 859,-0.00008592,0.00124212,-0.00059604,0.00042913,-0.00009723,0.000437
 30,-0.00061733,0.00094549,0.00004597,0.00104067,0.00036373,-0.00031161
 ,-0.00054120,0.00124065,-0.00104980,0.07180550,0.09720028,-0.00015965,
 -0.00199986,-0.00064556,0.00538836,-0.00062108,0.00177120,0.00646776,0
 .00817346,-0.00146901,0.14170788,0.06558969,-0.16728637,0.00262313,0.0
 0004494,0.00004638,-0.00047254,0.00041299,0.00368960,-0.00122163,0.001
 33259,0.00043193,0.00076140,-0.00080842,0.00091607,-0.00222601,-0.0001
 8750,-0.00177163,0.00042932,0.00043591,-0.00038176,-0.00271267,-0.0015
 7438,-0.00345819,-0.14956665,-0.07219551,0.16850768,-0.00111283,0.0078
 1275,0.00297425,0.00096879,-0.00377116,-0.00074175,-0.00275623,-0.0000
 0963,0.00322685,-0.00153599,-0.00985891,-0.00495983,-0.04399051,0.0175
 9965,-0.01954010,0.01134962,-0.00042782,-0.00835285,0.00470880,-0.0011
 7597,0.00254136,0.01830278,0.01090085,0.01682923,-0.00001961,0.0000377
 2,-0.00000629,-0.00018766,-0.00001867,-0.00014644,-0.03320132,0.070321
 90,-0.02179064,-0.00123188,0.00022262,-0.00100844,0.04897619,-0.005249
 25,0.00540198,0.00660379,0.01329534,-0.00754002,-0.01313131,-0.0140899
 1,0.00851390,0.01317146,0.02208909,-0.03192230,0.00978207,-0.05492826,
 0.02203701,-0.02011051,0.02151869,0.00375623,-0.01005403,0.00551029,-0
 .00110303,0.00445936,0.04257337,0.00721446,0.02707020,0.00012325,-0.00
 092426,0.00056943,-0.00005121,0.00014977,-0.00011218,0.06034747,-0.518
 44154,0.07202207,-0.00026740,-0.00130151,0.00155185,-0.09156205,0.5133
 2692,-0.00069334,0.00625923,0.00204529,-0.00179408,-0.00269863,0.00036
 578,-0.00098203,-0.00110082,-0.00046056,-0.00506701,-0.00269950,0.0015
 7406,-0.02508486,0.00842236,-0.00956351,0.00629525,-0.00049208,-0.0041
 4115,0.00275553,-0.00070942,0.00188058,0.01391842,0.00575607,-0.001723
 39,0.00000565,0.00011818,-0.00008554,0.00003808,-0.00005415,0.00010220
 ,-0.02070062,0.07891776,-0.02565706,0.00022883,0.00039950,-0.00006233,
 0.03122389,-0.09201815,0.03586538,0.00775602,0.02068699,0.00023297,0.0
 0085912,0.00163887,0.00601871,-0.00028892,0.00010358,-0.00052924,-0.00
 304999,0.00138213,0.00440488,-0.00152254,-0.02618575,0.00119966,-0.057
 51813,-0.04455002,0.01241093,0.00012788,0.00067985,0.00029119,0.001549
 62,0.00061664,-0.00030766,-0.00030201,-0.00006285,-0.00065000,0.000013
 64,0.00095839,-0.00024450,-0.00023813,-0.00059022,-0.00018156,0.000254
 84,-0.00129882,0.00030350,-0.00021240,0.00014587,-0.00006773,0.0538530
 7,-0.00528609,-0.01639653,0.00308169,0.00281922,-0.00015703,-0.0027331
 8,0.00026370,0.00045160,-0.00017981,-0.00152230,0.00167277,0.00084568,
 0.00045512,-0.00512750,-0.00023432,-0.04306174,-0.32690546,0.01808589,
 -0.00019775,0.00039250,0.00036010,-0.00017780,-0.00018891,0.00016231,0
 .00000066,-0.00004271,0.00007374,-0.00027605,-0.00085137,0.00025693,0.
 00007076,-0.00027803,0.00004162,0.00007591,-0.00036558,-0.00016999,-0.
 00014530,0.00025859,-0.00012556,0.04662628,0.34654613,-0.00165295,-0.0
 1569848,0.00718988,0.00627220,-0.00210858,0.00459662,-0.00002088,-0.00
 004830,-0.00084240,0.00482419,0.00097812,0.00059792,-0.00050961,0.0148
 1845,0.00126198,0.01524746,0.02084978,-0.04580518,-0.00157987,0.000028
 42,0.00051740,0.00167728,0.00044022,0.00079904,-0.00072646,-0.00004556
 ,-0.00082343,-0.00021146,-0.00079139,-0.00000718,-0.00021858,-0.000449
 91,-0.00002596,0.00028386,0.00099011,0.00024479,-0.00036864,0.00009164
 ,-0.00028915,-0.01967021,-0.01953255,0.03600801,-0.21429494,-0.0716512
 8,0.12543702,-0.00034005,0.00055594,0.00197891,0.00290080,-0.00083501,
 0.00127046,0.00000250,0.00022587,-0.00046754,0.00376466,0.00334184,0.0
 0548297,-0.01242848,-0.00779530,0.01089087,-0.00127774,-0.00062680,0.0
 0062326,0.00044122,0.00031430,-0.00045907,-0.00008846,0.00007268,0.000
 22822,-0.00032662,-0.00028877,-0.00147755,0.00018729,-0.00050411,0.000
 16490,-0.00027514,-0.00010887,-0.00031378,-0.00005776,0.00054473,-0.00
 007598,-0.00128207,0.00035539,-0.00334632,0.22307476,-0.07164164,-0.09
 039460,0.04999264,-0.02504872,-0.00601550,0.01788912,0.00017992,-0.005
 63394,-0.00023621,0.00062181,-0.00077824,-0.00037490,0.00154152,-0.002
 32002,-0.00218685,0.01802779,0.01099839,-0.01223862,0.00081993,0.00025
 226,-0.00043596,-0.00012897,-0.00001111,-0.00023466,-0.00107464,-0.000
 41093,0.00099694,0.00044596,0.00108080,-0.00032813,0.00000353,-0.00045
 730,0.00005280,-0.00006898,0.00015055,0.00001530,0.00007404,0.00057380
 ,0.00002523,-0.00015093,0.00099154,0.00047804,0.07639939,0.09197428,0.
 12517784,0.04902522,-0.12686134,0.00121355,0.00015188,0.00146364,0.001
 69062,-0.00004832,0.00387575,-0.00041282,-0.00079744,-0.00017003,0.004
 72860,-0.00165158,0.00585999,0.01168022,0.00645578,-0.00437378,-0.0001
 2059,-0.00039917,0.00043922,0.00084733,0.00042811,-0.00098836,0.000089
 40,-0.00011713,0.00014974,-0.00151419,0.00026615,-0.00142456,0.0000620
 6,-0.00001702,0.00002573,-0.00041411,-0.00005349,-0.00053279,0.0001194
 0,0.00010430,0.00014940,-0.00321096,0.00006746,-0.00342236,-0.13993636
 ,-0.05341473,0.12580974\\0.00000555,0.00001243,0.00000888,-0.00002174,
 -0.00001869,0.00002103,0.00006521,-0.00002133,-0.00002032,-0.00004296,
 0.00002048,-0.00000316,0.00004409,-0.00001312,0.00002610,-0.00000506,-
 0.00000074,0.00000062,0.00000790,-0.00000564,0.00000244,-0.00004011,0.
 00001123,-0.00003843,-0.00000288,0.00000093,-0.00000222,-0.00000124,-0
 .00000152,0.00000092,0.00000967,-0.00005285,0.00000922,0.00000175,0.00
 000473,0.00000646,-0.00001523,0.00006431,-0.00000268,-0.00000629,0.000
 00007,-0.00001030,0.00000134,-0.00000029,0.00000146\\\@


 DEMOCRATS BUY MOST OF THE BOOKS THAT HAVE BEEN
 BANNED; REPUBLICANS FORM CENSORSHIP COMMITTEES AND
 READ THEM AS A GROUP.
 Job cpu time:       0 days  2 hours 57 minutes 50.5 seconds.
 Elapsed time:       0 days  0 hours  7 minutes 25.6 seconds.
 File lengths (MBytes):  RWF=    280 Int=      0 D2E=      0 Chk=     14 Scr=      1
 Normal termination of Gaussian 16 at Wed Jul 27 22:31:29 2022.
