
 Primary working directories    : /home/saurabh/molpro_temp2
 Secondary working directories  : /home/saurabh/molpro_temp2
 Wavefunction directory         : /home/saurabh/molpro_wfn2/
 Main file repository           : /home/saurabh/molpro_temp2/

 SHA1      : f6387f0c468d0184d0b38d85973bdb066f718752
 NAME      : 2015.1.44
 ARCHNAME  : linux/x86_64
 FC        : /opt/may/bin/gfortran
 BLASLIB   : -Wl,-_start-group /opt/intel/mkl/lib/intel64/libmkl_gf_ilp64.a /opt/intel/mkl/lib/intel64/libmkl_gnu_thread.a /opt/intel/mkl/lib/intel64/libmkl_core.a -Wl,-_end-group
 id        : ramakrishnan

 Nodes                 nprocs
 mediawiki.tifrh.res.in    8

 Using customized tuning parameters: mindgm=1; mindgv=20; mindgc=4; mindgr=1; noblas=0; minvec=7
 default implementation of scratch files=sf  

 ***,Mol_04
 memory,1,g
 geometry={
 C  0.731430   -0.371702  0.000000
 C  -0.731430  -0.371702  -0.000000
 O  -0.000000  0.853606   -0.000000
 H  1.266004   -0.592106  -0.918210
 H  1.266004   -0.592106  0.918209
 H  -1.266003  -0.592106  0.918210
 H  -1.266004  -0.592106  -0.918209
  }
 basis,O=AVTZ,C=AVTZ,H=VTZ
 hf;
 ccsd(t);
 

 Variables initialized (889), CPU time= 0.01 sec
 Commands  initialized (702), CPU time= 0.02 sec, 572 directives.
 Default parameters read. Elapsed time= 0.06 sec

 Checking input...
 Passed
1


                                         ***  PROGRAM SYSTEM MOLPRO  ***
                                       Copyright, TTI GmbH Stuttgart, 2015
                                    Version 2015.1 linked Jun  9 2019 06:55:40


 **********************************************************************************************************************************
 LABEL *   Mol_04                                                                        
  64 bit mpp version                                                                     DATE: 20-Jun-22          TIME: 15:40:13  
 **********************************************************************************************************************************

 SHA1:             f6387f0c468d0184d0b38d85973bdb066f718752
 **********************************************************************************************************************************

Geometry recognized as XYZ


 Variable memory set to 1000000000 words,  buffer space   230000 words

 SETTING BASIS          =    O=AVTZ,C=AVTZ,H=VTZ


 Recomputing integrals since basis changed


 Using spherical harmonics

 Library entry C      S aug-cc-pVTZ          selected for orbital group  1
 Library entry C      P aug-cc-pVTZ          selected for orbital group  1
 Library entry C      D aug-cc-pVTZ          selected for orbital group  1
 Library entry C      F aug-cc-pVTZ          selected for orbital group  1
 Library entry O      S aug-cc-pVTZ          selected for orbital group  2
 Library entry O      P aug-cc-pVTZ          selected for orbital group  2
 Library entry O      D aug-cc-pVTZ          selected for orbital group  2
 Library entry O      F aug-cc-pVTZ          selected for orbital group  2
 Library entry H      S cc-pVTZ              selected for orbital group  3
 Library entry H      P cc-pVTZ              selected for orbital group  3
 Library entry H      D cc-pVTZ              selected for orbital group  3


 PROGRAM * SEWARD (Integral evaluation for generally contracted gaussian basis sets)     Author: Roland Lindh, 1990

 Geometry written to block  1 of record 700


 Point group  C1  



 ATOMIC COORDINATES

 NR  ATOM    CHARGE       X              Y              Z

   1  C       6.00    1.382202379   -0.702414980    0.000000000
   2  C       6.00   -1.382202379   -0.702414980   -0.000000000
   3  O       8.00   -0.000000000    1.613081558   -0.000000000
   4  H       1.00    2.392400833   -1.118918177   -1.735165425
   5  H       1.00    2.392400833   -1.118918177    1.735163535
   6  H       1.00   -2.392398943   -1.118918177    1.735165425
   7  H       1.00   -2.392400833   -1.118918177   -1.735163535

 Bond lengths in Bohr (Angstrom)

 1-2  2.764404759  1-3  2.696666022  1-4  2.050554774  1-5  2.050553175  2-3  2.696666022
     ( 1.462860000)     ( 1.427014204)     ( 1.085106856)     ( 1.085106010)     ( 1.427014204)

 2-6  2.050553843  2-7  2.050553175
     ( 1.085106363)     ( 1.085106010)

 Bond angles

  1-2-3   59.16551773   1-2-6  119.51462557   1-2-7  119.51469681   1-3-2   61.66896454

  2-1-3   59.16551773   2-1-4  119.51467152   2-1-5  119.51469681   3-1-4  115.27210917

  3-1-5  115.27213026   3-2-6  115.27209152   3-2-7  115.27213026   4-1-5  115.59997067

  6-2-7  115.60001198

 NUCLEAR CHARGE:                   24
 NUMBER OF PRIMITIVE AOS:         269
 NUMBER OF SYMMETRY AOS:          238
 NUMBER OF CONTRACTIONS:          194   ( 194A   )
 NUMBER OF CORE ORBITALS:           3   (   3A   )
 NUMBER OF VALENCE ORBITALS:       16   (  16A   )


 NUCLEAR REPULSION ENERGY   75.35823258


 Eigenvalues of metric

         1 0.336E-04 0.120E-03 0.397E-03 0.413E-03 0.573E-03 0.637E-03 0.709E-03 0.990E-03


 Contracted 2-electron integrals neglected if value below      1.0D-12
 AO integral compression algorithm  1   Integral accuracy      1.0D-12

     842.269 MB (compressed) written to integral file ( 51.1%)

     Node minimum: 93.848 MB, node maximum: 122.159 MB


 NUMBER OF SORTED TWO-ELECTRON INTEGRALS:   22363440.     BUFFER LENGTH:  32768
 NUMBER OF SEGMENTS:   2  SEGMENT LENGTH:   15992000      RECORD LENGTH: 524288

 Memory used in sort:      16.55 MW

 SORT1 READ   205804405. AND WROTE    19026054. INTEGRALS IN     55 RECORDS. CPU TIME:     2.34 SEC, REAL TIME:     2.58 SEC
 SORT2 READ   152218020. AND WROTE   178898070. INTEGRALS IN   2976 RECORDS. CPU TIME:     0.37 SEC, REAL TIME:     0.54 SEC

 Node minimum:    22353984.  Node maximum:    22370535. integrals

 OPERATOR DM      FOR CENTER  0  COORDINATES:    0.000000    0.000000    0.000000


 **********************************************************************************************************************************
 DATASETS  * FILE   NREC   LENGTH (MB)   RECORD NAMES
              1      18       21.38       500      610      700      900      950      970     1000      129      960     1100   
                                          VAR    BASINP    GEOM    SYMINP    ZMAT    AOBASIS   BASIS     P2S    ABASIS      S 
                                         1400     1410     1200     1210     1080     1600     1650     1700   
                                           T        V       H0       H01     AOSYM     SMH    MOLCAS    OPER   

 PROGRAMS   *        TOTAL       INT
 CPU TIMES  *         3.90      3.76
 REAL TIME  *         4.96 SEC
 DISK USED  *         2.66 GB      
 GA USED    *         0.00 MB       (max)       0.00 MB       (current)
 **********************************************************************************************************************************


 PROGRAM * RHF-SCF (CLOSED SHELL)       Authors: W. Meyer, H.-J. Werner


 NUMBER OF ELECTRONS:      12+   12-    SPACE SYMMETRY=1    SPIN SYMMETRY: Singlet 
 CONVERGENCE THRESHOLDS:    1.00E-05 (Density)    1.00E-07 (Energy)
 MAX. NUMBER OF ITERATIONS:       60
 INTERPOLATION TYPE:            DIIS
 INTERPOLATION STEPS:              2 (START)      1 (STEP)
 LEVEL SHIFTS:                  0.00 (CLOSED)  0.00 (OPEN) 



 Orbital guess generated from atomic densities. Full valence occupancy:   19

 Molecular orbital dump at record        2100.2

 Initial occupancy:  12

 ITERATION    DDIFF          GRAD             ENERGY        2-EL.EN.            DIPOLE MOMENTS         DIIS   ORB.
    1      0.000D+00      0.000D+00      -152.89522814    257.733017    0.00000   -1.17720   -0.00000    0    start
    2      0.000D+00      0.383D-02      -152.92110442    257.298731   -0.00000   -0.67602    0.00000    1    diag
    3      0.423D-02      0.207D-02      -152.92766233    257.852548   -0.00000   -0.90173    0.00000    2    diag
    4      0.157D-02      0.587D-03      -152.92836820    257.626137   -0.00000   -0.86168    0.00000    3    diag
    5      0.481D-03      0.974D-04      -152.92840136    257.708118   -0.00000   -0.86735    0.00000    4    diag
    6      0.104D-03      0.301D-04      -152.92840391    257.683644   -0.00000   -0.86747    0.00000    5    diag
    7      0.279D-04      0.617D-05      -152.92840415    257.685636   -0.00000   -0.86785    0.00000    6    diag
    8      0.981D-05      0.167D-05      -152.92840417    257.685463   -0.00000   -0.86799    0.00000    7    diag
    9      0.268D-05      0.431D-06      -152.92840417    257.685370   -0.00000   -0.86797    0.00000    0    orth

 Final occupancy:  12

 !RHF STATE 1.1 Energy               -152.928404167634
 Nuclear energy                        75.35823258
 One-electron energy                 -357.12932150
 Two-electron energy                  128.84268475
 Virial quotient                       -1.00170890
 !RHF STATE 1.1 Dipole moment          -0.00000006    -0.86797217     0.00000009
 Dipole moment /Debye                  -0.00000014    -2.20602070     0.00000022

 Orbital energies:

         1.1          2.1          3.1          4.1          5.1          6.1          7.1          8.1          9.1         10.1
    -20.572944   -11.286340   -11.285530    -1.413036    -0.934485    -0.863114    -0.705944    -0.662368    -0.550192    -0.543356

        11.1         12.1         13.1         14.1
     -0.452632    -0.452036     0.052946     0.060341

 HOMO     12.1    -0.452036 =     -12.3005eV
 LUMO     13.1     0.052946 =       1.4407eV
 LUMO-HOMO         0.504982 =      13.7413eV


 **********************************************************************************************************************************
 DATASETS  * FILE   NREC   LENGTH (MB)   RECORD NAMES
              1      18       21.38       500      610      700      900      950      970     1000      129      960     1100   
                                          VAR    BASINP    GEOM    SYMINP    ZMAT    AOBASIS   BASIS     P2S    ABASIS      S 
                                         1400     1410     1200     1210     1080     1600     1650     1700   
                                           T        V       H0       H01     AOSYM     SMH    MOLCAS    OPER   

              2       4        3.63       700     1000      520     2100   
                                         GEOM     BASIS   MCVARS     RHF  

 PROGRAMS   *        TOTAL        HF       INT
 CPU TIMES  *         5.85      1.95      3.76
 REAL TIME  *         7.11 SEC
 DISK USED  *         2.88 GB      
 SF USED    *         0.15 MB      
 GA USED    *         0.00 MB       (max)       0.00 MB       (current)
 **********************************************************************************************************************************


 PROGRAM * CCSD (Closed-shell coupled cluster)     Authors: C. Hampel, H.-J. Werner, 1991, M. Deegan, P.J. Knowles, 1992


 Convergence thresholds:  THRVAR = 1.00D-08  THRDEN = 1.00D-06

 CCSD(T)     terms to be evaluated (factor= 1.000)


 Number of core orbitals:           3 (   3 )
 Number of closed-shell orbitals:   9 (   9 )
 Number of external orbitals:     182 ( 182 )

 Molecular orbitals read from record     2100.2  Type=RHF/CANONICAL (state 1.1)

 Number of N-1 electron functions:               9
 Number of N-2 electron functions:              45
 Number of singly external CSFs:              1638
 Number of doubly external CSFs:           1342341
 Total number of CSFs:                     1343980

 Length of J-op  integral file:               0.00 MB
 Length of K-op  integral file:               2.60 MB
 Length of 3-ext integral record:             0.00 MB

 Memory could be reduced to 73.41 Mwords without degradation in triples

 Integral transformation finished. Total CPU:   4.20 sec, npass=  1  Memory used:  40.37 MW

 Reference energy:                   -152.92840417

 MP2 singlet pair energy:              -0.37515790
 MP2 triplet pair energy:              -0.20880817
 MP2 correlation energy:               -0.58396607
 MP2 total energy:                   -153.51237024

 SCS-MP2 correlation energy:           -0.58011456   (PS=  1.200000  PT=  0.333333)
 SCS-MP2 total energy:               -153.50851873

 ITER.      SQ.NORM     CORR.ENERGY   TOTAL ENERGY   ENERGY CHANGE        DEN1      VAR(S)    VAR(P)  DIIS     TIME  TIME/IT
   1      1.16883025    -0.60041291  -153.52881708    -0.01644684     0.00002414  0.28D-02  0.32D-02  1  1     5.32     1.16
   2      1.18082028    -0.60135673  -153.52976089    -0.00094381    -0.01404118  0.35D-04  0.42D-03  2  2     6.51     1.22
   3      1.18527548    -0.60145457  -153.52985874    -0.00009784    -0.00269264  0.33D-04  0.21D-04  3  3     7.73     1.26
   4      1.18652101    -0.60139264  -153.52979681     0.00006193    -0.00060069  0.12D-05  0.27D-05  4  4     8.93     1.27
   5      1.18685846    -0.60140473  -153.52980890    -0.00001209    -0.00010143  0.30D-06  0.17D-06  5  5    10.14     1.28
   6      1.18693125    -0.60139759  -153.52980176     0.00000714    -0.00001642  0.28D-07  0.15D-07  6  6    11.34     1.29
   7      1.18694333    -0.60139614  -153.52980031     0.00000145    -0.00000180  0.39D-08  0.22D-08  6  2    12.55     1.29
   8      1.18694603    -0.60139597  -153.52980014     0.00000017     0.00000009  0.75D-09  0.25D-09  6  1    13.76     1.29
   9      1.18694746    -0.60139577  -153.52979993     0.00000020     0.00000005  0.75D-10  0.36D-10  6  3    14.96     1.30

 Norm of t1 vector:      0.06717950      S-energy:    -0.00000002      T1 diagnostic:  0.01119658
                                                                       D1 diagnostic:  0.02780485


 Total CPU time for triples:     18.84 sec


 RESULTS
 =======

  Reference energy                   -152.928404167634
  CCSD singlet pair energy             -0.414358130195
  CCSD triplet pair energy             -0.187037618129
  CCSD correlation energy              -0.601395765166

  Triples (T) contribution             -0.025253550228
  Total correlation energy             -0.626649315394

  CCSD total energy                  -153.529799932800
  CCSD[T] energy                     -153.556023074542
  CCSD-T energy                      -153.554582812630
 !CCSD(T) total energy               -153.555053483028

 Timing summary (sec):

 STEP                 CPU(USER)    SYS     CPU(TOT)    WALL
 Transformation          4.21      0.48      4.69      4.70
 CCSD iterations        10.76      0.92     11.68     11.69
 Triples                18.84      0.35     19.19     19.18

 Program statistics:

 Available memory in ccsd:               999999576
 Min. memory needed in ccsd:               3856917
 Max. memory used in ccsd:                 5016855
 Max. memory used in cckext:               3722672 ( 9 integral passes)



 **********************************************************************************************************************************
 DATASETS  * FILE   NREC   LENGTH (MB)   RECORD NAMES
              1      19      260.64       500      610      700      900      950      970     1000      129      960     1100   
                                          VAR    BASINP    GEOM    SYMINP    ZMAT    AOBASIS   BASIS     P2S    ABASIS      S 
                                         1400     1410     1200     1210     1080     1600     1650     1700     1380   
                                           T        V       H0       H01     AOSYM     SMH    MOLCAS    OPER     JKOP   

              2       4        3.63       700     1000      520     2100   
                                         GEOM     BASIS   MCVARS     RHF  

 PROGRAMS   *        TOTAL   CCSD(T)        HF       INT
 CPU TIMES  *        39.69     33.83      1.95      3.76
 REAL TIME  *        42.79 SEC
 DISK USED  *         3.26 GB      
 SF USED    *       360.54 MB      
 GA USED    *         0.00 MB       (max)       0.00 MB       (current)
 **********************************************************************************************************************************

 CCSD(T)/O=AVTZ,C=AVTZ,H=VTZ energy=   -153.555053483028

        CCSD(T)         HF-SCF  
   -153.55505348   -152.92840417
 **********************************************************************************************************************************
 Molpro calculation terminated
 Variable memory released
