
 Primary working directories    : /home/saurabh/molpro_temp2
 Secondary working directories  : /home/saurabh/molpro_temp2
 Wavefunction directory         : /home/saurabh/molpro_wfn2/
 Main file repository           : /home/saurabh/molpro_temp2/

 SHA1      : f6387f0c468d0184d0b38d85973bdb066f718752
 NAME      : 2015.1.44
 ARCHNAME  : linux/x86_64
 FC        : /opt/may/bin/gfortran
 BLASLIB   : -Wl,-_start-group /opt/intel/mkl/lib/intel64/libmkl_gf_ilp64.a /opt/intel/mkl/lib/intel64/libmkl_gnu_thread.a /opt/intel/mkl/lib/intel64/libmkl_core.a -Wl,-_end-group
 id        : ramakrishnan

 Nodes                 nprocs
 mediawiki.tifrh.res.in    8

 Using customized tuning parameters: mindgm=1; mindgv=20; mindgc=4; mindgr=1; noblas=0; minvec=7
 default implementation of scratch files=sf  

 ***,Mol_05
 memory,1,g
 geometry={
 C  0.000000   -0.661966  -0.000000
 C  0.000000   0.661966   0.000000
 H  -0.920567  -1.231546  0.000000
 H  0.920567   -1.231546  -0.000000
 H  -0.920567  1.231546   0.000000
 H  0.920567   1.231546   -0.000000
  }
 basis,O=AVDZ,C=AVDZ,H=VDZ
 hf;
 ccsd(t);
 

 Variables initialized (889), CPU time= 0.01 sec
 Commands  initialized (702), CPU time= 0.02 sec, 572 directives.
 Default parameters read. Elapsed time= 0.06 sec

 Checking input...
 Passed
1


                                         ***  PROGRAM SYSTEM MOLPRO  ***
                                       Copyright, TTI GmbH Stuttgart, 2015
                                    Version 2015.1 linked Jun  9 2019 06:55:40


 **********************************************************************************************************************************
 LABEL *   Mol_05                                                                        
  64 bit mpp version                                                                     DATE: 20-Jun-22          TIME: 15:37:18  
 **********************************************************************************************************************************

 SHA1:             f6387f0c468d0184d0b38d85973bdb066f718752
 **********************************************************************************************************************************

Geometry recognized as XYZ


 Variable memory set to 1000000000 words,  buffer space   230000 words

 SETTING BASIS          =    O=AVDZ,C=AVDZ,H=VDZ


 Recomputing integrals since basis changed


 Using spherical harmonics

 Library entry C      S aug-cc-pVDZ          selected for orbital group  1
 Library entry C      P aug-cc-pVDZ          selected for orbital group  1
 Library entry C      D aug-cc-pVDZ          selected for orbital group  1
 Library entry H      S cc-pVDZ              selected for orbital group  2
 Library entry H      P cc-pVDZ              selected for orbital group  2


 PROGRAM * SEWARD (Integral evaluation for generally contracted gaussian basis sets)     Author: Roland Lindh, 1990

 Geometry written to block  1 of record 700


 Point group  D2h 



 ATOMIC COORDINATES

 NR  ATOM    CHARGE       X              Y              Z

   1  C       6.00    0.000000000   -1.250934444    0.000000000
   2  C       6.00    0.000000000    1.250934444    0.000000000
   3  H       1.00   -1.739619509   -2.327284650    0.000000000
   4  H       1.00    1.739619509   -2.327284650    0.000000000
   5  H       1.00   -1.739619509    2.327284650    0.000000000
   6  H       1.00    1.739619509    2.327284650    0.000000000

 Bond lengths in Bohr (Angstrom)

 1-2  2.501868888  1-3  2.045679790  1-4  2.045679790  2-5  2.045679790  2-6  2.045679790
     ( 1.323932000)     ( 1.082527126)     ( 1.082527126)     ( 1.082527126)     ( 1.082527126)

 Bond angles

  1-2-5  121.74621287   1-2-6  121.74621287   2-1-3  121.74621287   2-1-4  121.74621287

  3-1-4  116.50757426   5-2-6  116.50757426

 NUCLEAR CHARGE:                   16
 NUMBER OF PRIMITIVE AOS:         102
 NUMBER OF SYMMETRY AOS:           98
 NUMBER OF CONTRACTIONS:           66   (  15Ag  +   9B3u +  15B2u +   9B1g +   6B1u +   3B2g +   6B3g +   3Au  )
 NUMBER OF CORE ORBITALS:           2   (   1Ag  +   0B3u +   1B2u +   0B1g +   0B1u +   0B2g +   0B3g +   0Au  )
 NUMBER OF VALENCE ORBITALS:       12   (   3Ag  +   2B3u +   3B2u +   2B1g +   1B1u +   0B2g +   1B3g +   0Au  )


 NUCLEAR REPULSION ENERGY   33.50211592

 Eigenvalues of metric

         1 0.771E-02 0.193E-01 0.347E-01 0.621E-01 0.923E-01 0.248E+00 0.359E+00 0.511E+00
         2 0.104E-01 0.383E-01 0.898E-01 0.333E+00 0.742E+00 0.768E+00 0.133E+01 0.219E+01
         3 0.167E-03 0.331E-03 0.895E-02 0.332E-01 0.483E-01 0.796E-01 0.184E+00 0.268E+00
         4 0.643E-02 0.844E-02 0.265E-01 0.624E-01 0.159E+00 0.239E+00 0.106E+01 0.119E+01
         5 0.144E+00 0.379E+00 0.559E+00 0.114E+01 0.193E+01 0.411E+01
         6 0.509E+00 0.705E+00 0.258E+01
         7 0.113E-01 0.696E-01 0.266E+00 0.351E+00 0.613E+00 0.245E+01
         8 0.212E+00 0.371E+00 0.160E+01


 Contracted 2-electron integrals neglected if value below      1.0D-11
 AO integral compression algorithm  1   Integral accuracy      1.0D-11

     4.194 MB (compressed) written to integral file ( 81.8%)

     Node minimum: 0.524 MB, node maximum: 0.524 MB


 NUMBER OF SORTED TWO-ELECTRON INTEGRALS:      43023.     BUFFER LENGTH:  32768
 NUMBER OF SEGMENTS:   1  SEGMENT LENGTH:      43023      RECORD LENGTH: 524288

 Memory used in sort:       0.60 MW

 SORT1 READ      593376. AND WROTE       43023. INTEGRALS IN      1 RECORDS. CPU TIME:     0.02 SEC, REAL TIME:     0.04 SEC
 SORT2 READ      342849. AND WROTE      342849. INTEGRALS IN     16 RECORDS. CPU TIME:     0.00 SEC, REAL TIME:     0.01 SEC

 Node minimum:       37444.  Node maximum:       47378. integrals

 OPERATOR DM      FOR CENTER  0  COORDINATES:    0.000000    0.000000    0.000000


 **********************************************************************************************************************************
 DATASETS  * FILE   NREC   LENGTH (MB)   RECORD NAMES
              1      18       19.99       500      610      700      900      950      970     1000      129      960     1100   
                                          VAR    BASINP    GEOM    SYMINP    ZMAT    AOBASIS   BASIS     P2S    ABASIS      S 
                                         1400     1410     1200     1210     1080     1600     1650     1700   
                                           T        V       H0       H01     AOSYM     SMH    MOLCAS    OPER   

 PROGRAMS   *        TOTAL       INT
 CPU TIMES  *         0.37      0.24
 REAL TIME  *         0.88 SEC
 DISK USED  *        35.98 MB      
 GA USED    *         0.00 MB       (max)       0.00 MB       (current)
 **********************************************************************************************************************************


 PROGRAM * RHF-SCF (CLOSED SHELL)       Authors: W. Meyer, H.-J. Werner


 NUMBER OF ELECTRONS:       8+    8-
 CONVERGENCE THRESHOLDS:    1.00E-05 (Density)    1.00E-07 (Energy)
 MAX. NUMBER OF ITERATIONS:       60
 INTERPOLATION TYPE:            DIIS
 INTERPOLATION STEPS:              2 (START)      1 (STEP)
 LEVEL SHIFTS:                  0.00 (CLOSED)  0.00 (OPEN) 



 Orbital guess generated from atomic densities. Full valence occupancy:    4   2   4   2   1   0   1   0


 Molecular orbital dump at record        2100.2

 Initial occupancy:   3   1   2   1   1   0   0   0

 ITERATION    DDIFF          GRAD             ENERGY        2-EL.EN.            DIPOLE MOMENTS         DIIS   ORB.
    1      0.000D+00      0.000D+00       -78.01988763    118.399764    0.00000    0.00000    0.00000    0    start
    2      0.000D+00      0.129D-01       -78.04029499    116.928615    0.00000    0.00000    0.00000    1    diag
    3      0.252D-01      0.444D-02       -78.04242275    117.518763    0.00000    0.00000    0.00000    2    diag
    4      0.793D-02      0.131D-02       -78.04272100    117.380648    0.00000    0.00000    0.00000    3    diag
    5      0.282D-02      0.159D-03       -78.04272617    117.387689    0.00000    0.00000    0.00000    4    diag
    6      0.374D-03      0.244D-04       -78.04272635    117.386972    0.00000    0.00000    0.00000    5    diag
    7      0.579D-04      0.568D-05       -78.04272636    117.386964    0.00000    0.00000    0.00000    6    diag
    8      0.156D-04      0.839D-06       -78.04272636    117.386977    0.00000    0.00000    0.00000    7    diag
    9      0.274D-05      0.900D-07       -78.04272636    117.386976    0.00000    0.00000    0.00000    0    orth

 Final occupancy:   3   1   2   1   1   0   0   0

 !RHF STATE 1.1 Energy                -78.042726360737
 Nuclear energy                        33.50211592
 One-electron energy                 -170.23833013
 Two-electron energy                   58.69348784
 Virial quotient                       -1.00139854
 !RHF STATE 1.1 Dipole moment           0.00000000     0.00000000     0.00000000
 Dipole moment /Debye                   0.00000000     0.00000000     0.00000000

 Orbital energies:

         1.1          2.1          3.1          4.1          5.1
    -11.238777    -1.038888    -0.590228     0.087317     0.141948

         1.2          2.2          3.2
     -0.643576     0.098441     0.303963

         1.3          2.3          3.3          4.3
    -11.237033    -0.793537     0.067458     0.229921

         1.4          2.4          3.4
     -0.504799     0.124613     0.408924

         1.5          2.5          3.5
     -0.378839     0.122532     0.537725

         1.6          2.6
      0.394632     1.489660

         1.7          2.7
      0.103012     0.217834

         1.8          2.8
      0.546133     1.649986

 HOMO      1.5    -0.378839 =     -10.3087eV
 LUMO      3.3     0.067458 =       1.8356eV
 LUMO-HOMO         0.446297 =      12.1444eV


 **********************************************************************************************************************************
 DATASETS  * FILE   NREC   LENGTH (MB)   RECORD NAMES
              1      18       19.99       500      610      700      900      950      970     1000      129      960     1100   
                                          VAR    BASINP    GEOM    SYMINP    ZMAT    AOBASIS   BASIS     P2S    ABASIS      S 
                                         1400     1410     1200     1210     1080     1600     1650     1700   
                                           T        V       H0       H01     AOSYM     SMH    MOLCAS    OPER   

              2       4        2.85       700     1000      520     2100   
                                         GEOM     BASIS   MCVARS     RHF  

 PROGRAMS   *        TOTAL        HF       INT
 CPU TIMES  *         0.38      0.01      0.24
 REAL TIME  *         0.92 SEC
 DISK USED  *       219.52 MB      
 SF USED    *         0.00 MB      
 GA USED    *         0.00 MB       (max)       0.00 MB       (current)
 **********************************************************************************************************************************


 PROGRAM * CCSD (Closed-shell coupled cluster)     Authors: C. Hampel, H.-J. Werner, 1991, M. Deegan, P.J. Knowles, 1992


 Convergence thresholds:  THRVAR = 1.00D-08  THRDEN = 1.00D-06

 CCSD(T)     terms to be evaluated (factor= 1.000)


 Number of core orbitals:           2 (   1   0   1   0   0   0   0   0 )
 Number of closed-shell orbitals:   6 (   2   1   1   1   1   0   0   0 )
 Number of external orbitals:      58 (  12   8  13   8   5   3   6   3 )

 Molecular orbitals read from record     2100.2  Type=RHF/CANONICAL (state 1.1)

 Number of N-1 electron functions:               6
 Number of N-2 electron functions:              21
 Number of singly external CSFs:                58
 Number of doubly external CSFs:              8370
 Total number of CSFs:                        8429

 Length of J-op  integral file:               0.00 MB
 Length of K-op  integral file:               0.05 MB
 Length of 3-ext integral record:             0.00 MB

 Memory could be reduced to 0.54 Mwords without degradation in triples

 Integral transformation finished. Total CPU:   0.00 sec, npass=  1  Memory used:   0.15 MW

 Reference energy:                    -78.04272636

 MP2 singlet pair energy:              -0.18864981
 MP2 triplet pair energy:              -0.09339378
 MP2 correlation energy:               -0.28204360
 MP2 total energy:                    -78.32476996

 SCS-MP2 correlation energy:           -0.28449146   (PS=  1.200000  PT=  0.333333)
 SCS-MP2 total energy:                -78.32721782

 ITER.      SQ.NORM     CORR.ENERGY   TOTAL ENERGY   ENERGY CHANGE        DEN1      VAR(S)    VAR(P)  DIIS     TIME  TIME/IT
   1      1.12105962    -0.30854848   -78.35127484    -0.02650488    -0.01755909  0.99D-03  0.21D-02  1  1     0.02     0.01
   2      1.13341258    -0.31119383   -78.35392019    -0.00264534    -0.00980437  0.26D-04  0.25D-03  2  2     0.02     0.01
   3      1.13720047    -0.31140732   -78.35413368    -0.00021349    -0.00153162  0.11D-04  0.27D-04  3  3     0.03     0.01
   4      1.13891361    -0.31146242   -78.35418878    -0.00005510    -0.00045607  0.62D-06  0.22D-05  4  4     0.03     0.01
   5      1.13926148    -0.31146191   -78.35418827     0.00000050    -0.00006187  0.62D-07  0.14D-06  5  5     0.04     0.01
   6      1.13930085    -0.31146018   -78.35418654     0.00000174    -0.00000500  0.54D-08  0.73D-08  6  6     0.04     0.01
   7      1.13930582    -0.31146060   -78.35418696    -0.00000043     0.00000020  0.50D-09  0.55D-09  6  1     0.05     0.01
   8      1.13930562    -0.31146071   -78.35418707    -0.00000010     0.00000064  0.55D-10  0.34D-10  6  2     0.05     0.01

 Norm of t1 vector:      0.04920421      S-energy:    -0.00000012      T1 diagnostic:  0.01004377
                                                                       D1 diagnostic:  0.02831422

 Doubles amplitudes (print threshold =  0.500E-01):

         I         J         SYM. A    SYM. B    A         B      T(IJ, AB)

         6         6         7         7         1         2      0.06284905
         6         6         7         7         2         1      0.06284905
         6         6         7         7         2         2     -0.08455277


 Total CPU time for triples:      0.01 sec


 RESULTS
 =======

  Reference energy                    -78.042726360737
  CCSD singlet pair energy             -0.225383928830
  CCSD triplet pair energy             -0.086076656478
  CCSD correlation energy              -0.311460706527

  Triples (T) contribution             -0.010803014222
  Total correlation energy             -0.322263720748

  CCSD total energy                   -78.354187067263
  CCSD[T] energy                      -78.365243259818
  CCSD-T energy                       -78.364887449403
 !CCSD(T) total energy                -78.364990081485

 Timing summary (sec):

 STEP                 CPU(USER)    SYS     CPU(TOT)    WALL
 CCSD iterations         0.05      0.02      0.07      0.06
 Triples                 0.01      0.00      0.01      0.01

 Program statistics:

 Available memory in ccsd:               999999756
 Min. memory needed in ccsd:                 34530
 Max. memory used in ccsd:                   41140
 Max. memory used in cckext:                 66968 ( 8 integral passes)



 **********************************************************************************************************************************
 DATASETS  * FILE   NREC   LENGTH (MB)   RECORD NAMES
              1      19       20.83       500      610      700      900      950      970     1000      129      960     1100   
                                          VAR    BASINP    GEOM    SYMINP    ZMAT    AOBASIS   BASIS     P2S    ABASIS      S 
                                         1400     1410     1200     1210     1080     1600     1650     1700     1380   
                                           T        V       H0       H01     AOSYM     SMH    MOLCAS    OPER     JKOP   

              2       4        2.85       700     1000      520     2100   
                                         GEOM     BASIS   MCVARS     RHF  

 PROGRAMS   *        TOTAL   CCSD(T)        HF       INT
 CPU TIMES  *         0.48      0.09      0.01      0.24
 REAL TIME  *         1.05 SEC
 DISK USED  *       221.31 MB      
 SF USED    *         1.69 MB      
 GA USED    *         0.00 MB       (max)       0.00 MB       (current)
 **********************************************************************************************************************************

 CCSD(T)/O=AVDZ,C=AVDZ,H=VDZ energy=    -78.364990081485

        CCSD(T)         HF-SCF  
    -78.36499008    -78.04272636
 **********************************************************************************************************************************
 Molpro calculation terminated
 Variable memory released
