
 Primary working directories    : /home/saurabh/molpro_temp2
 Secondary working directories  : /home/saurabh/molpro_temp2
 Wavefunction directory         : /home/saurabh/molpro_wfn2/
 Main file repository           : /home/saurabh/molpro_temp2/

 SHA1      : f6387f0c468d0184d0b38d85973bdb066f718752
 NAME      : 2015.1.44
 ARCHNAME  : linux/x86_64
 FC        : /opt/may/bin/gfortran
 BLASLIB   : -Wl,-_start-group /opt/intel/mkl/lib/intel64/libmkl_gf_ilp64.a /opt/intel/mkl/lib/intel64/libmkl_gnu_thread.a /opt/intel/mkl/lib/intel64/libmkl_core.a -Wl,-_end-group
 id        : ramakrishnan

 Nodes                 nprocs
 mediawiki.tifrh.res.in    8

 Using customized tuning parameters: mindgm=1; mindgv=20; mindgc=4; mindgr=1; noblas=0; minvec=7
 default implementation of scratch files=sf  

 ***,Mol_01
 memory,1,g
 geometry={
 C  0.691636   -0.000000  -0.002049
 C  -0.792081  0.000000   -0.017585
 H  1.103759   -0.884476  -0.491892
 H  1.091851   0.000004   1.022920
 H  1.103759   0.884472   -0.491898
 H  -1.348350  -0.924419  0.039336
 H  -1.348349  0.924419   0.039336
  }
 basis,O=AVTZ,C=AVTZ,H=VTZ
 {rhf
 wf,17,1,1
 }
 uccsd(t);
 

 Variables initialized (889), CPU time= 0.01 sec
 Commands  initialized (702), CPU time= 0.01 sec, 572 directives.
 Default parameters read. Elapsed time= 0.05 sec

 Checking input...
 Passed
1


                                         ***  PROGRAM SYSTEM MOLPRO  ***
                                       Copyright, TTI GmbH Stuttgart, 2015
                                    Version 2015.1 linked Jun  9 2019 06:55:40


 **********************************************************************************************************************************
 LABEL *   Mol_01                                                                        
  64 bit mpp version                                                                     DATE: 20-Jun-22          TIME: 15:39:13  
 **********************************************************************************************************************************

 SHA1:             f6387f0c468d0184d0b38d85973bdb066f718752
 **********************************************************************************************************************************

Geometry recognized as XYZ


 Variable memory set to 1000000000 words,  buffer space   230000 words

 SETTING BASIS          =    O=AVTZ,C=AVTZ,H=VTZ


 Recomputing integrals since basis changed


 Using spherical harmonics

 Library entry C      S aug-cc-pVTZ          selected for orbital group  1
 Library entry C      P aug-cc-pVTZ          selected for orbital group  1
 Library entry C      D aug-cc-pVTZ          selected for orbital group  1
 Library entry C      F aug-cc-pVTZ          selected for orbital group  1
 Library entry H      S cc-pVTZ              selected for orbital group  2
 Library entry H      P cc-pVTZ              selected for orbital group  2
 Library entry H      D cc-pVTZ              selected for orbital group  2


 PROGRAM * SEWARD (Integral evaluation for generally contracted gaussian basis sets)     Author: Roland Lindh, 1990

 Geometry written to block  1 of record 700


 Point group  C1  



 ATOMIC COORDINATES

 NR  ATOM    CHARGE       X              Y              Z

   1  C       6.00    1.307002618   -0.000000000   -0.003872049
   2  C       6.00   -1.496816158    0.000000000   -0.033230834
   3  H       1.00    2.085802218   -1.671417404   -0.929541163
   4  H       1.00    2.063299359    0.000007559    1.933038647
   5  H       1.00    2.085802218    1.671409845   -0.929552501
   6  H       1.00   -2.548012220   -1.746898734    0.074334267
   7  H       1.00   -2.548010330    1.746898734    0.074334267

 Bond lengths in Bohr (Angstrom)

 1-2  2.803972480  1-3  2.063256713  1-4  2.079328691  1-5  2.063255676  2-6  2.041626459
     ( 1.483798336)     ( 1.091828433)     ( 1.100333357)     ( 1.091827884)     ( 1.080382195)

 2-7  2.041625486
     ( 1.080381681)

 Bond angles

  1-2-6  120.95079851   1-2-7  120.95075305   2-1-3  111.88489283   2-1-4  111.92885058

  2-1-5  111.88490083   3-1-4  106.29769370   3-1-5  108.20854310   4-1-5  106.29765611

  6-2-7  117.66122725

 NUCLEAR CHARGE:                   17
 NUMBER OF PRIMITIVE AOS:         219
 NUMBER OF SYMMETRY AOS:          196
 NUMBER OF CONTRACTIONS:          162   ( 162A   )
 NUMBER OF CORE ORBITALS:           2   (   2A   )
 NUMBER OF VALENCE ORBITALS:       13   (  13A   )


 NUCLEAR REPULSION ENERGY   37.02075097


 Eigenvalues of metric

         1 0.690E-04 0.299E-03 0.504E-03 0.539E-03 0.639E-03 0.704E-03 0.852E-03 0.129E-02


 Contracted 2-electron integrals neglected if value below      1.0D-11
 AO integral compression algorithm  1   Integral accuracy      1.0D-11

     384.041 MB (compressed) written to integral file ( 47.7%)

     Node minimum: 30.147 MB, node maximum: 53.740 MB


 NUMBER OF SORTED TWO-ELECTRON INTEGRALS:   10896600.     BUFFER LENGTH:  32768
 NUMBER OF SEGMENTS:   1  SEGMENT LENGTH:   10896600      RECORD LENGTH: 524288

 Memory used in sort:      11.45 MW

 SORT1 READ   100382913. AND WROTE    10211482. INTEGRALS IN     30 RECORDS. CPU TIME:     1.15 SEC, REAL TIME:     1.26 SEC
 SORT2 READ    81559630. AND WROTE    87166206. INTEGRALS IN   1576 RECORDS. CPU TIME:     0.16 SEC, REAL TIME:     0.25 SEC

 Node minimum:    10890000.  Node maximum:    10901553. integrals

 OPERATOR DM      FOR CENTER  0  COORDINATES:    0.000000    0.000000    0.000000


 **********************************************************************************************************************************
 DATASETS  * FILE   NREC   LENGTH (MB)   RECORD NAMES
              1      18       20.96       500      610      700      900      950      970     1000      129      960     1100   
                                          VAR    BASINP    GEOM    SYMINP    ZMAT    AOBASIS   BASIS     P2S    ABASIS      S 
                                         1400     1410     1200     1210     1080     1600     1650     1700   
                                           T        V       H0       H01     AOSYM     SMH    MOLCAS    OPER   

 PROGRAMS   *        TOTAL       INT
 CPU TIMES  *         2.03      1.91
 REAL TIME  *         2.84 SEC
 DISK USED  *         1.38 GB      
 GA USED    *         0.00 MB       (max)       0.00 MB       (current)
 **********************************************************************************************************************************


 PROGRAM * RHF-SCF (OPEN SHELL)       Authors: W. Meyer, H.-J. Werner


 NUMBER OF ELECTRONS:       9+    8-    SPACE SYMMETRY=1    SPIN SYMMETRY: Doublet 
 CONVERGENCE THRESHOLDS:    1.00E-05 (Density)    1.00E-07 (Energy)
 MAX. NUMBER OF ITERATIONS:       60
 INTERPOLATION TYPE:            DIIS
 INTERPOLATION STEPS:              2 (START)      1 (STEP)
 LEVEL SHIFTS:                 -0.60 (CLOSED) -0.30 (OPEN) 



 Orbital guess generated from atomic densities. Full valence occupancy:   15

 Molecular orbital dump at record        2100.2

 Initial alpha occupancy:   9
 Initial beta  occupancy:   8
 Wave function symmetry:    1

 ITERATION    DDIFF          GRAD             ENERGY        2-EL.EN.            DIPOLE MOMENTS         DIIS   ORB.
    1      0.000D+00      0.000D+00       -78.59108403    125.490261    0.31236    0.00000    0.09843    0    start
    2      0.000D+00      0.317D-02       -78.61418236    124.634576    0.17594    0.00000    0.06118    1    diag,B
    3      0.326D-02      0.136D-02       -78.62128581    124.689336    0.11437    0.00000    0.05117    2    diag,B
    4      0.131D-02      0.587D-03       -78.62328136    124.708897    0.08354    0.00000    0.04655    3    diag,B
    5      0.742D-03      0.173D-03       -78.62347093    124.709206    0.07615    0.00000    0.04467    4    diag,B
    6      0.296D-03      0.519D-04       -78.62348782    124.707347    0.07441    0.00000    0.04379    5    diag,B
    7      0.116D-03      0.153D-04       -78.62348935    124.706982    0.07401    0.00000    0.04341    6    fixocc
    8      0.392D-04      0.597D-05       -78.62348969    124.707042    0.07386    0.00000    0.04320    7    diag,B
    9      0.205D-04      0.257D-05       -78.62348977    124.707132    0.07380    0.00000    0.04306    8    diag,B
   10      0.834D-05      0.942D-06       -78.62348978    124.707146    0.07380    0.00000    0.04301    0    orth

 Final alpha occupancy:   9
 Final beta  occupancy:   8

 !RHF STATE 1.1 Energy                -78.623489776431
 Nuclear energy                        37.02075097
 One-electron energy                 -177.99781352
 Two-electron energy                   62.35357277
 Virial quotient                       -1.00106827
 !RHF STATE 1.1 Dipole moment           0.07379856     0.00000031     0.04301364
 Dipole moment /Debye                   0.18756495     0.00000080     0.10932261

 Orbital energies:

         1.1          2.1          3.1          4.1          5.1          6.1          7.1          8.1          9.1         10.1
    -11.219484   -11.218646    -1.009915    -0.815037    -0.613668    -0.554033    -0.538242    -0.501638    -0.349347     0.056876

        11.1
      0.069978

 HOMO      9.1    -0.349347 =      -9.5062eV
 LUMO     10.1     0.056876 =       1.5477eV
 LUMO-HOMO         0.406223 =      11.0539eV


 **********************************************************************************************************************************
 DATASETS  * FILE   NREC   LENGTH (MB)   RECORD NAMES
              1      18       20.96       500      610      700      900      950      970     1000      129      960     1100   
                                          VAR    BASINP    GEOM    SYMINP    ZMAT    AOBASIS   BASIS     P2S    ABASIS      S 
                                         1400     1410     1200     1210     1080     1600     1650     1700   
                                           T        V       H0       H01     AOSYM     SMH    MOLCAS    OPER   

              2       4        3.61       700     1000      520     2100   
                                         GEOM     BASIS   MCVARS     RHF  

 PROGRAMS   *        TOTAL       RHF       INT
 CPU TIMES  *         3.06      1.03      1.91
 REAL TIME  *         4.01 SEC
 DISK USED  *         1.60 GB      
 SF USED    *         0.11 MB      
 GA USED    *         0.00 MB       (max)       0.00 MB       (current)
 **********************************************************************************************************************************


 PROGRAM * CCSD (Unrestricted open-shell coupled cluster)     Authors: C. Hampel, H.-J. Werner, 1991, M. Deegan, P.J. Knowles, 1992


 Convergence thresholds:  THRVAR = 1.00D-08  THRDEN = 1.00D-06

 CCSD(T)     terms to be evaluated (factor= 1.000)


 Number of core orbitals:           2 (   2 )
 Number of closed-shell orbitals:   6 (   6 )
 Number of active  orbitals:        1 (   1 )
 Number of external orbitals:     153 ( 153 )

 Memory could be reduced to 53.54 Mwords without degradation in triples

 Number of N-1 electron functions:              13
 Number of N-2 electron functions:              78
 Number of singly external CSFs:              2002
 Number of doubly external CSFs:           1420188
 Total number of CSFs:                     1422190

 Molecular orbitals read from record     2100.2  Type=RHF/CANONICAL (state 1.1)

 Integral transformation finished. Total CPU:   1.40 sec, npass=  1  Memory used:  18.92 MW

 Starting RMP2 calculation

 ITER.      SQ.NORM     CORR.ENERGY   TOTAL ENERGY   ENERGY CHANGE        DEN1      VAR(S)    VAR(P)  DIIS     TIME
   1      1.10484326    -0.33801894   -78.96150871    -0.33801894    -0.00126541  0.13D-04  0.47D-03  1  1     1.60
   2      1.10600152    -0.33938475   -78.96287452    -0.00136581    -0.00000188  0.20D-06  0.77D-06  2  2     1.72
   3      1.10603016    -0.33940269   -78.96289247    -0.00001795    -0.00000001  0.65D-08  0.27D-08  3  3     1.84
   4      1.10603064    -0.33940270   -78.96289248    -0.00000001    -0.00000000  0.13D-09  0.10D-10  4  4     1.97

 Norm of t1 vector:      0.04236704      S-energy:    -0.00280093      T1 diagnostic:  0.00045905
 Norm of t2 vector:      0.32285550      P-energy:    -0.33660178
                                         Alpha-Beta:  -0.26741433
                                         Alpha-Alpha: -0.04154503
                                         Beta-Beta:   -0.02764241

 Spin contamination <S**2-Sz**2-Sz>     0.00244913
  Reference energy                    -78.623489776431
  RHF-RMP2 correlation energy          -0.339402703017
 !RHF-RMP2 energy                     -78.962892479448

 Starting UCCSD calculation

 ITER.      SQ.NORM     CORR.ENERGY   TOTAL ENERGY   ENERGY CHANGE        DEN1      VAR(S)    VAR(P)  DIIS     TIME
   1      1.11989209    -0.35682835   -78.98031813    -0.35682835    -0.01027729  0.92D-03  0.27D-02  1  1     3.21
   2      1.13193509    -0.36834326   -78.99183303    -0.01151490    -0.00054222  0.68D-04  0.16D-03  2  2     4.44
   3      1.13494548    -0.36981378   -78.99330356    -0.00147052    -0.00007081  0.32D-04  0.16D-04  3  3     5.69
   4      1.13603195    -0.37020525   -78.99369503    -0.00039147    -0.00001168  0.42D-05  0.34D-05  4  4     6.94
   5      1.13653266    -0.37031475   -78.99380453    -0.00010950    -0.00000207  0.13D-05  0.43D-06  5  5     8.19
   6      1.13670970    -0.37033448   -78.99382425    -0.00001973    -0.00000025  0.10D-06  0.66D-07  6  6     9.46
   7      1.13675317    -0.37033899   -78.99382877    -0.00000452    -0.00000003  0.14D-07  0.71D-08  6  1    10.74
   8      1.13676377    -0.37033906   -78.99382884    -0.00000007    -0.00000000  0.15D-08  0.11D-08  6  2    12.02

 Norm of t1 vector:      0.07378562      S-energy:    -0.00327701      T1 diagnostic:  0.01016506
                                                                       D1 diagnostic:  0.02531258
 Norm of t2 vector:      0.36238025      P-energy:    -0.36706205
                                         Alpha-Beta:  -0.30012334
                                         Alpha-Alpha: -0.04050924
                                         Beta-Beta:   -0.02642947

 Spin contamination <S**2-Sz**2-Sz>     0.00142166

 Memory could be reduced to 56.30 Mwords without degradation in triples


 RESULTS
 =======

  Reference energy                    -78.623489776431
  UCCSD singles energy                 -0.003277008191
  UCCSD pair energy                    -0.367062054857
  UCCSD correlation energy             -0.370339063048
  Triples (T) contribution             -0.012541674857
  Total correlation energy             -0.382880737905

  RHF-UCCSD energy                    -78.993828839479
  RHF-UCCSD[T] energy                 -79.006648830361
  RHF-UCCSD-T energy                  -79.006246636049
 !RHF-UCCSD(T) energy                 -79.006370514335

 Program statistics:

 Available memory in ccsd:               999999438
 Min. memory needed in ccsd:               4551643
 Max. memory used in ccsd:                 6218805
 Max. memory used in cckext:               4636524 ( 8 integral passes)
 Max. memory used in cckint:              18924521 ( 1 integral passes)



 **********************************************************************************************************************************
 DATASETS  * FILE   NREC   LENGTH (MB)   RECORD NAMES
              1      18       20.96       500      610      700      900      950      970     1000      129      960     1100   
                                          VAR    BASINP    GEOM    SYMINP    ZMAT    AOBASIS   BASIS     P2S    ABASIS      S 
                                         1400     1410     1200     1210     1080     1600     1650     1700   
                                           T        V       H0       H01     AOSYM     SMH    MOLCAS    OPER   

              2       4        3.61       700     1000      520     2100   
                                         GEOM     BASIS   MCVARS     RHF  

 PROGRAMS   *        TOTAL  UCCSD(T)       RHF       INT
 CPU TIMES  *        26.99     23.92      1.03      1.91
 REAL TIME  *        30.67 SEC
 DISK USED  *         3.00 GB      
 SF USED    *       776.13 MB      
 GA USED    *         0.00 MB       (max)       0.00 MB       (current)
 **********************************************************************************************************************************

 UCCSD(T)/O=AVTZ,C=AVTZ,H=VTZ energy=    -79.006370514335

        UCCSD(T)        RHF-SCF 
    -79.00637051    -78.62348978
 **********************************************************************************************************************************
 Molpro calculation terminated
 Variable memory released
