
 Primary working directories    : /home/saurabh/molpro_temp2
 Secondary working directories  : /home/saurabh/molpro_temp2
 Wavefunction directory         : /home/saurabh/molpro_wfn2/
 Main file repository           : /home/saurabh/molpro_temp2/

 SHA1      : f6387f0c468d0184d0b38d85973bdb066f718752
 NAME      : 2015.1.44
 ARCHNAME  : linux/x86_64
 FC        : /opt/may/bin/gfortran
 BLASLIB   : -Wl,-_start-group /opt/intel/mkl/lib/intel64/libmkl_gf_ilp64.a /opt/intel/mkl/lib/intel64/libmkl_gnu_thread.a /opt/intel/mkl/lib/intel64/libmkl_core.a -Wl,-_end-group
 id        : ramakrishnan

 Nodes                 nprocs
 mediawiki.tifrh.res.in    8

 Using customized tuning parameters: mindgm=1; mindgv=20; mindgc=4; mindgr=1; noblas=0; minvec=7
 default implementation of scratch files=sf  

 ***,Mol_02
 memory,1,g
 geometry={
 C -1.471031 -0.469278 -0.091374
 C -0.495937 0.633396 0.259671
 O 0.793536 0.423461 -0.391162
 O 1.466615 -0.555296 0.178055
 H -0.815681 1.605295 -0.114525
 H -0.306771 0.693970 1.330293
 H -1.638720 -0.514669 -1.167236
 H -2.427804 -0.283411 0.398378
 H -1.090425 -1.431218 0.248162
  }
 basis,O=AVDZ,C=AVDZ,H=VDZ
 {rhf
 wf,33,1,1
 }
 uccsd(t);
 

 Variables initialized (889), CPU time= 0.01 sec
 Commands  initialized (702), CPU time= 0.02 sec, 572 directives.
 Default parameters read. Elapsed time= 0.05 sec

 Checking input...
 Passed
1


                                         ***  PROGRAM SYSTEM MOLPRO  ***
                                       Copyright, TTI GmbH Stuttgart, 2015
                                    Version 2015.1 linked Jun  9 2019 06:55:40


 **********************************************************************************************************************************
 LABEL *   Mol_02                                                                        
  64 bit mpp version                                                                     DATE: 20-Jun-22          TIME: 08:56:13  
 **********************************************************************************************************************************

 SHA1:             f6387f0c468d0184d0b38d85973bdb066f718752
 **********************************************************************************************************************************

Geometry recognized as XYZ


 Variable memory set to 1000000000 words,  buffer space   230000 words

 SETTING BASIS          =    O=AVDZ,C=AVDZ,H=VDZ


 Recomputing integrals since basis changed


 Using spherical harmonics

 Library entry C      S aug-cc-pVDZ          selected for orbital group  1
 Library entry C      P aug-cc-pVDZ          selected for orbital group  1
 Library entry C      D aug-cc-pVDZ          selected for orbital group  1
 Library entry O      S aug-cc-pVDZ          selected for orbital group  2
 Library entry O      P aug-cc-pVDZ          selected for orbital group  2
 Library entry O      D aug-cc-pVDZ          selected for orbital group  2
 Library entry H      S cc-pVDZ              selected for orbital group  3
 Library entry H      P cc-pVDZ              selected for orbital group  3


 PROGRAM * SEWARD (Integral evaluation for generally contracted gaussian basis sets)     Author: Roland Lindh, 1990

 Geometry written to block  1 of record 700


 Point group  C1  



 ATOMIC COORDINATES

 NR  ATOM    CHARGE       X              Y              Z

   1  C       6.00   -2.779845711   -0.886806896   -0.172671835
   2  C       6.00   -0.937185105    1.196944968    0.490707072
   3  O       8.00    1.499565710    0.800225314   -0.739189050
   4  O       8.00    2.771500680   -1.049357358    0.336475185
   5  H       1.00   -1.541413695    3.033567899   -0.216420884
   6  H       1.00   -0.579713173    1.311413239    2.513889435
   7  H       1.00   -3.096731995   -0.972583455   -2.205756363
   8  H       1.00   -4.587884644   -0.535569171    0.752825314
   9  H       1.00   -2.060604609   -2.704610045    0.468958215

 Bond lengths in Bohr (Angstrom)

 1-2  2.859631360  1-7  2.059419149  1-8  2.061290299  1-9  2.057524038  2-3  2.758221436
     ( 1.513251747)     ( 1.089797682)     ( 1.090787851)     ( 1.088794832)     ( 1.459587927)

 2-5  2.058714630  2-6  2.057706500  3-4  2.489142057
     ( 1.089424866)     ( 1.088891387)     ( 1.317197251)

 Bond angles

  1-2-3  111.16291539   1-2-5  112.41221470   1-2-6  112.36876479   2-1-7  111.00899495

  2-1-8  109.68695374   2-1-9  110.25435766   2-3-4  111.44571313   3-2-5  103.55906179

  3-2-6  107.03439692   5-2-6  109.82065280   7-1-8  108.38364051   7-1-9  108.95638077

  8-1-9  108.49048638

 NUCLEAR CHARGE:                   33
 NUMBER OF PRIMITIVE AOS:         183
 NUMBER OF SYMMETRY AOS:          175
 NUMBER OF CONTRACTIONS:          117   ( 117A   )
 NUMBER OF CORE ORBITALS:           4   (   4A   )
 NUMBER OF VALENCE ORBITALS:       21   (  21A   )


 NUCLEAR REPULSION ENERGY  125.50898393

 Eigenvalues of metric

         1 0.269E-03 0.280E-03 0.702E-03 0.181E-02 0.275E-02 0.510E-02 0.643E-02 0.680E-02


 Contracted 2-electron integrals neglected if value below      1.0D-11
 AO integral compression algorithm  1   Integral accuracy      1.0D-11

     119.276 MB (compressed) written to integral file ( 53.1%)

     Node minimum: 10.748 MB, node maximum: 17.039 MB


 NUMBER OF SORTED TWO-ELECTRON INTEGRALS:    2975624.     BUFFER LENGTH:  32768
 NUMBER OF SEGMENTS:   1  SEGMENT LENGTH:    2975624      RECORD LENGTH: 524288

 Memory used in sort:       3.53 MW

 SORT1 READ    27951103. AND WROTE     2942943. INTEGRALS IN      9 RECORDS. CPU TIME:     0.30 SEC, REAL TIME:     0.36 SEC
 SORT2 READ    23580742. AND WROTE    23829156. INTEGRALS IN    520 RECORDS. CPU TIME:     0.05 SEC, REAL TIME:     0.08 SEC

 Node minimum:     2975624.  Node maximum:     2981665. integrals

 OPERATOR DM      FOR CENTER  0  COORDINATES:    0.000000    0.000000    0.000000


 **********************************************************************************************************************************
 DATASETS  * FILE   NREC   LENGTH (MB)   RECORD NAMES
              1      18       20.53       500      610      700      900      950      970     1000      129      960     1100   
                                          VAR    BASINP    GEOM    SYMINP    ZMAT    AOBASIS   BASIS     P2S    ABASIS      S 
                                         1400     1410     1200     1210     1080     1600     1650     1700   
                                           T        V       H0       H01     AOSYM     SMH    MOLCAS    OPER   

 PROGRAMS   *        TOTAL       INT
 CPU TIMES  *         0.86      0.73
 REAL TIME  *         1.45 SEC
 DISK USED  *       405.68 MB      
 GA USED    *         0.00 MB       (max)       0.00 MB       (current)
 **********************************************************************************************************************************


 PROGRAM * RHF-SCF (OPEN SHELL)       Authors: W. Meyer, H.-J. Werner


 NUMBER OF ELECTRONS:      17+   16-    SPACE SYMMETRY=1    SPIN SYMMETRY: Doublet 
 CONVERGENCE THRESHOLDS:    1.00E-05 (Density)    1.00E-07 (Energy)
 MAX. NUMBER OF ITERATIONS:       60
 INTERPOLATION TYPE:            DIIS
 INTERPOLATION STEPS:              2 (START)      1 (STEP)
 LEVEL SHIFTS:                 -0.60 (CLOSED) -0.30 (OPEN) 



 Orbital guess generated from atomic densities. Full valence occupancy:   25

 Molecular orbital dump at record        2100.2

 Initial alpha occupancy:  17
 Initial beta  occupancy:  16
 Wave function symmetry:    1

 ITERATION    DDIFF          GRAD             ENERGY        2-EL.EN.            DIPOLE MOMENTS         DIIS   ORB.
    1      0.000D+00      0.000D+00      -228.16946189    411.256918   -1.49573    0.87541   -0.01265    0    start
    2      0.000D+00      0.635D-02      -228.23705346    413.932018   -1.26655    0.38028    0.24811    1    diag,B
    3      0.784D-02      0.278D-02      -228.25013308    413.643408   -1.22306    0.43334    0.18367    2    diag,B
    4      0.323D-02      0.105D-02      -228.25740508    413.746497   -1.12731    0.34745    0.22809    3    diag,B
    5      0.187D-02      0.649D-03      -228.26129015    413.783566   -1.07395    0.30943    0.24683    4    diag,B
    6      0.113D-02      0.463D-03      -228.26508201    413.802211   -1.01968    0.26781    0.26717    5    diag,B
    7      0.111D-02      0.355D-03      -228.26827491    413.830669   -0.95843    0.22749    0.28232    6    fixocc
    8      0.139D-02      0.152D-03      -228.26859108    413.865068   -0.94318    0.21549    0.28630    7    diag,B
    9      0.416D-03      0.858D-04      -228.26866376    413.860983   -0.93385    0.21396    0.28492    8    diag,B
   10      0.311D-03      0.332D-04      -228.26866590    413.864387   -0.93732    0.21566    0.28470    9    orth
   11      0.125D-03      0.276D-04      -228.26867035    413.861605   -0.93591    0.21600    0.28411    9    diag,B
   12      0.756D-04      0.493D-05      -228.26867046    413.861634   -0.93632    0.21617    0.28407    9    diag,B
   13      0.149D-04      0.244D-05      -228.26867050    413.861469   -0.93623    0.21617    0.28403    9    diag,B
   14      0.947D-05      0.101D-05      -228.26867051    413.861537   -0.93625    0.21616    0.28404    0    orth

 Final alpha occupancy:  17
 Final beta  occupancy:  16

 !RHF STATE 1.1 Energy               -228.268670506462
 Nuclear energy                       125.50898393
 One-electron energy                 -560.70842310
 Two-electron energy                  206.93076866
 Virial quotient                       -1.00098697
 !RHF STATE 1.1 Dipole moment          -0.93624950     0.21615937     0.28403926
 Dipole moment /Debye                  -2.37955301     0.54938633     0.72190851

 Orbital energies:

         1.1          2.1          3.1          4.1          5.1          6.1          7.1          8.1          9.1         10.1
    -20.661985   -20.655649   -11.304129   -11.238078    -1.537646    -1.170360    -1.018539    -0.858201    -0.701630    -0.689681

        11.1         12.1         13.1         14.1         15.1         16.1         17.1         18.1         19.1
     -0.646473    -0.599919    -0.556910    -0.520922    -0.510389    -0.471027    -0.563846     0.064979     0.073457

 HOMO     17.1    -0.563846 =     -15.3430eV
 LUMO     18.1     0.064979 =       1.7682eV
 LUMO-HOMO         0.628824 =      17.1112eV


 **********************************************************************************************************************************
 DATASETS  * FILE   NREC   LENGTH (MB)   RECORD NAMES
              1      18       20.53       500      610      700      900      950      970     1000      129      960     1100   
                                          VAR    BASINP    GEOM    SYMINP    ZMAT    AOBASIS   BASIS     P2S    ABASIS      S 
                                         1400     1410     1200     1210     1080     1600     1650     1700   
                                           T        V       H0       H01     AOSYM     SMH    MOLCAS    OPER   

              2       4        3.28       700     1000      520     2100   
                                         GEOM     BASIS   MCVARS     RHF  

 PROGRAMS   *        TOTAL       RHF       INT
 CPU TIMES  *         1.28      0.42      0.73
 REAL TIME  *         1.95 SEC
 DISK USED  *       612.54 MB      
 SF USED    *         0.06 MB      
 GA USED    *         0.00 MB       (max)       0.00 MB       (current)
 **********************************************************************************************************************************


 PROGRAM * CCSD (Unrestricted open-shell coupled cluster)     Authors: C. Hampel, H.-J. Werner, 1991, M. Deegan, P.J. Knowles, 1992


 Convergence thresholds:  THRVAR = 1.00D-08  THRDEN = 1.00D-06

 CCSD(T)     terms to be evaluated (factor= 1.000)


 Number of core orbitals:           4 (   4 )
 Number of closed-shell orbitals:  12 (  12 )
 Number of active  orbitals:        1 (   1 )
 Number of external orbitals:     100 ( 100 )

 Memory could be reduced to 29.58 Mwords without degradation in triples

 Number of N-1 electron functions:              25
 Number of N-2 electron functions:             300
 Number of singly external CSFs:              2525
 Number of doubly external CSFs:           2318556
 Total number of CSFs:                     2321081

 Molecular orbitals read from record     2100.2  Type=RHF/CANONICAL (state 1.1)

 Integral transformation finished. Total CPU:   0.80 sec, npass=  1  Memory used:  13.67 MW

 Starting RMP2 calculation

 ITER.      SQ.NORM     CORR.ENERGY   TOTAL ENERGY   ENERGY CHANGE        DEN1      VAR(S)    VAR(P)  DIIS     TIME
   1      1.19983692    -0.66090465  -228.92957516    -0.66090465    -0.00255397  0.31D-04  0.90D-03  1  1     1.03
   2      1.20209667    -0.66367364  -228.93234415    -0.00276899    -0.00000637  0.13D-05  0.21D-05  2  2     1.23
   3      1.20216819    -0.66371499  -228.93238550    -0.00004135    -0.00000008  0.59D-07  0.12D-07  3  3     1.45
   4      1.20217090    -0.66371543  -228.93238593    -0.00000043    -0.00000000  0.14D-08  0.16D-09  4  4     1.68

 Norm of t1 vector:      0.04696325      S-energy:    -0.00422892      T1 diagnostic:  0.00087071
 Norm of t2 vector:      0.44717486      P-energy:    -0.65948651
                                         Alpha-Beta:  -0.49496847
                                         Alpha-Alpha: -0.08469794
                                         Beta-Beta:   -0.07982010

 Spin contamination <S**2-Sz**2-Sz>     0.00233811
  Reference energy                   -228.268670506463
  RHF-RMP2 correlation energy          -0.663715425981
 !RHF-RMP2 energy                    -228.932385932444

 Starting UCCSD calculation

 ITER.      SQ.NORM     CORR.ENERGY   TOTAL ENERGY   ENERGY CHANGE        DEN1      VAR(S)    VAR(P)  DIIS     TIME
   1      1.21629999    -0.67720599  -228.94587650    -0.67720599    -0.02337973  0.63D-02  0.46D-02  1  1     4.36
   2      1.24229312    -0.70001458  -228.96868509    -0.02280859    -0.00305921  0.66D-03  0.83D-03  2  2     6.96
   3      1.25915926    -0.70580106  -228.97447157    -0.00578648    -0.00089054  0.77D-03  0.72D-04  3  3     9.60
   4      1.27314034    -0.70860175  -228.97727225    -0.00280068    -0.00032859  0.26D-03  0.31D-04  4  4    12.23
   5      1.28984724    -0.71055670  -228.97922721    -0.00195496    -0.00008303  0.68D-04  0.80D-05  5  5    14.88
   6      1.29939315    -0.71134691  -228.98001742    -0.00079021    -0.00001237  0.56D-05  0.27D-05  6  6    17.55
   7      1.30191296    -0.71152217  -228.98019268    -0.00017526    -0.00000234  0.12D-05  0.52D-06  6  1    20.33
   8      1.30242908    -0.71155052  -228.98022103    -0.00002835    -0.00000042  0.16D-06  0.11D-06  6  2    23.10
   9      1.30268353    -0.71156797  -228.98023848    -0.00001745    -0.00000008  0.36D-07  0.20D-07  6  3    25.93
  10      1.30261347    -0.71155354  -228.98022404     0.00001444    -0.00000002  0.11D-07  0.36D-08  6  5    28.74
  11      1.30268764    -0.71155871  -228.98022922    -0.00000518    -0.00000001  0.46D-08  0.59D-09  6  4    31.32
  12      1.30268096    -0.71155743  -228.98022794     0.00000128    -0.00000000  0.35D-08  0.22D-09  6  6    33.90
  13      1.30267888    -0.71155757  -228.98022808    -0.00000014    -0.00000000  0.26D-08  0.13D-09  6  1    36.49

 Norm of t1 vector:      0.23905054      S-energy:    -0.00486728      T1 diagnostic:  0.03271780
                                                                       D1 diagnostic:  0.14936161
 Norm of t2 vector:      0.49551359      P-energy:    -0.70669029
                                         Alpha-Beta:  -0.55432232
                                         Alpha-Alpha: -0.07687345
                                         Beta-Beta:   -0.07549452

 Singles amplitudes (print threshold =  0.500E-01):

         I         SYM. A    A   T(IA) [Beta-Beta]

         6         1         1      0.05190760
         7         1         1     -0.12436389
         9         1         1      0.05055984
        10         1         1      0.10043522
        11         1         1     -0.10743760

 Spin contamination <S**2-Sz**2-Sz>     0.00270374

 Memory could be reduced to 33.27 Mwords without degradation in triples


 RESULTS
 =======

  Reference energy                   -228.268670506463
  UCCSD singles energy                 -0.004867283438
  UCCSD pair energy                    -0.706690290064
  UCCSD correlation energy             -0.711557573502
  Triples (T) contribution             -0.023700405801
  Total correlation energy             -0.735257979302

  RHF-UCCSD energy                   -228.980228079964
  RHF-UCCSD[T] energy                -229.007057535746
  RHF-UCCSD-T energy                 -229.003559125678
 !RHF-UCCSD(T) energy                -229.003928485765

 Program statistics:

 Available memory in ccsd:               999998418
 Min. memory needed in ccsd:               6737227
 Max. memory used in ccsd:                 9622196
 Max. memory used in cckext:               8729608 (13 integral passes)
 Max. memory used in cckint:              13669786 ( 1 integral passes)



 **********************************************************************************************************************************
 DATASETS  * FILE   NREC   LENGTH (MB)   RECORD NAMES
              1      18       20.53       500      610      700      900      950      970     1000      129      960     1100   
                                          VAR    BASINP    GEOM    SYMINP    ZMAT    AOBASIS   BASIS     P2S    ABASIS      S 
                                         1400     1410     1200     1210     1080     1600     1650     1700   
                                           T        V       H0       H01     AOSYM     SMH    MOLCAS    OPER   

              2       4        3.28       700     1000      520     2100   
                                         GEOM     BASIS   MCVARS     RHF  

 PROGRAMS   *        TOTAL  UCCSD(T)       RHF       INT
 CPU TIMES  *        53.10     51.82      0.42      0.73
 REAL TIME  *        58.81 SEC
 DISK USED  *         2.95 GB      
 SF USED    *       596.05 MB      
 GA USED    *         0.00 MB       (max)       0.00 MB       (current)
 **********************************************************************************************************************************

 UCCSD(T)/O=AVDZ,C=AVDZ,H=VDZ energy=   -229.003928485765

        UCCSD(T)        RHF-SCF 
   -229.00392849   -228.26867051
 **********************************************************************************************************************************
 Molpro calculation terminated
 Variable memory released
