
 Primary working directories    : /home/saurabh/molpro_temp2
 Secondary working directories  : /home/saurabh/molpro_temp2
 Wavefunction directory         : /home/saurabh/molpro_wfn2/
 Main file repository           : /home/saurabh/molpro_temp2/

 SHA1      : f6387f0c468d0184d0b38d85973bdb066f718752
 NAME      : 2015.1.44
 ARCHNAME  : linux/x86_64
 FC        : /opt/may/bin/gfortran
 BLASLIB   : -Wl,-_start-group /opt/intel/mkl/lib/intel64/libmkl_gf_ilp64.a /opt/intel/mkl/lib/intel64/libmkl_gnu_thread.a /opt/intel/mkl/lib/intel64/libmkl_core.a -Wl,-_end-group
 id        : ramakrishnan

 Nodes                 nprocs
 mediawiki.tifrh.res.in    8

 Using customized tuning parameters: mindgm=1; mindgv=20; mindgc=4; mindgr=1; noblas=0; minvec=7
 default implementation of scratch files=sf  

 ***,Mol_04
 memory,1,g
 geometry={
 C  0.731430   -0.371702  0.000000
 C  -0.731430  -0.371702  -0.000000
 O  -0.000000  0.853606   -0.000000
 H  1.266004   -0.592106  -0.918210
 H  1.266004   -0.592106  0.918209
 H  -1.266003  -0.592106  0.918210
 H  -1.266004  -0.592106  -0.918209
  }
 basis,O=AVQZ,C=AVQZ,H=VQZ
 hf;
 ccsd(t);
 

 Variables initialized (889), CPU time= 0.02 sec
 Commands  initialized (702), CPU time= 0.01 sec, 572 directives.
 Default parameters read. Elapsed time= 0.06 sec

 Checking input...
 Passed
1


                                         ***  PROGRAM SYSTEM MOLPRO  ***
                                       Copyright, TTI GmbH Stuttgart, 2015
                                    Version 2015.1 linked Jun  9 2019 06:55:40


 **********************************************************************************************************************************
 LABEL *   Mol_04                                                                        
  64 bit mpp version                                                                     DATE: 20-Jun-22          TIME: 15:50:00  
 **********************************************************************************************************************************

 SHA1:             f6387f0c468d0184d0b38d85973bdb066f718752
 **********************************************************************************************************************************

Geometry recognized as XYZ


 Variable memory set to 1000000000 words,  buffer space   230000 words

 SETTING BASIS          =    O=AVQZ,C=AVQZ,H=VQZ


 Recomputing integrals since basis changed


 Using spherical harmonics

 Library entry C      S aug-cc-pVQZ          selected for orbital group  1
 Library entry C      P aug-cc-pVQZ          selected for orbital group  1
 Library entry C      D aug-cc-pVQZ          selected for orbital group  1
 Library entry C      F aug-cc-pVQZ          selected for orbital group  1
 Library entry C      G aug-cc-pVQZ          selected for orbital group  1
 Library entry O      S aug-cc-pVQZ          selected for orbital group  2
 Library entry O      P aug-cc-pVQZ          selected for orbital group  2
 Library entry O      D aug-cc-pVQZ          selected for orbital group  2
 Library entry O      F aug-cc-pVQZ          selected for orbital group  2
 Library entry O      G aug-cc-pVQZ          selected for orbital group  2
 Library entry H      S cc-pVQZ              selected for orbital group  3
 Library entry H      P cc-pVQZ              selected for orbital group  3
 Library entry H      D cc-pVQZ              selected for orbital group  3
 Library entry H      F cc-pVQZ              selected for orbital group  3


 PROGRAM * SEWARD (Integral evaluation for generally contracted gaussian basis sets)     Author: Roland Lindh, 1990

 Geometry written to block  1 of record 700


 Point group  C1  



 ATOMIC COORDINATES

 NR  ATOM    CHARGE       X              Y              Z

   1  C       6.00    1.382202379   -0.702414980    0.000000000
   2  C       6.00   -1.382202379   -0.702414980   -0.000000000
   3  O       8.00   -0.000000000    1.613081558   -0.000000000
   4  H       1.00    2.392400833   -1.118918177   -1.735165425
   5  H       1.00    2.392400833   -1.118918177    1.735163535
   6  H       1.00   -2.392398943   -1.118918177    1.735165425
   7  H       1.00   -2.392400833   -1.118918177   -1.735163535

 Bond lengths in Bohr (Angstrom)

 1-2  2.764404759  1-3  2.696666022  1-4  2.050554774  1-5  2.050553175  2-3  2.696666022
     ( 1.462860000)     ( 1.427014204)     ( 1.085106856)     ( 1.085106010)     ( 1.427014204)

 2-6  2.050553843  2-7  2.050553175
     ( 1.085106363)     ( 1.085106010)

 Bond angles

  1-2-3   59.16551773   1-2-6  119.51462557   1-2-7  119.51469681   1-3-2   61.66896454

  2-1-3   59.16551773   2-1-4  119.51467152   2-1-5  119.51469681   3-1-4  115.27210917

  3-1-5  115.27213026   3-2-6  115.27209152   3-2-7  115.27213026   4-1-5  115.59997067

  6-2-7  115.60001198

 NUCLEAR CHARGE:                   24
 NUMBER OF PRIMITIVE AOS:         502
 NUMBER OF SYMMETRY AOS:          407
 NUMBER OF CONTRACTIONS:          360   ( 360A   )
 NUMBER OF CORE ORBITALS:           3   (   3A   )
 NUMBER OF VALENCE ORBITALS:       16   (  16A   )


 NUCLEAR REPULSION ENERGY   75.35823258


 Eigenvalues of metric

         1 0.116E-04 0.565E-04 0.657E-04 0.707E-04 0.797E-04 0.111E-03 0.123E-03 0.139E-03


 Contracted 2-electron integrals neglected if value below      1.0D-12
 AO integral compression algorithm  1   Integral accuracy      1.0D-12

     8899.002 MB (compressed) written to integral file ( 47.3%)

     Node minimum: 605.290 MB, node maximum: 1512.833 MB


 NUMBER OF SORTED TWO-ELECTRON INTEGRALS:  263900024.     BUFFER LENGTH:  32768
 NUMBER OF SEGMENTS:   9  SEGMENT LENGTH:   31996696      RECORD LENGTH: 524288

 Memory used in sort:      32.55 MW

 SORT1 READ  2352185601. AND WROTE   228735341. INTEGRALS IN    658 RECORDS. CPU TIME:    27.46 SEC, REAL TIME:    29.88 SEC
 SORT2 READ  1830871690. AND WROTE  2111232690. INTEGRALS IN  35920 RECORDS. CPU TIME:     3.97 SEC, REAL TIME:     6.30 SEC

 Node minimum:   263875658.  Node maximum:   263932516. integrals

 OPERATOR DM      FOR CENTER  0  COORDINATES:    0.000000    0.000000    0.000000


 **********************************************************************************************************************************
 DATASETS  * FILE   NREC   LENGTH (MB)   RECORD NAMES
              1      18       24.76       500      610      700      900      950      970     1000      129      960     1100   
                                          VAR    BASINP    GEOM    SYMINP    ZMAT    AOBASIS   BASIS     P2S    ABASIS      S 
                                         1400     1410     1200     1210     1080     1600     1650     1700   
                                           T        V       H0       H01     AOSYM     SMH    MOLCAS    OPER   

 PROGRAMS   *        TOTAL       INT
 CPU TIMES  *        44.27     44.13
 REAL TIME  *        50.20 SEC
 DISK USED  *        31.36 GB      
 GA USED    *         0.00 MB       (max)       0.00 MB       (current)
 **********************************************************************************************************************************


 PROGRAM * RHF-SCF (CLOSED SHELL)       Authors: W. Meyer, H.-J. Werner


 NUMBER OF ELECTRONS:      12+   12-    SPACE SYMMETRY=1    SPIN SYMMETRY: Singlet 
 CONVERGENCE THRESHOLDS:    1.00E-05 (Density)    1.00E-07 (Energy)
 MAX. NUMBER OF ITERATIONS:       60
 INTERPOLATION TYPE:            DIIS
 INTERPOLATION STEPS:              2 (START)      1 (STEP)
 LEVEL SHIFTS:                  0.00 (CLOSED)  0.00 (OPEN) 



 Orbital guess generated from atomic densities. Full valence occupancy:   19

 Molecular orbital dump at record        2100.2

 Initial occupancy:  12

 ITERATION    DDIFF          GRAD             ENERGY        2-EL.EN.            DIPOLE MOMENTS         DIIS   ORB.
    1      0.000D+00      0.000D+00      -152.90436512    257.829000    0.00000   -1.18474   -0.00000    0    start
    2      0.000D+00      0.282D-02      -152.93042320    257.307119   -0.00000   -0.67305    0.00000    1    diag
    3      0.205D-02      0.153D-02      -152.93717679    257.897531   -0.00000   -0.90224    0.00000    2    diag
    4      0.841D-03      0.431D-03      -152.93789477    257.671659   -0.00000   -0.86098    0.00000    3    diag
    5      0.245D-03      0.711D-04      -152.93792921    257.750647   -0.00000   -0.86652    0.00000    4    diag
    6      0.527D-04      0.219D-04      -152.93793172    257.726010   -0.00000   -0.86659    0.00000    5    diag
    7      0.149D-04      0.461D-05      -152.93793197    257.728272   -0.00000   -0.86694    0.00000    6    diag
    8      0.496D-05      0.125D-05      -152.93793199    257.728077   -0.00000   -0.86709    0.00000    7    diag
    9      0.142D-05      0.325D-06      -152.93793199    257.727982   -0.00000   -0.86707    0.00000    0    orth

 Final occupancy:  12

 !RHF STATE 1.1 Energy               -152.937931992526
 Nuclear energy                        75.35823258
 One-electron energy                 -357.16015570
 Two-electron energy                  128.86399113
 Virial quotient                       -1.00132350
 !RHF STATE 1.1 Dipole moment          -0.00000006    -0.86707379     0.00000009
 Dipole moment /Debye                  -0.00000015    -2.20373741     0.00000022

 Orbital energies:

         1.1          2.1          3.1          4.1          5.1          6.1          7.1          8.1          9.1         10.1
    -20.569982   -11.285194   -11.284383    -1.412165    -0.934209    -0.862974    -0.706042    -0.662371    -0.550212    -0.543527

        11.1         12.1         13.1         14.1
     -0.452890    -0.452140     0.046177     0.048873

 HOMO     12.1    -0.452140 =     -12.3034eV
 LUMO     13.1     0.046177 =       1.2565eV
 LUMO-HOMO         0.498317 =      13.5599eV


 **********************************************************************************************************************************
 DATASETS  * FILE   NREC   LENGTH (MB)   RECORD NAMES
              1      18       24.76       500      610      700      900      950      970     1000      129      960     1100   
                                          VAR    BASINP    GEOM    SYMINP    ZMAT    AOBASIS   BASIS     P2S    ABASIS      S 
                                         1400     1410     1200     1210     1080     1600     1650     1700   
                                           T        V       H0       H01     AOSYM     SMH    MOLCAS    OPER   

              2       4        5.51       700     1000      520     2100   
                                         GEOM     BASIS   MCVARS     RHF  

 PROGRAMS   *        TOTAL        HF       INT
 CPU TIMES  *        70.77     26.50     44.13
 REAL TIME  *        78.58 SEC
 DISK USED  *        31.67 GB      
 SF USED    *         0.52 MB      
 GA USED    *         0.00 MB       (max)       0.00 MB       (current)
 **********************************************************************************************************************************


 PROGRAM * CCSD (Closed-shell coupled cluster)     Authors: C. Hampel, H.-J. Werner, 1991, M. Deegan, P.J. Knowles, 1992


 Convergence thresholds:  THRVAR = 1.00D-08  THRDEN = 1.00D-06

 CCSD(T)     terms to be evaluated (factor= 1.000)


 Number of core orbitals:           3 (   3 )
 Number of closed-shell orbitals:   9 (   9 )
 Number of external orbitals:     348 ( 348 )

 Molecular orbitals read from record     2100.2  Type=RHF/CANONICAL (state 1.1)

 Number of N-1 electron functions:               9
 Number of N-2 electron functions:              45
 Number of singly external CSFs:              3132
 Number of doubly external CSFs:           4906278
 Total number of CSFs:                     4909411

 Length of J-op  integral file:               0.00 MB
 Length of K-op  integral file:               8.92 MB
 Length of 3-ext integral record:             0.00 MB

 Memory could be reduced to 498.80 Mwords without degradation in triples

 Integral transformation finished. Total CPU:  46.37 sec, npass=  1  Memory used: 246.55 MW

 Reference energy:                   -152.93793199

 MP2 singlet pair energy:              -0.40397700
 MP2 triplet pair energy:              -0.21528295
 MP2 correlation energy:               -0.61925995
 MP2 total energy:                   -153.55719195

 SCS-MP2 correlation energy:           -0.61872624   (PS=  1.200000  PT=  0.333333)
 SCS-MP2 total energy:               -153.55665823

 ITER.      SQ.NORM     CORR.ENERGY   TOTAL ENERGY   ENERGY CHANGE        DEN1      VAR(S)    VAR(P)  DIIS     TIME  TIME/IT
   1      1.16910666    -0.62960100  -153.56753300    -0.01034105     0.00641656  0.28D-02  0.32D-02  1  1    56.15    10.04
   2      1.18065777    -0.63042971  -153.56836170    -0.00082870    -0.01400727  0.36D-04  0.41D-03  2  2    66.34    10.39
   3      1.18517605    -0.63051792  -153.56844991    -0.00008822    -0.00285392  0.30D-04  0.21D-04  3  3    76.57    10.54
   4      1.18642706    -0.63045100  -153.56838299     0.00006692    -0.00062672  0.12D-05  0.29D-05  4  4    87.19    10.70
   5      1.18677814    -0.63046337  -153.56839536    -0.00001236    -0.00010537  0.32D-06  0.18D-06  5  5    97.64    10.79
   6      1.18685439    -0.63045794  -153.56838994     0.00000542    -0.00001697  0.32D-07  0.17D-07  6  6   108.04    10.84
   7      1.18686856    -0.63045621  -153.56838820     0.00000174    -0.00000223  0.43D-08  0.25D-08  6  2   118.15    10.82
   8      1.18687170    -0.63045589  -153.56838788     0.00000032     0.00000005  0.79D-09  0.27D-09  6  1   128.91    10.90
   9      1.18687334    -0.63045567  -153.56838767     0.00000021    -0.00000010  0.74D-10  0.39D-10  6  3   139.53    10.94

 Norm of t1 vector:      0.06578079      S-energy:    -0.00000004      T1 diagnostic:  0.01096347
                                                                       D1 diagnostic:  0.02656749


 Total CPU time for triples:    167.03 sec


 RESULTS
 =======

  Reference energy                   -152.937931992530
  CCSD singlet pair energy             -0.437841445845
  CCSD triplet pair energy             -0.192614189533
  CCSD correlation energy              -0.630455672862

  Triples (T) contribution             -0.027130812511
  Total correlation energy             -0.657586485373

  CCSD total energy                  -153.568387665391
  CCSD[T] energy                     -153.596486263748
  CCSD-T energy                      -153.595079687032
 !CCSD(T) total energy               -153.595518477902

 Timing summary (sec):

 STEP                 CPU(USER)    SYS     CPU(TOT)    WALL
 Transformation         46.45      3.12     49.57     49.58
 CCSD iterations        93.13      5.45     98.58     98.58
 Triples               167.03      2.47    169.50    169.51

 Program statistics:

 Available memory in ccsd:               999999576
 Min. memory needed in ccsd:              13780729
 Max. memory used in ccsd:                18079561
 Max. memory used in cckext:              12708355 ( 9 integral passes)



 **********************************************************************************************************************************
 DATASETS  * FILE   NREC   LENGTH (MB)   RECORD NAMES
              1      19     1618.57       500      610      700      900      950      970     1000      129      960     1100   
                                          VAR    BASINP    GEOM    SYMINP    ZMAT    AOBASIS   BASIS     P2S    ABASIS      S 
                                         1400     1410     1200     1210     1080     1600     1650     1700     1380   
                                           T        V       H0       H01     AOSYM     SMH    MOLCAS    OPER     JKOP   

              2       4        5.51       700     1000      520     2100   
                                         GEOM     BASIS   MCVARS     RHF  

 PROGRAMS   *        TOTAL   CCSD(T)        HF       INT
 CPU TIMES  *       377.41    306.63     26.50     44.13
 REAL TIME  *       396.61 SEC
 DISK USED  *        33.78 GB      
 SF USED    *         2.03 GB      
 GA USED    *         0.00 MB       (max)       0.00 MB       (current)
 **********************************************************************************************************************************

 CCSD(T)/O=AVQZ,C=AVQZ,H=VQZ energy=   -153.595518477902

        CCSD(T)         HF-SCF  
   -153.59551848   -152.93793199
 **********************************************************************************************************************************
 Molpro calculation terminated
 Variable memory released
