
 Primary working directories    : /home/saurabh/molpro_temp2
 Secondary working directories  : /home/saurabh/molpro_temp2
 Wavefunction directory         : /home/saurabh/molpro_wfn2/
 Main file repository           : /home/saurabh/molpro_temp2/

 SHA1      : f6387f0c468d0184d0b38d85973bdb066f718752
 NAME      : 2015.1.44
 ARCHNAME  : linux/x86_64
 FC        : /opt/may/bin/gfortran
 BLASLIB   : -Wl,-_start-group /opt/intel/mkl/lib/intel64/libmkl_gf_ilp64.a /opt/intel/mkl/lib/intel64/libmkl_gnu_thread.a /opt/intel/mkl/lib/intel64/libmkl_core.a -Wl,-_end-group
 id        : ramakrishnan

 Nodes                 nprocs
 mediawiki.tifrh.res.in    8

 Using customized tuning parameters: mindgm=1; mindgv=20; mindgc=4; mindgr=1; noblas=0; minvec=7
 default implementation of scratch files=sf  

 ***,Mol_05
 memory,1,g
 geometry={
 C  0.000000   -0.661966  -0.000000
 C  0.000000   0.661966   0.000000
 H  -0.920567  -1.231546  0.000000
 H  0.920567   -1.231546  -0.000000
 H  -0.920567  1.231546   0.000000
 H  0.920567   1.231546   -0.000000
  }
 basis,O=AVQZ,C=AVQZ,H=VQZ
 hf;
 ccsd;
 

 Variables initialized (889), CPU time= 0.01 sec
 Commands  initialized (702), CPU time= 0.02 sec, 572 directives.
 Default parameters read. Elapsed time= 0.05 sec

 Checking input...
 Passed
1


                                         ***  PROGRAM SYSTEM MOLPRO  ***
                                       Copyright, TTI GmbH Stuttgart, 2015
                                    Version 2015.1 linked Jun  9 2019 06:55:40


 **********************************************************************************************************************************
 LABEL *   Mol_05                                                                        
  64 bit mpp version                                                                     DATE: 20-Jun-22          TIME: 15:57:54  
 **********************************************************************************************************************************

 SHA1:             f6387f0c468d0184d0b38d85973bdb066f718752
 **********************************************************************************************************************************

Geometry recognized as XYZ


 Variable memory set to 1000000000 words,  buffer space   230000 words

 SETTING BASIS          =    O=AVQZ,C=AVQZ,H=VQZ


 Recomputing integrals since basis changed


 Using spherical harmonics

 Library entry C      S aug-cc-pVQZ          selected for orbital group  1
 Library entry C      P aug-cc-pVQZ          selected for orbital group  1
 Library entry C      D aug-cc-pVQZ          selected for orbital group  1
 Library entry C      F aug-cc-pVQZ          selected for orbital group  1
 Library entry C      G aug-cc-pVQZ          selected for orbital group  1
 Library entry H      S cc-pVQZ              selected for orbital group  2
 Library entry H      P cc-pVQZ              selected for orbital group  2
 Library entry H      D cc-pVQZ              selected for orbital group  2
 Library entry H      F cc-pVQZ              selected for orbital group  2


 PROGRAM * SEWARD (Integral evaluation for generally contracted gaussian basis sets)     Author: Roland Lindh, 1990

 Geometry written to block  1 of record 700


 Point group  D2h 



 ATOMIC COORDINATES

 NR  ATOM    CHARGE       X              Y              Z

   1  C       6.00    0.000000000   -1.250934444    0.000000000
   2  C       6.00    0.000000000    1.250934444    0.000000000
   3  H       1.00   -1.739619509   -2.327284650    0.000000000
   4  H       1.00    1.739619509   -2.327284650    0.000000000
   5  H       1.00   -1.739619509    2.327284650    0.000000000
   6  H       1.00    1.739619509    2.327284650    0.000000000

 Bond lengths in Bohr (Angstrom)

 1-2  2.501868888  1-3  2.045679790  1-4  2.045679790  2-5  2.045679790  2-6  2.045679790
     ( 1.323932000)     ( 1.082527126)     ( 1.082527126)     ( 1.082527126)     ( 1.082527126)

 Bond angles

  1-2-5  121.74621287   1-2-6  121.74621287   2-1-3  121.74621287   2-1-4  121.74621287

  3-1-4  116.50757426   5-2-6  116.50757426

 NUCLEAR CHARGE:                   16
 NUMBER OF PRIMITIVE AOS:         384
 NUMBER OF SYMMETRY AOS:          314
 NUMBER OF CONTRACTIONS:          280   (  51Ag  +  39B3u +  51B2u +  39B1g +  29B1u +  21B2g +  29B3g +  21Au  )
 NUMBER OF CORE ORBITALS:           2   (   1Ag  +   0B3u +   1B2u +   0B1g +   0B1u +   0B2g +   0B3g +   0Au  )
 NUMBER OF VALENCE ORBITALS:       12   (   3Ag  +   2B3u +   3B2u +   2B1g +   1B1u +   0B2g +   1B3g +   0Au  )


 NUCLEAR REPULSION ENERGY   33.50211592

 Eigenvalues of metric

         1 0.928E-04 0.423E-03 0.488E-03 0.841E-03 0.128E-02 0.159E-02 0.376E-02 0.477E-02
         2 0.149E-03 0.914E-03 0.127E-02 0.211E-02 0.306E-02 0.507E-02 0.702E-02 0.777E-02
         3 0.148E-04 0.455E-04 0.889E-04 0.118E-03 0.500E-03 0.753E-03 0.137E-02 0.162E-02
         4 0.421E-04 0.158E-03 0.308E-03 0.868E-03 0.103E-02 0.138E-02 0.212E-02 0.512E-02
         5 0.321E-02 0.762E-02 0.139E-01 0.280E-01 0.656E-01 0.975E-01 0.117E+00 0.137E+00
         6 0.495E-02 0.179E-01 0.335E-01 0.105E+00 0.200E+00 0.273E+00 0.304E+00 0.336E+00
         7 0.329E-03 0.217E-02 0.246E-02 0.774E-02 0.140E-01 0.199E-01 0.346E-01 0.738E-01
         8 0.355E-02 0.521E-02 0.135E-01 0.266E-01 0.607E-01 0.843E-01 0.143E+00 0.190E+00


 Contracted 2-electron integrals neglected if value below      1.0D-12
 AO integral compression algorithm  1   Integral accuracy      1.0D-12

     782.762 MB (compressed) written to integral file ( 69.4%)

     Node minimum: 61.604 MB, node maximum: 118.227 MB


 NUMBER OF SORTED TWO-ELECTRON INTEGRALS:   12367118.     BUFFER LENGTH:  32768
 NUMBER OF SEGMENTS:   1  SEGMENT LENGTH:   12367118      RECORD LENGTH: 524288

 Memory used in sort:      12.92 MW

 SORT1 READ   141009680. AND WROTE    12367118. INTEGRALS IN     36 RECORDS. CPU TIME:     4.69 SEC, REAL TIME:     5.12 SEC
 SORT2 READ    98793594. AND WROTE    98793594. INTEGRALS IN   3080 RECORDS. CPU TIME:     0.66 SEC, REAL TIME:     1.02 SEC

 Node minimum:    12316510.  Node maximum:    12372653. integrals

 OPERATOR DM      FOR CENTER  0  COORDINATES:    0.000000    0.000000    0.000000


 **********************************************************************************************************************************
 DATASETS  * FILE   NREC   LENGTH (MB)   RECORD NAMES
              1      18       20.48       500      610      700      900      950      970     1000      129      960     1100   
                                          VAR    BASINP    GEOM    SYMINP    ZMAT    AOBASIS   BASIS     P2S    ABASIS      S 
                                         1400     1410     1200     1210     1080     1600     1650     1700   
                                           T        V       H0       H01     AOSYM     SMH    MOLCAS    OPER   

 PROGRAMS   *        TOTAL       INT
 CPU TIMES  *         7.56      7.43
 REAL TIME  *         9.12 SEC
 DISK USED  *         1.98 GB      
 GA USED    *         0.00 MB       (max)       0.00 MB       (current)
 **********************************************************************************************************************************


 PROGRAM * RHF-SCF (CLOSED SHELL)       Authors: W. Meyer, H.-J. Werner


 NUMBER OF ELECTRONS:       8+    8-
 CONVERGENCE THRESHOLDS:    1.00E-05 (Density)    1.00E-07 (Energy)
 MAX. NUMBER OF ITERATIONS:       60
 INTERPOLATION TYPE:            DIIS
 INTERPOLATION STEPS:              2 (START)      1 (STEP)
 LEVEL SHIFTS:                  0.00 (CLOSED)  0.00 (OPEN) 



 Orbital guess generated from atomic densities. Full valence occupancy:    4   2   4   2   1   0   1   0


 Molecular orbital dump at record        2100.2

 Initial occupancy:   3   1   2   1   1   0   0   0

 ITERATION    DDIFF          GRAD             ENERGY        2-EL.EN.            DIPOLE MOMENTS         DIIS   ORB.
    1      0.000D+00      0.000D+00       -78.04540330    118.645043    0.00000    0.00000    0.00000    0    start
    2      0.000D+00      0.692D-02       -78.06686265    116.979738    0.00000    0.00000    0.00000    1    diag
    3      0.669D-02      0.248D-02       -78.06928348    117.647237    0.00000    0.00000    0.00000    2    diag
    4      0.177D-02      0.697D-03       -78.06961699    117.513981    0.00000    0.00000    0.00000    3    diag
    5      0.712D-03      0.855D-04       -78.06962293    117.520748    0.00000    0.00000    0.00000    4    diag
    6      0.921D-04      0.142D-04       -78.06962314    117.519966    0.00000    0.00000    0.00000    5    diag
    7      0.190D-04      0.328D-05       -78.06962316    117.519985    0.00000    0.00000    0.00000    6    diag
    8      0.453D-05      0.535D-06       -78.06962316    117.519988    0.00000    0.00000    0.00000    0    orth

 Final occupancy:   3   1   2   1   1   0   0   0

 !RHF STATE 1.1 Energy                -78.069623157657
 Nuclear energy                        33.50211592
 One-electron energy                 -170.33173287
 Two-electron energy                   58.75999379
 Virial quotient                       -1.00118432
 !RHF STATE 1.1 Dipole moment           0.00000000     0.00000000     0.00000000
 Dipole moment /Debye                   0.00000000     0.00000000     0.00000000

 Orbital energies:

         1.1          2.1          3.1          4.1          5.1
    -11.229246    -1.036450    -0.590896     0.058699     0.099923

         1.2          2.2          3.2
     -0.643837     0.068698     0.238107

         1.3          2.3          3.3          4.3
    -11.227444    -0.792728     0.048017     0.162506

         1.4          2.4          3.4
     -0.505805     0.091627     0.273999

         1.5          2.5          3.5
     -0.379466     0.086990     0.297826

         1.6          2.6
      0.220401     0.676942

         1.7          2.7
      0.083428     0.158221

         1.8          2.8
      0.292116     0.739315

 HOMO      1.5    -0.379466 =     -10.3258eV
 LUMO      3.3     0.048017 =       1.3066eV
 LUMO-HOMO         0.427483 =      11.6324eV


 **********************************************************************************************************************************
 DATASETS  * FILE   NREC   LENGTH (MB)   RECORD NAMES
              1      18       20.49       500      610      700      900      950      970     1000      129      960     1100   
                                          VAR    BASINP    GEOM    SYMINP    ZMAT    AOBASIS   BASIS     P2S    ABASIS      S 
                                         1400     1410     1200     1210     1080     1600     1650     1700   
                                           T        V       H0       H01     AOSYM     SMH    MOLCAS    OPER   

              2       4        3.11       700     1000      520     2100   
                                         GEOM     BASIS   MCVARS     RHF  

 PROGRAMS   *        TOTAL        HF       INT
 CPU TIMES  *         7.87      0.31      7.43
 REAL TIME  *         9.52 SEC
 DISK USED  *         2.18 GB      
 SF USED    *         0.04 MB      
 GA USED    *         0.00 MB       (max)       0.00 MB       (current)
 **********************************************************************************************************************************


 PROGRAM * CCSD (Closed-shell coupled cluster)     Authors: C. Hampel, H.-J. Werner, 1991, M. Deegan, P.J. Knowles, 1992


 Convergence thresholds:  THRVAR = 1.00D-08  THRDEN = 1.00D-06

 Number of core orbitals:           2 (   1   0   1   0   0   0   0   0 )
 Number of closed-shell orbitals:   6 (   2   1   1   1   1   0   0   0 )
 Number of external orbitals:     272 (  48  38  49  38  28  21  29  21 )

 Molecular orbitals read from record     2100.2  Type=RHF/CANONICAL (state 1.1)

 Number of N-1 electron functions:               6
 Number of N-2 electron functions:              21
 Number of singly external CSFs:               249
 Number of doubly external CSFs:            173082
 Total number of CSFs:                      173332

 Length of J-op  integral file:               0.00 MB
 Length of K-op  integral file:               0.74 MB
 Length of 3-ext integral record:             0.00 MB

 Integral transformation finished. Total CPU:   0.37 sec, npass=  1  Memory used:   5.78 MW

 Reference energy:                    -78.06962316

 MP2 singlet pair energy:              -0.24726959
 MP2 triplet pair energy:              -0.11015815
 MP2 correlation energy:               -0.35742774
 MP2 total energy:                    -78.42705089

 SCS-MP2 correlation energy:           -0.36526635   (PS=  1.200000  PT=  0.333333)
 SCS-MP2 total energy:                -78.43488951

 ITER.      SQ.NORM     CORR.ENERGY   TOTAL ENERGY   ENERGY CHANGE        DEN1      VAR(S)    VAR(P)  DIIS     TIME  TIME/IT
   1      1.12550355    -0.37489184   -78.44451500    -0.01746411    -0.00760173  0.15D-02  0.19D-02  1  1     0.56     0.21
   2      1.13528838    -0.37685537   -78.44647853    -0.00196353    -0.00888819  0.37D-04  0.34D-03  2  2     0.76     0.22
   3      1.14006955    -0.37705470   -78.44667786    -0.00019933    -0.00247754  0.12D-04  0.37D-04  3  3     0.91     0.20
   4      1.14203986    -0.37710340   -78.44672656    -0.00004870    -0.00061697  0.96D-06  0.33D-05  4  4     1.06     0.20
   5      1.14251684    -0.37711125   -78.44673441    -0.00000785    -0.00008458  0.98D-07  0.22D-06  5  5     1.21     0.19
   6      1.14259494    -0.37710788   -78.44673104     0.00000337    -0.00001072  0.81D-08  0.12D-07  6  6     1.35     0.19
   7      1.14260294    -0.37710756   -78.44673071     0.00000033    -0.00000094  0.95D-09  0.97D-09  6  1     1.50     0.19
   8      1.14260364    -0.37710775   -78.44673091    -0.00000020     0.00000052  0.14D-09  0.61D-10  6  2     1.65     0.19

 Norm of t1 vector:      0.05398384      S-energy:    -0.00000001      T1 diagnostic:  0.01101940
                                                                       D1 diagnostic:  0.03201234

 Doubles amplitudes (print threshold =  0.500E-01):

         I         J         SYM. A    SYM. B    A         B      T(IJ, AB)

         6         6         7         7         2         2     -0.08173064


 RESULTS
 =======

  Reference energy                    -78.069623157657
  CCSD singlet pair energy             -0.275906171261
  CCSD triplet pair energy             -0.101201568981
  CCSD correlation energy              -0.377107750177

 !CCSD total energy                   -78.446730907834

 Timing summary (sec):

 STEP                 CPU(USER)    SYS     CPU(TOT)    WALL
 Transformation          0.37      0.25      0.62      0.62
 CCSD iterations         1.28      0.23      1.51      1.50

 Program statistics:

 Available memory in ccsd:               999999756
 Min. memory needed in ccsd:                607663
 Max. memory used in ccsd:                  751128
 Max. memory used in cckext:                715659 ( 8 integral passes)



 **********************************************************************************************************************************
 DATASETS  * FILE   NREC   LENGTH (MB)   RECORD NAMES
              1      19       85.34       500      610      700      900      950      970     1000      129      960     1100   
                                          VAR    BASINP    GEOM    SYMINP    ZMAT    AOBASIS   BASIS     P2S    ABASIS      S 
                                         1400     1410     1200     1210     1080     1600     1650     1700     1380   
                                           T        V       H0       H01     AOSYM     SMH    MOLCAS    OPER     JKOP   

              2       4        3.11       700     1000      520     2100   
                                         GEOM     BASIS   MCVARS     RHF  

 PROGRAMS   *        TOTAL      CCSD        HF       INT
 CPU TIMES  *         9.56      1.68      0.31      7.43
 REAL TIME  *        11.69 SEC
 DISK USED  *         2.26 GB      
 SF USED    *        80.62 MB      
 GA USED    *         0.00 MB       (max)       0.00 MB       (current)
 **********************************************************************************************************************************

 CCSD/O=AVQZ,C=AVQZ,H=VQZ energy=    -78.446730907834

        CCSD            HF-SCF  
    -78.44673091    -78.06962316
 **********************************************************************************************************************************
 Molpro calculation terminated
 Variable memory released
