
 Primary working directories    : /home/saurabh/molpro_temp2
 Secondary working directories  : /home/saurabh/molpro_temp2
 Wavefunction directory         : /home/saurabh/molpro_wfn2/
 Main file repository           : /home/saurabh/molpro_temp2/

 SHA1      : f6387f0c468d0184d0b38d85973bdb066f718752
 NAME      : 2015.1.44
 ARCHNAME  : linux/x86_64
 FC        : /opt/may/bin/gfortran
 BLASLIB   : -Wl,-_start-group /opt/intel/mkl/lib/intel64/libmkl_gf_ilp64.a /opt/intel/mkl/lib/intel64/libmkl_gnu_thread.a /opt/intel/mkl/lib/intel64/libmkl_core.a -Wl,-_end-group
 id        : ramakrishnan

 Nodes                 nprocs
 mediawiki.tifrh.res.in    8

 Using customized tuning parameters: mindgm=1; mindgv=20; mindgc=4; mindgr=1; noblas=0; minvec=7
 default implementation of scratch files=sf  

 ***,Mol_02
 memory,1,g
 geometry={
 C -1.471031 -0.469278 -0.091374
 C -0.495937 0.633396 0.259671
 O 0.793536 0.423461 -0.391162
 O 1.466615 -0.555296 0.178055
 H -0.815681 1.605295 -0.114525
 H -0.306771 0.693970 1.330293
 H -1.638720 -0.514669 -1.167236
 H -2.427804 -0.283411 0.398378
 H -1.090425 -1.431218 0.248162
  }
 basis,O=AVTZ,C=AVTZ,H=VTZ
 {rhf
 wf,33,1,1
 }
 uccsd(t);
 

 Variables initialized (889), CPU time= 0.01 sec
 Commands  initialized (702), CPU time= 0.01 sec, 572 directives.
 Default parameters read. Elapsed time= 0.05 sec

 Checking input...
 Passed
1


                                         ***  PROGRAM SYSTEM MOLPRO  ***
                                       Copyright, TTI GmbH Stuttgart, 2015
                                    Version 2015.1 linked Jun  9 2019 06:55:40


 **********************************************************************************************************************************
 LABEL *   Mol_02                                                                        
  64 bit mpp version                                                                     DATE: 20-Jun-22          TIME: 09:00:45  
 **********************************************************************************************************************************

 SHA1:             f6387f0c468d0184d0b38d85973bdb066f718752
 **********************************************************************************************************************************

Geometry recognized as XYZ


 Variable memory set to 1000000000 words,  buffer space   230000 words

 SETTING BASIS          =    O=AVTZ,C=AVTZ,H=VTZ


 Recomputing integrals since basis changed


 Using spherical harmonics

 Library entry C      S aug-cc-pVTZ          selected for orbital group  1
 Library entry C      P aug-cc-pVTZ          selected for orbital group  1
 Library entry C      D aug-cc-pVTZ          selected for orbital group  1
 Library entry C      F aug-cc-pVTZ          selected for orbital group  1
 Library entry O      S aug-cc-pVTZ          selected for orbital group  2
 Library entry O      P aug-cc-pVTZ          selected for orbital group  2
 Library entry O      D aug-cc-pVTZ          selected for orbital group  2
 Library entry O      F aug-cc-pVTZ          selected for orbital group  2
 Library entry H      S cc-pVTZ              selected for orbital group  3
 Library entry H      P cc-pVTZ              selected for orbital group  3
 Library entry H      D cc-pVTZ              selected for orbital group  3


 PROGRAM * SEWARD (Integral evaluation for generally contracted gaussian basis sets)     Author: Roland Lindh, 1990

 Geometry written to block  1 of record 700


 Point group  C1  



 ATOMIC COORDINATES

 NR  ATOM    CHARGE       X              Y              Z

   1  C       6.00   -2.779845711   -0.886806896   -0.172671835
   2  C       6.00   -0.937185105    1.196944968    0.490707072
   3  O       8.00    1.499565710    0.800225314   -0.739189050
   4  O       8.00    2.771500680   -1.049357358    0.336475185
   5  H       1.00   -1.541413695    3.033567899   -0.216420884
   6  H       1.00   -0.579713173    1.311413239    2.513889435
   7  H       1.00   -3.096731995   -0.972583455   -2.205756363
   8  H       1.00   -4.587884644   -0.535569171    0.752825314
   9  H       1.00   -2.060604609   -2.704610045    0.468958215

 Bond lengths in Bohr (Angstrom)

 1-2  2.859631360  1-7  2.059419149  1-8  2.061290299  1-9  2.057524038  2-3  2.758221436
     ( 1.513251747)     ( 1.089797682)     ( 1.090787851)     ( 1.088794832)     ( 1.459587927)

 2-5  2.058714630  2-6  2.057706500  3-4  2.489142057
     ( 1.089424866)     ( 1.088891387)     ( 1.317197251)

 Bond angles

  1-2-3  111.16291539   1-2-5  112.41221470   1-2-6  112.36876479   2-1-7  111.00899495

  2-1-8  109.68695374   2-1-9  110.25435766   2-3-4  111.44571313   3-2-5  103.55906179

  3-2-6  107.03439692   5-2-6  109.82065280   7-1-8  108.38364051   7-1-9  108.95638077

  8-1-9  108.49048638

 NUCLEAR CHARGE:                   33
 NUMBER OF PRIMITIVE AOS:         353
 NUMBER OF SYMMETRY AOS:          312
 NUMBER OF CONTRACTIONS:          254   ( 254A   )
 NUMBER OF CORE ORBITALS:           4   (   4A   )
 NUMBER OF VALENCE ORBITALS:       21   (  21A   )


 NUCLEAR REPULSION ENERGY  125.50898393


 Eigenvalues of metric

         1 0.319E-04 0.198E-03 0.200E-03 0.337E-03 0.432E-03 0.448E-03 0.472E-03 0.568E-03


 Contracted 2-electron integrals neglected if value below      1.0D-12
 AO integral compression algorithm  1   Integral accuracy      1.0D-12

     2535.457 MB (compressed) written to integral file ( 54.0%)

     Node minimum: 282.853 MB, node maximum: 351.273 MB


 NUMBER OF SORTED TWO-ELECTRON INTEGRALS:   65561408.     BUFFER LENGTH:  32768
 NUMBER OF SEGMENTS:   5  SEGMENT LENGTH:   15996384      RECORD LENGTH: 524288

 Memory used in sort:      16.55 MW

 SORT1 READ   586450790. AND WROTE    63658531. INTEGRALS IN    185 RECORDS. CPU TIME:     7.48 SEC, REAL TIME:     8.20 SEC
 SORT2 READ   509688489. AND WROTE   524410305. INTEGRALS IN  10008 RECORDS. CPU TIME:     1.12 SEC, REAL TIME:     1.77 SEC

 Node minimum:    65537120.  Node maximum:    65565457. integrals

 OPERATOR DM      FOR CENTER  0  COORDINATES:    0.000000    0.000000    0.000000


 **********************************************************************************************************************************
 DATASETS  * FILE   NREC   LENGTH (MB)   RECORD NAMES
              1      18       22.41       500      610      700      900      950      970     1000      129      960     1100   
                                          VAR    BASINP    GEOM    SYMINP    ZMAT    AOBASIS   BASIS     P2S    ABASIS      S 
                                         1400     1410     1200     1210     1080     1600     1650     1700   
                                           T        V       H0       H01     AOSYM     SMH    MOLCAS    OPER   

 PROGRAMS   *        TOTAL       INT
 CPU TIMES  *        11.36     11.24
 REAL TIME  *        13.43 SEC
 DISK USED  *         8.62 GB      
 GA USED    *         0.00 MB       (max)       0.00 MB       (current)
 **********************************************************************************************************************************


 PROGRAM * RHF-SCF (OPEN SHELL)       Authors: W. Meyer, H.-J. Werner


 NUMBER OF ELECTRONS:      17+   16-    SPACE SYMMETRY=1    SPIN SYMMETRY: Doublet 
 CONVERGENCE THRESHOLDS:    1.00E-05 (Density)    1.00E-07 (Energy)
 MAX. NUMBER OF ITERATIONS:       60
 INTERPOLATION TYPE:            DIIS
 INTERPOLATION STEPS:              2 (START)      1 (STEP)
 LEVEL SHIFTS:                 -0.60 (CLOSED) -0.30 (OPEN) 



 Orbital guess generated from atomic densities. Full valence occupancy:   25

 Molecular orbital dump at record        2100.2

 Initial alpha occupancy:  17
 Initial beta  occupancy:  16
 Wave function symmetry:    1

 ITERATION    DDIFF          GRAD             ENERGY        2-EL.EN.            DIPOLE MOMENTS         DIIS   ORB.
    1      0.000D+00      0.000D+00      -228.22661799    411.744680   -1.52158    0.87763   -0.00301    0    start
    2      0.000D+00      0.425D-02      -228.29346840    414.233359   -1.27484    0.38511    0.24525    1    diag,B
    3      0.341D-02      0.195D-02      -228.30668329    413.937992   -1.22728    0.43617    0.18142    2    diag,B
    4      0.133D-02      0.707D-03      -228.31392034    414.039422   -1.13056    0.35455    0.22085    3    diag,B
    5      0.751D-03      0.441D-03      -228.31813618    414.085341   -1.07060    0.31287    0.23988    4    diag,B
    6      0.475D-03      0.309D-03      -228.32191448    414.104086   -1.01582    0.27075    0.26035    5    diag,B
    7      0.448D-03      0.245D-03      -228.32540567    414.131363   -0.95332    0.22876    0.27677    6    fixocc
    8      0.611D-03      0.112D-03      -228.32586674    414.165808   -0.93488    0.21469    0.28156    7    diag,B
    9      0.215D-03      0.590D-04      -228.32595572    414.166199   -0.92502    0.21221    0.28070    8    diag,B
   10      0.142D-03      0.196D-04      -228.32595751    414.168829   -0.92776    0.21387    0.28033    9    orth
   11      0.540D-04      0.172D-04      -228.32596116    414.165525   -0.92634    0.21433    0.27967    9    diag,B
   12      0.336D-04      0.524D-05      -228.32596146    414.165919   -0.92702    0.21454    0.27968    9    diag,B
   13      0.948D-05      0.197D-05      -228.32596151    414.165768   -0.92695    0.21457    0.27962    9    diag,B
   14      0.530D-05      0.662D-06      -228.32596152    414.165809   -0.92696    0.21456    0.27963    0    orth

 Final alpha occupancy:  17
 Final beta  occupancy:  16

 !RHF STATE 1.1 Energy               -228.325961515622
 Nuclear energy                       125.50898393
 One-electron energy                 -560.91784996
 Two-electron energy                  207.08290451
 Virial quotient                       -1.00126464
 !RHF STATE 1.1 Dipole moment          -0.92696447     0.21455735     0.27962717
 Dipole moment /Debye                  -2.35595436     0.54531466     0.71069483

 Orbital energies:

         1.1          2.1          3.1          4.1          5.1          6.1          7.1          8.1          9.1         10.1
    -20.654272   -20.647940   -11.296840   -11.230424    -1.531496    -1.165984    -1.016543    -0.856523    -0.700654    -0.688090

        11.1         12.1         13.1         14.1         15.1         16.1         17.1         18.1         19.1
     -0.645606    -0.599719    -0.557407    -0.520988    -0.510784    -0.470494    -0.564535     0.053513     0.058229

 HOMO     17.1    -0.564535 =     -15.3618eV
 LUMO     18.1     0.053513 =       1.4562eV
 LUMO-HOMO         0.618048 =      16.8179eV


 **********************************************************************************************************************************
 DATASETS  * FILE   NREC   LENGTH (MB)   RECORD NAMES
              1      18       22.41       500      610      700      900      950      970     1000      129      960     1100   
                                          VAR    BASINP    GEOM    SYMINP    ZMAT    AOBASIS   BASIS     P2S    ABASIS      S 
                                         1400     1410     1200     1210     1080     1600     1650     1700   
                                           T        V       H0       H01     AOSYM     SMH    MOLCAS    OPER   

              2       4        4.74       700     1000      520     2100   
                                         GEOM     BASIS   MCVARS     RHF  

 PROGRAMS   *        TOTAL       RHF       INT
 CPU TIMES  *        21.63     10.27     11.24
 REAL TIME  *        24.51 SEC
 DISK USED  *         8.91 GB      
 SF USED    *         0.26 MB      
 GA USED    *         0.00 MB       (max)       0.00 MB       (current)
 **********************************************************************************************************************************


 PROGRAM * CCSD (Unrestricted open-shell coupled cluster)     Authors: C. Hampel, H.-J. Werner, 1991, M. Deegan, P.J. Knowles, 1992


 Convergence thresholds:  THRVAR = 1.00D-08  THRDEN = 1.00D-06

 CCSD(T)     terms to be evaluated (factor= 1.000)


 Number of core orbitals:           4 (   4 )
 Number of closed-shell orbitals:  12 (  12 )
 Number of active  orbitals:        1 (   1 )
 Number of external orbitals:     237 ( 237 )

 Memory could be reduced to 306.43 Mwords without degradation in triples

 Number of N-1 electron functions:              25
 Number of N-2 electron functions:             300
 Number of singly external CSFs:              5950
 Number of doubly external CSFs:          12897696
 Total number of CSFs:                    12903646

 Molecular orbitals read from record     2100.2  Type=RHF/CANONICAL (state 1.1)

 Integral transformation finished. Total CPU:  18.00 sec, npass=  1  Memory used: 126.31 MW

 Starting RMP2 calculation

 ITER.      SQ.NORM     CORR.ENERGY   TOTAL ENERGY   ENERGY CHANGE        DEN1      VAR(S)    VAR(P)  DIIS     TIME
   1      1.21544691    -0.80605091  -229.13201242    -0.80605091    -0.00262162  0.31D-04  0.91D-03  1  1    20.21
   2      1.21772798    -0.80887994  -229.13484146    -0.00282903    -0.00000681  0.13D-05  0.23D-05  2  2    21.68
   3      1.21780740    -0.80893016  -229.13489167    -0.00005022    -0.00000009  0.66D-07  0.14D-07  3  3    23.25
   4      1.21781042    -0.80893047  -229.13489199    -0.00000032    -0.00000000  0.19D-08  0.18D-09  4  4    24.92

 Norm of t1 vector:      0.04780905      S-energy:    -0.00458113      T1 diagnostic:  0.00087861
 Norm of t2 vector:      0.46424639      P-energy:    -0.80434934
                                         Alpha-Beta:  -0.61212374
                                         Alpha-Alpha: -0.10038163
                                         Beta-Beta:   -0.09184398

 Spin contamination <S**2-Sz**2-Sz>     0.00221663
  Reference energy                   -228.325961515622
  RHF-RMP2 correlation energy          -0.808930472381
 !RHF-RMP2 energy                    -229.134891988004

 Starting UCCSD calculation

 ITER.      SQ.NORM     CORR.ENERGY   TOTAL ENERGY   ENERGY CHANGE        DEN1      VAR(S)    VAR(P)  DIIS     TIME
   1      1.22572526    -0.81206644  -229.13802796    -0.81206644    -0.02498199  0.62D-02  0.43D-02  1  1    50.22
   2      1.24825862    -0.83421054  -229.16017205    -0.02214410    -0.00338622  0.69D-03  0.87D-03  2  2    75.92
   3      1.26436473    -0.84034539  -229.16630691    -0.00613485    -0.00090782  0.76D-03  0.75D-04  3  3   100.34
   4      1.27617602    -0.84297631  -229.16893783    -0.00263092    -0.00038524  0.31D-03  0.33D-04  4  4   124.61
   5      1.29235904    -0.84505986  -229.17102138    -0.00208355    -0.00010968  0.92D-04  0.89D-05  5  5   148.81
   6      1.30370374    -0.84605383  -229.17201534    -0.00099397    -0.00001656  0.83D-05  0.30D-05  6  6   173.26
   7      1.30704470    -0.84627254  -229.17223406    -0.00021871    -0.00000299  0.15D-05  0.61D-06  6  1   197.58
   8      1.30761132    -0.84631357  -229.17227508    -0.00004102    -0.00000063  0.25D-06  0.15D-06  6  2   222.04
   9      1.30788835    -0.84632887  -229.17229038    -0.00001530    -0.00000013  0.57D-07  0.31D-07  6  4   246.32
  10      1.30787644    -0.84632758  -229.17228910     0.00000128    -0.00000002  0.11D-07  0.42D-08  6  3   270.89
  11      1.30794038    -0.84633292  -229.17229444    -0.00000533    -0.00000001  0.36D-08  0.89D-09  6  5   295.19
  12      1.30793190    -0.84633060  -229.17229211     0.00000232    -0.00000000  0.22D-08  0.26D-09  6  6   320.01
  13      1.30792497    -0.84632926  -229.17229077     0.00000134    -0.00000000  0.16D-08  0.81D-10  6  1   344.41
  14      1.30790720    -0.84632731  -229.17228882     0.00000195    -0.00000000  0.11D-08  0.59D-10  6  4   369.66
  15      1.30789617    -0.84632613  -229.17228765     0.00000117    -0.00000000  0.86D-09  0.43D-10  6  2   394.68
  16      1.30789482    -0.84632623  -229.17228774    -0.00000009    -0.00000000  0.53D-09  0.42D-10  6  3   419.51

 Norm of t1 vector:      0.23343429      S-energy:    -0.00521583      T1 diagnostic:  0.03189695
                                                                       D1 diagnostic:  0.14670323
 Norm of t2 vector:      0.50339175      P-energy:    -0.84111040
                                         Alpha-Beta:  -0.66346047
                                         Alpha-Alpha: -0.09140394
                                         Beta-Beta:   -0.08624598

 Singles amplitudes (print threshold =  0.500E-01):

         I         SYM. A    A   T(IA) [Beta-Beta]

         6         1         1      0.05180724
         7         1         1     -0.12160865
        10         1         1      0.09645133
        11         1         1     -0.10798215

 Spin contamination <S**2-Sz**2-Sz>     0.00277139

 Memory could be reduced to 326.84 Mwords without degradation in triples


 RESULTS
 =======

  Reference energy                   -228.325961515622
  UCCSD singles energy                 -0.005215830563
  UCCSD pair energy                    -0.841110396106
  UCCSD correlation energy             -0.846326226669
  Triples (T) contribution             -0.034858915640
  Total correlation energy             -0.881185142309

  RHF-UCCSD energy                   -229.172287742291
  RHF-UCCSD[T] energy                -229.210308799209
  RHF-UCCSD-T energy                 -229.206737469956
 !RHF-UCCSD(T) energy                -229.207146657931

 Program statistics:

 Available memory in ccsd:               999998418
 Min. memory needed in ccsd:              36661651
 Max. memory used in ccsd:                52819029
 Max. memory used in cckext:              40550281 (16 integral passes)
 Max. memory used in cckint:             126311224 ( 1 integral passes)



 **********************************************************************************************************************************
 DATASETS  * FILE   NREC   LENGTH (MB)   RECORD NAMES
              1      18       22.41       500      610      700      900      950      970     1000      129      960     1100   
                                          VAR    BASINP    GEOM    SYMINP    ZMAT    AOBASIS   BASIS     P2S    ABASIS      S 
                                         1400     1410     1200     1210     1080     1600     1650     1700   
                                           T        V       H0       H01     AOSYM     SMH    MOLCAS    OPER   

              2       4        4.74       700     1000      520     2100   
                                         GEOM     BASIS   MCVARS     RHF  

 PROGRAMS   *        TOTAL  UCCSD(T)       RHF       INT
 CPU TIMES  *       796.47    774.83     10.27     11.24
 REAL TIME  *       841.47 SEC
 DISK USED  *        21.89 GB      
 SF USED    *         5.62 GB      
 GA USED    *         0.00 MB       (max)       0.00 MB       (current)
 **********************************************************************************************************************************

 UCCSD(T)/O=AVTZ,C=AVTZ,H=VTZ energy=   -229.207146657931

        UCCSD(T)        RHF-SCF 
   -229.20714666   -228.32596152
 **********************************************************************************************************************************
 Molpro calculation terminated
 Variable memory released
