
 Primary working directories    : /home/saurabh/molpro_temp2
 Secondary working directories  : /home/saurabh/molpro_temp2
 Wavefunction directory         : /home/saurabh/molpro_wfn2/
 Main file repository           : /home/saurabh/molpro_temp2/

 SHA1      : f6387f0c468d0184d0b38d85973bdb066f718752
 NAME      : 2015.1.44
 ARCHNAME  : linux/x86_64
 FC        : /opt/may/bin/gfortran
 BLASLIB   : -Wl,-_start-group /opt/intel/mkl/lib/intel64/libmkl_gf_ilp64.a /opt/intel/mkl/lib/intel64/libmkl_gnu_thread.a /opt/intel/mkl/lib/intel64/libmkl_core.a -Wl,-_end-group
 id        : ramakrishnan

 Nodes                 nprocs
 mediawiki.tifrh.res.in    8

 Using customized tuning parameters: mindgm=1; mindgv=20; mindgc=4; mindgr=1; noblas=0; minvec=7
 default implementation of scratch files=sf  

 ***,Mol_05
 memory,1,g
 geometry={
 C  0.000000   -0.661966  -0.000000
 C  0.000000   0.661966   0.000000
 H  -0.920567  -1.231546  0.000000
 H  0.920567   -1.231546  -0.000000
 H  -0.920567  1.231546   0.000000
 H  0.920567   1.231546   -0.000000
  }
 basis,O=AVTZ,C=AVTZ,H=VTZ
 hf;
 ccsd(t);
 

 Variables initialized (889), CPU time= 0.01 sec
 Commands  initialized (702), CPU time= 0.02 sec, 572 directives.
 Default parameters read. Elapsed time= 0.05 sec

 Checking input...
 Passed
1


                                         ***  PROGRAM SYSTEM MOLPRO  ***
                                       Copyright, TTI GmbH Stuttgart, 2015
                                    Version 2015.1 linked Jun  9 2019 06:55:40


 **********************************************************************************************************************************
 LABEL *   Mol_05                                                                        
  64 bit mpp version                                                                     DATE: 20-Jun-22          TIME: 15:41:23  
 **********************************************************************************************************************************

 SHA1:             f6387f0c468d0184d0b38d85973bdb066f718752
 **********************************************************************************************************************************

Geometry recognized as XYZ


 Variable memory set to 1000000000 words,  buffer space   230000 words

 SETTING BASIS          =    O=AVTZ,C=AVTZ,H=VTZ


 Recomputing integrals since basis changed


 Using spherical harmonics

 Library entry C      S aug-cc-pVTZ          selected for orbital group  1
 Library entry C      P aug-cc-pVTZ          selected for orbital group  1
 Library entry C      D aug-cc-pVTZ          selected for orbital group  1
 Library entry C      F aug-cc-pVTZ          selected for orbital group  1
 Library entry H      S cc-pVTZ              selected for orbital group  2
 Library entry H      P cc-pVTZ              selected for orbital group  2
 Library entry H      D cc-pVTZ              selected for orbital group  2


 PROGRAM * SEWARD (Integral evaluation for generally contracted gaussian basis sets)     Author: Roland Lindh, 1990

 Geometry written to block  1 of record 700


 Point group  D2h 



 ATOMIC COORDINATES

 NR  ATOM    CHARGE       X              Y              Z

   1  C       6.00    0.000000000   -1.250934444    0.000000000
   2  C       6.00    0.000000000    1.250934444    0.000000000
   3  H       1.00   -1.739619509   -2.327284650    0.000000000
   4  H       1.00    1.739619509   -2.327284650    0.000000000
   5  H       1.00   -1.739619509    2.327284650    0.000000000
   6  H       1.00    1.739619509    2.327284650    0.000000000

 Bond lengths in Bohr (Angstrom)

 1-2  2.501868888  1-3  2.045679790  1-4  2.045679790  2-5  2.045679790  2-6  2.045679790
     ( 1.323932000)     ( 1.082527126)     ( 1.082527126)     ( 1.082527126)     ( 1.082527126)

 Bond angles

  1-2-5  121.74621287   1-2-6  121.74621287   2-1-3  121.74621287   2-1-4  121.74621287

  3-1-4  116.50757426   5-2-6  116.50757426

 NUCLEAR CHARGE:                   16
 NUMBER OF PRIMITIVE AOS:         202
 NUMBER OF SYMMETRY AOS:          180
 NUMBER OF CONTRACTIONS:          148   (  29Ag  +  21B3u +  29B2u +  21B1g +  15B1u +   9B2g +  15B3g +   9Au  )
 NUMBER OF CORE ORBITALS:           2   (   1Ag  +   0B3u +   1B2u +   0B1g +   0B1u +   0B2g +   0B3g +   0Au  )
 NUMBER OF VALENCE ORBITALS:       12   (   3Ag  +   2B3u +   3B2u +   2B1g +   1B1u +   0B2g +   1B3g +   0Au  )


 NUCLEAR REPULSION ENERGY   33.50211592

 Eigenvalues of metric

         1 0.682E-03 0.140E-02 0.306E-02 0.917E-02 0.133E-01 0.222E-01 0.337E-01 0.473E-01
         2 0.771E-03 0.394E-02 0.598E-02 0.118E-01 0.417E-01 0.657E-01 0.111E+00 0.179E+00
         3 0.564E-04 0.123E-03 0.611E-03 0.120E-02 0.231E-02 0.783E-02 0.107E-01 0.256E-01
         4 0.402E-03 0.122E-02 0.148E-02 0.374E-02 0.100E-01 0.146E-01 0.261E-01 0.501E-01
         5 0.264E-01 0.712E-01 0.115E+00 0.138E+00 0.287E+00 0.375E+00 0.569E+00 0.650E+00
         6 0.324E-01 0.256E+00 0.326E+00 0.539E+00 0.902E+00 0.978E+00 0.149E+01 0.254E+01
         7 0.178E-02 0.103E-01 0.190E-01 0.411E-01 0.119E+00 0.192E+00 0.237E+00 0.376E+00
         8 0.269E-01 0.509E-01 0.126E+00 0.207E+00 0.531E+00 0.668E+00 0.110E+01 0.137E+01


 Contracted 2-electron integrals neglected if value below      1.0D-11
 AO integral compression algorithm  1   Integral accuracy      1.0D-11

     57.410 MB (compressed) written to integral file ( 58.2%)

     Node minimum: 6.554 MB, node maximum: 7.864 MB


 NUMBER OF SORTED TWO-ELECTRON INTEGRALS:     992548.     BUFFER LENGTH:  32768
 NUMBER OF SEGMENTS:   1  SEGMENT LENGTH:     992548      RECORD LENGTH: 524288

 Memory used in sort:       1.55 MW

 SORT1 READ    12196112. AND WROTE      992548. INTEGRALS IN      3 RECORDS. CPU TIME:     0.34 SEC, REAL TIME:     0.40 SEC
 SORT2 READ     7943528. AND WROTE     7943529. INTEGRALS IN    216 RECORDS. CPU TIME:     0.05 SEC, REAL TIME:     0.06 SEC

 Node minimum:      972874.  Node maximum:      999232. integrals

 OPERATOR DM      FOR CENTER  0  COORDINATES:    0.000000    0.000000    0.000000


 **********************************************************************************************************************************
 DATASETS  * FILE   NREC   LENGTH (MB)   RECORD NAMES
              1      18       20.12       500      610      700      900      950      970     1000      129      960     1100   
                                          VAR    BASINP    GEOM    SYMINP    ZMAT    AOBASIS   BASIS     P2S    ABASIS      S 
                                         1400     1410     1200     1210     1080     1600     1650     1700   
                                           T        V       H0       H01     AOSYM     SMH    MOLCAS    OPER   

 PROGRAMS   *        TOTAL       INT
 CPU TIMES  *         0.90      0.77
 REAL TIME  *         1.47 SEC
 DISK USED  *       140.72 MB      
 GA USED    *         0.00 MB       (max)       0.00 MB       (current)
 **********************************************************************************************************************************


 PROGRAM * RHF-SCF (CLOSED SHELL)       Authors: W. Meyer, H.-J. Werner


 NUMBER OF ELECTRONS:       8+    8-
 CONVERGENCE THRESHOLDS:    1.00E-05 (Density)    1.00E-07 (Energy)
 MAX. NUMBER OF ITERATIONS:       60
 INTERPOLATION TYPE:            DIIS
 INTERPOLATION STEPS:              2 (START)      1 (STEP)
 LEVEL SHIFTS:                  0.00 (CLOSED)  0.00 (OPEN) 



 Orbital guess generated from atomic densities. Full valence occupancy:    4   2   4   2   1   0   1   0


 Molecular orbital dump at record        2100.2

 Initial occupancy:   3   1   2   1   1   0   0   0

 ITERATION    DDIFF          GRAD             ENERGY        2-EL.EN.            DIPOLE MOMENTS         DIIS   ORB.
    1      0.000D+00      0.000D+00       -78.04087038    118.610583    0.00000    0.00000    0.00000    0    start
    2      0.000D+00      0.926D-02       -78.06206902    116.974760    0.00000    0.00000    0.00000    1    diag
    3      0.131D-01      0.332D-02       -78.06443403    117.629809    0.00000    0.00000    0.00000    2    diag
    4      0.330D-02      0.938D-03       -78.06476226    117.496657    0.00000    0.00000    0.00000    3    diag
    5      0.132D-02      0.115D-03       -78.06476806    117.503271    0.00000    0.00000    0.00000    4    diag
    6      0.168D-03      0.186D-04       -78.06476827    117.502628    0.00000    0.00000    0.00000    5    diag
    7      0.300D-04      0.428D-05       -78.06476828    117.502626    0.00000    0.00000    0.00000    6    diag
    8      0.767D-05      0.680D-06       -78.06476828    117.502633    0.00000    0.00000    0.00000    0    orth

 Final occupancy:   3   1   2   1   1   0   0   0

 !RHF STATE 1.1 Energy                -78.064768284057
 Nuclear energy                        33.50211592
 One-electron energy                 -170.31820093
 Two-electron energy                   58.75131672
 Virial quotient                       -1.00143071
 !RHF STATE 1.1 Dipole moment           0.00000000     0.00000000     0.00000000
 Dipole moment /Debye                   0.00000000     0.00000000     0.00000000

 Orbital energies:

         1.1          2.1          3.1          4.1          5.1
    -11.230337    -1.036656    -0.590797     0.070613     0.116480

         1.2          2.2          3.2
     -0.643759     0.079885     0.266431

         1.3          2.3          3.3          4.3
    -11.228539    -0.792766     0.055428     0.189192

         1.4          2.4          3.4
     -0.505611     0.107031     0.337479

         1.5          2.5          3.5
     -0.379319     0.101649     0.382824

         1.6          2.6
      0.278048     0.900392

         1.7          2.7
      0.093281     0.179913

         1.8          2.8
      0.379778     1.023504

 HOMO      1.5    -0.379319 =     -10.3218eV
 LUMO      3.3     0.055428 =       1.5083eV
 LUMO-HOMO         0.434747 =      11.8301eV


 **********************************************************************************************************************************
 DATASETS  * FILE   NREC   LENGTH (MB)   RECORD NAMES
              1      18       20.13       500      610      700      900      950      970     1000      129      960     1100   
                                          VAR    BASINP    GEOM    SYMINP    ZMAT    AOBASIS   BASIS     P2S    ABASIS      S 
                                         1400     1410     1200     1210     1080     1600     1650     1700   
                                           T        V       H0       H01     AOSYM     SMH    MOLCAS    OPER   

              2       4        2.92       700     1000      520     2100   
                                         GEOM     BASIS   MCVARS     RHF  

 PROGRAMS   *        TOTAL        HF       INT
 CPU TIMES  *         0.94      0.04      0.77
 REAL TIME  *         1.53 SEC
 DISK USED  *       327.21 MB      
 SF USED    *         0.01 MB      
 GA USED    *         0.00 MB       (max)       0.00 MB       (current)
 **********************************************************************************************************************************


 PROGRAM * CCSD (Closed-shell coupled cluster)     Authors: C. Hampel, H.-J. Werner, 1991, M. Deegan, P.J. Knowles, 1992


 Convergence thresholds:  THRVAR = 1.00D-08  THRDEN = 1.00D-06

 CCSD(T)     terms to be evaluated (factor= 1.000)


 Number of core orbitals:           2 (   1   0   1   0   0   0   0   0 )
 Number of closed-shell orbitals:   6 (   2   1   1   1   1   0   0   0 )
 Number of external orbitals:     140 (  26  20  27  20  14   9  15   9 )

 Molecular orbitals read from record     2100.2  Type=RHF/CANONICAL (state 1.1)

 Number of N-1 electron functions:               6
 Number of N-2 electron functions:              21
 Number of singly external CSFs:               133
 Number of doubly external CSFs:             46782
 Total number of CSFs:                       46916

 Length of J-op  integral file:               0.00 MB
 Length of K-op  integral file:               0.22 MB
 Length of 3-ext integral record:             0.00 MB

 Memory could be reduced to 3.47 Mwords without degradation in triples

 Integral transformation finished. Total CPU:   0.04 sec, npass=  1  Memory used:   0.92 MW

 Reference energy:                    -78.06476828

 MP2 singlet pair energy:              -0.23115920
 MP2 triplet pair energy:              -0.10713171
 MP2 correlation energy:               -0.33829091
 MP2 total energy:                    -78.40305919

 SCS-MP2 correlation energy:           -0.34405077   (PS=  1.200000  PT=  0.333333)
 SCS-MP2 total energy:                -78.40881905

 ITER.      SQ.NORM     CORR.ENERGY   TOTAL ENERGY   ENERGY CHANGE        DEN1      VAR(S)    VAR(P)  DIIS     TIME  TIME/IT
   1      1.12546582    -0.35996420   -78.42473248    -0.02167329    -0.01205937  0.13D-02  0.19D-02  1  1     0.07     0.02
   2      1.13589089    -0.36201088   -78.42677916    -0.00204667    -0.00911560  0.32D-04  0.31D-03  2  2     0.09     0.02
   3      1.14035074    -0.36220341   -78.42697170    -0.00019254    -0.00216199  0.12D-04  0.33D-04  3  3     0.10     0.02
   4      1.14223530    -0.36226447   -78.42703275    -0.00006105    -0.00054635  0.77D-06  0.28D-05  4  4     0.12     0.02
   5      1.14266731    -0.36226516   -78.42703344    -0.00000069    -0.00008113  0.87D-07  0.17D-06  5  5     0.14     0.02
   6      1.14272851    -0.36226257   -78.42703086     0.00000258    -0.00000806  0.77D-08  0.10D-07  6  6     0.16     0.02
   7      1.14273468    -0.36226264   -78.42703092    -0.00000007    -0.00000026  0.85D-09  0.87D-09  6  1     0.18     0.02
   8      1.14273501    -0.36226285   -78.42703113    -0.00000021     0.00000075  0.11D-09  0.45D-10  6  2     0.20     0.02

 Norm of t1 vector:      0.05211777      S-energy:    -0.00000006      T1 diagnostic:  0.01063850
                                                                       D1 diagnostic:  0.03085813

 Doubles amplitudes (print threshold =  0.500E-01):

         I         J         SYM. A    SYM. B    A         B      T(IJ, AB)

         6         6         7         7         2         2     -0.08315323


 Total CPU time for triples:      0.07 sec


 RESULTS
 =======

  Reference energy                    -78.064768284057
  CCSD singlet pair energy             -0.263634679897
  CCSD triplet pair energy             -0.098628108420
  CCSD correlation energy              -0.362262849409

  Triples (T) contribution             -0.015300512993
  Total correlation energy             -0.377563362402

  CCSD total energy                   -78.427031133466
  CCSD[T] energy                      -78.442725460820
  CCSD-T energy                       -78.442174379475
 !CCSD(T) total energy                -78.442331646459

 Timing summary (sec):

 STEP                 CPU(USER)    SYS     CPU(TOT)    WALL
 Transformation          0.04      0.03      0.07      0.08
 CCSD iterations         0.17      0.05      0.22      0.20
 Triples                 0.07      0.00      0.07      0.08

 Program statistics:

 Available memory in ccsd:               999999756
 Min. memory needed in ccsd:                171169
 Max. memory used in ccsd:                  209642
 Max. memory used in cckext:                206457 ( 8 integral passes)



 **********************************************************************************************************************************
 DATASETS  * FILE   NREC   LENGTH (MB)   RECORD NAMES
              1      19       29.60       500      610      700      900      950      970     1000      129      960     1100   
                                          VAR    BASINP    GEOM    SYMINP    ZMAT    AOBASIS   BASIS     P2S    ABASIS      S 
                                         1400     1410     1200     1210     1080     1600     1650     1700     1380   
                                           T        V       H0       H01     AOSYM     SMH    MOLCAS    OPER     JKOP   

              2       4        2.92       700     1000      520     2100   
                                         GEOM     BASIS   MCVARS     RHF  

 PROGRAMS   *        TOTAL   CCSD(T)        HF       INT
 CPU TIMES  *         1.24      0.30      0.04      0.77
 REAL TIME  *         1.93 SEC
 DISK USED  *       341.91 MB      
 SF USED    *        13.84 MB      
 GA USED    *         0.00 MB       (max)       0.00 MB       (current)
 **********************************************************************************************************************************

 CCSD(T)/O=AVTZ,C=AVTZ,H=VTZ energy=    -78.442331646459

        CCSD(T)         HF-SCF  
    -78.44233165    -78.06476828
 **********************************************************************************************************************************
 Molpro calculation terminated
 Variable memory released
