
 Primary working directories    : /home/saurabh/molpro_temp2
 Secondary working directories  : /home/saurabh/molpro_temp2
 Wavefunction directory         : /home/saurabh/molpro_wfn2/
 Main file repository           : /home/saurabh/molpro_temp2/

 SHA1      : f6387f0c468d0184d0b38d85973bdb066f718752
 NAME      : 2015.1.44
 ARCHNAME  : linux/x86_64
 FC        : /opt/may/bin/gfortran
 BLASLIB   : -Wl,-_start-group /opt/intel/mkl/lib/intel64/libmkl_gf_ilp64.a /opt/intel/mkl/lib/intel64/libmkl_gnu_thread.a /opt/intel/mkl/lib/intel64/libmkl_core.a -Wl,-_end-group
 id        : ramakrishnan

 Nodes                 nprocs
 mediawiki.tifrh.res.in    8

 Using customized tuning parameters: mindgm=1; mindgv=20; mindgc=4; mindgr=1; noblas=0; minvec=7
 default implementation of scratch files=sf  

 ***,Mol_02
 memory,1,g
 geometry={
 C  0.691636   -0.000000  -0.002049
 C  -0.792081  0.000000   -0.017585
 H  1.103759   -0.884476  -0.491892
 H  1.091851   0.000004   1.022920
 H  1.103759   0.884472   -0.491898
 H  -1.348350  -0.924419  0.039336
 H  -1.348349  0.924419   0.039336
  }
 basis,O=AVDZ,C=AVDZ,H=VDZ
 {rhf
 wf,17,1,1
 }
 uccsd(t);
 

 Variables initialized (889), CPU time= 0.02 sec
 Commands  initialized (702), CPU time= 0.01 sec, 572 directives.
 Default parameters read. Elapsed time= 0.06 sec

 Checking input...
 Passed
1


                                         ***  PROGRAM SYSTEM MOLPRO  ***
                                       Copyright, TTI GmbH Stuttgart, 2015
                                    Version 2015.1 linked Jun  9 2019 06:55:40


 **********************************************************************************************************************************
 LABEL *   Mol_02                                                                        
  64 bit mpp version                                                                     DATE: 20-Jun-22          TIME: 15:34:07  
 **********************************************************************************************************************************

 SHA1:             f6387f0c468d0184d0b38d85973bdb066f718752
 **********************************************************************************************************************************

Geometry recognized as XYZ


 Variable memory set to 1000000000 words,  buffer space   230000 words

 SETTING BASIS          =    O=AVDZ,C=AVDZ,H=VDZ


 Recomputing integrals since basis changed


 Using spherical harmonics

 Library entry C      S aug-cc-pVDZ          selected for orbital group  1
 Library entry C      P aug-cc-pVDZ          selected for orbital group  1
 Library entry C      D aug-cc-pVDZ          selected for orbital group  1
 Library entry H      S cc-pVDZ              selected for orbital group  2
 Library entry H      P cc-pVDZ              selected for orbital group  2


 PROGRAM * SEWARD (Integral evaluation for generally contracted gaussian basis sets)     Author: Roland Lindh, 1990

 Geometry written to block  1 of record 700


 Point group  C1  



 ATOMIC COORDINATES

 NR  ATOM    CHARGE       X              Y              Z

   1  C       6.00    1.307002618   -0.000000000   -0.003872049
   2  C       6.00   -1.496816158    0.000000000   -0.033230834
   3  H       1.00    2.085802218   -1.671417404   -0.929541163
   4  H       1.00    2.063299359    0.000007559    1.933038647
   5  H       1.00    2.085802218    1.671409845   -0.929552501
   6  H       1.00   -2.548012220   -1.746898734    0.074334267
   7  H       1.00   -2.548010330    1.746898734    0.074334267

 Bond lengths in Bohr (Angstrom)

 1-2  2.803972480  1-3  2.063256713  1-4  2.079328691  1-5  2.063255676  2-6  2.041626459
     ( 1.483798336)     ( 1.091828433)     ( 1.100333357)     ( 1.091827884)     ( 1.080382195)

 2-7  2.041625486
     ( 1.080381681)

 Bond angles

  1-2-6  120.95079851   1-2-7  120.95075305   2-1-3  111.88489283   2-1-4  111.92885058

  2-1-5  111.88490083   3-1-4  106.29769370   3-1-5  108.20854310   4-1-5  106.29765611

  6-2-7  117.66122725

 NUCLEAR CHARGE:                   17
 NUMBER OF PRIMITIVE AOS:         109
 NUMBER OF SYMMETRY AOS:          105
 NUMBER OF CONTRACTIONS:           71   (  71A   )
 NUMBER OF CORE ORBITALS:           2   (   2A   )
 NUMBER OF VALENCE ORBITALS:       13   (  13A   )


 NUCLEAR REPULSION ENERGY   37.02075097


 Eigenvalues of metric

         1 0.298E-03 0.513E-03 0.606E-02 0.882E-02 0.935E-02 0.943E-02 0.122E-01 0.148E-01


 Contracted 2-electron integrals neglected if value below      1.0D-11
 AO integral compression algorithm  1   Integral accuracy      1.0D-11

     17.039 MB (compressed) written to integral file ( 51.7%)

     Node minimum: 1.573 MB, node maximum: 2.359 MB


 NUMBER OF SORTED TWO-ELECTRON INTEGRALS:     408320.     BUFFER LENGTH:  32768
 NUMBER OF SEGMENTS:   1  SEGMENT LENGTH:     408320      RECORD LENGTH: 524288

 Memory used in sort:       0.97 MW

 SORT1 READ     4005084. AND WROTE      367722. INTEGRALS IN      2 RECORDS. CPU TIME:     0.04 SEC, REAL TIME:     0.06 SEC
 SORT2 READ     2947116. AND WROTE     3267846. INTEGRALS IN     48 RECORDS. CPU TIME:     0.01 SEC, REAL TIME:     0.02 SEC

 Node minimum:      407363.  Node maximum:      409600. integrals

 OPERATOR DM      FOR CENTER  0  COORDINATES:    0.000000    0.000000    0.000000


 **********************************************************************************************************************************
 DATASETS  * FILE   NREC   LENGTH (MB)   RECORD NAMES
              1      18       20.16       500      610      700      900      950      970     1000      129      960     1100   
                                          VAR    BASINP    GEOM    SYMINP    ZMAT    AOBASIS   BASIS     P2S    ABASIS      S 
                                         1400     1410     1200     1210     1080     1600     1650     1700   
                                           T        V       H0       H01     AOSYM     SMH    MOLCAS    OPER   

 PROGRAMS   *        TOTAL       INT
 CPU TIMES  *         0.40      0.26
 REAL TIME  *         1.02 SEC
 DISK USED  *        80.83 MB      
 GA USED    *         0.00 MB       (max)       0.00 MB       (current)
 **********************************************************************************************************************************


 PROGRAM * RHF-SCF (OPEN SHELL)       Authors: W. Meyer, H.-J. Werner


 NUMBER OF ELECTRONS:       9+    8-    SPACE SYMMETRY=1    SPIN SYMMETRY: Doublet 
 CONVERGENCE THRESHOLDS:    1.00E-05 (Density)    1.00E-07 (Energy)
 MAX. NUMBER OF ITERATIONS:       60
 INTERPOLATION TYPE:            DIIS
 INTERPOLATION STEPS:              2 (START)      1 (STEP)
 LEVEL SHIFTS:                 -0.60 (CLOSED) -0.30 (OPEN) 



 Orbital guess generated from atomic densities. Full valence occupancy:   15

 Molecular orbital dump at record        2100.2

 Initial alpha occupancy:   9
 Initial beta  occupancy:   8
 Wave function symmetry:    1

 ITERATION    DDIFF          GRAD             ENERGY        2-EL.EN.            DIPOLE MOMENTS         DIIS   ORB.
    1      0.000D+00      0.000D+00       -78.56997565    125.310643    0.31288    0.00000    0.09809    0    start
    2      0.000D+00      0.474D-02       -78.59228344    124.551310    0.17830    0.00000    0.06167    1    diag,B
    3      0.703D-02      0.209D-02       -78.59952707    124.591307    0.11353    0.00000    0.05107    2    diag,B
    4      0.359D-02      0.845D-03       -78.60127194    124.614657    0.08429    0.00000    0.04674    3    diag,B
    5      0.190D-02      0.246D-03       -78.60142739    124.610601    0.07739    0.00000    0.04480    4    diag,B
    6      0.773D-03      0.625D-04       -78.60143737    124.609277    0.07606    0.00000    0.04405    5    diag,B
    7      0.204D-03      0.203D-04       -78.60143847    124.609148    0.07571    0.00000    0.04372    6    fixocc
    8      0.685D-04      0.820D-05       -78.60143875    124.609300    0.07557    0.00000    0.04352    7    diag,B
    9      0.300D-04      0.346D-05       -78.60143881    124.609454    0.07554    0.00000    0.04338    8    diag,B
   10      0.141D-04      0.115D-05       -78.60143882    124.609484    0.07552    0.00000    0.04332    9    orth
   11      0.545D-05      0.363D-06       -78.60143882    124.609477    0.07552    0.00000    0.04331    0    orth

 Final alpha occupancy:   9
 Final beta  occupancy:   8

 !RHF STATE 1.1 Energy                -78.601438817817
 Nuclear energy                        37.02075097
 One-electron energy                 -177.92692848
 Two-electron energy                   62.30473869
 Virial quotient                       -1.00102723
 !RHF STATE 1.1 Dipole moment           0.07552242     0.00000031     0.04330911
 Dipole moment /Debye                   0.19194626     0.00000078     0.11007357

 Orbital energies:

         1.1          2.1          3.1          4.1          5.1          6.1          7.1          8.1          9.1         10.1
    -11.226936   -11.224818    -1.011433    -0.815808    -0.613189    -0.553391    -0.537864    -0.500803    -0.348961     0.069335

        11.1
      0.086442

 HOMO      9.1    -0.348961 =      -9.4957eV
 LUMO     10.1     0.069335 =       1.8867eV
 LUMO-HOMO         0.418296 =      11.3824eV


 **********************************************************************************************************************************
 DATASETS  * FILE   NREC   LENGTH (MB)   RECORD NAMES
              1      18       20.16       500      610      700      900      950      970     1000      129      960     1100   
                                          VAR    BASINP    GEOM    SYMINP    ZMAT    AOBASIS   BASIS     P2S    ABASIS      S 
                                         1400     1410     1200     1210     1080     1600     1650     1700   
                                           T        V       H0       H01     AOSYM     SMH    MOLCAS    OPER   

              2       4        3.00       700     1000      520     2100   
                                         GEOM     BASIS   MCVARS     RHF  

 PROGRAMS   *        TOTAL       RHF       INT
 CPU TIMES  *         0.46      0.06      0.26
 REAL TIME  *         1.12 SEC
 DISK USED  *       272.38 MB      
 SF USED    *         0.02 MB      
 GA USED    *         0.00 MB       (max)       0.00 MB       (current)
 **********************************************************************************************************************************


 PROGRAM * CCSD (Unrestricted open-shell coupled cluster)     Authors: C. Hampel, H.-J. Werner, 1991, M. Deegan, P.J. Knowles, 1992


 Convergence thresholds:  THRVAR = 1.00D-08  THRDEN = 1.00D-06

 CCSD(T)     terms to be evaluated (factor= 1.000)


 Number of core orbitals:           2 (   2 )
 Number of closed-shell orbitals:   6 (   6 )
 Number of active  orbitals:        1 (   1 )
 Number of external orbitals:      62 (  62 )

 Memory could be reduced to 4.57 Mwords without degradation in triples

 Number of N-1 electron functions:              13
 Number of N-2 electron functions:              78
 Number of singly external CSFs:               819
 Number of doubly external CSFs:            237006
 Total number of CSFs:                      237825

 Molecular orbitals read from record     2100.2  Type=RHF/CANONICAL (state 1.1)

 Integral transformation finished. Total CPU:   0.07 sec, npass=  1  Memory used:   1.83 MW

 Starting RMP2 calculation

 ITER.      SQ.NORM     CORR.ENERGY   TOTAL ENERGY   ENERGY CHANGE        DEN1      VAR(S)    VAR(P)  DIIS     TIME
   1      1.09642863    -0.27959753   -78.88103634    -0.27959753    -0.00122139  0.13D-04  0.46D-03  1  1     0.08
   2      1.09756573    -0.28092107   -78.88235988    -0.00132354    -0.00000172  0.19D-06  0.71D-06  2  2     0.09
   3      1.09759051    -0.28093539   -78.88237421    -0.00001433    -0.00000001  0.59D-08  0.21D-08  3  3     0.10
   4      1.09759093    -0.28093545   -78.88237427    -0.00000006    -0.00000000  0.10D-09  0.81D-11  4  4     0.12

 Norm of t1 vector:      0.04148540      S-energy:    -0.00259810      T1 diagnostic:  0.00045333
 Norm of t2 vector:      0.30962864      P-energy:    -0.27833736
                                         Alpha-Beta:  -0.21869450
                                         Alpha-Alpha: -0.03558045
                                         Beta-Beta:   -0.02406241

 Spin contamination <S**2-Sz**2-Sz>     0.00260642
  Reference energy                    -78.601438817817
  RHF-RMP2 correlation energy          -0.280935453784
 !RHF-RMP2 energy                     -78.882374271601

 Starting UCCSD calculation

 ITER.      SQ.NORM     CORR.ENERGY   TOTAL ENERGY   ENERGY CHANGE        DEN1      VAR(S)    VAR(P)  DIIS     TIME
   1      1.11464927    -0.30315965   -78.90459846    -0.30315965    -0.01048791  0.76D-03  0.31D-02  1  1     0.23
   2      1.12792782    -0.31556094   -78.91699976    -0.01240130    -0.00046806  0.61D-04  0.15D-03  2  2     0.33
   3      1.13103762    -0.31696473   -78.91840355    -0.00140379    -0.00005344  0.27D-04  0.12D-04  3  3     0.43
   4      1.13192124    -0.31725914   -78.91869795    -0.00029440    -0.00000965  0.30D-05  0.32D-05  4  4     0.54
   5      1.13238936    -0.31735133   -78.91879015    -0.00009219    -0.00000137  0.72D-06  0.34D-06  5  5     0.64
   6      1.13251721    -0.31735824   -78.91879706    -0.00000691    -0.00000012  0.43D-07  0.33D-07  6  6     0.75
   7      1.13254519    -0.31736302   -78.91880184    -0.00000478    -0.00000001  0.56D-08  0.43D-08  6  1     0.85
   8      1.13255217    -0.31736461   -78.91880343    -0.00000159    -0.00000000  0.57D-09  0.51D-09  6  2     0.95
   9      1.13255289    -0.31736476   -78.91880358    -0.00000015    -0.00000000  0.71D-10  0.78D-10  6  3     1.06

 Norm of t1 vector:      0.07343504      S-energy:    -0.00311676      T1 diagnostic:  0.00998370
                                                                       D1 diagnostic:  0.02486350
 Norm of t2 vector:      0.35659526      P-energy:    -0.31424801
                                         Alpha-Beta:  -0.25616138
                                         Alpha-Alpha: -0.03495386
                                         Beta-Beta:   -0.02313277

 Spin contamination <S**2-Sz**2-Sz>     0.00129335

 Memory could be reduced to 5.04 Mwords without degradation in triples


 RESULTS
 =======

  Reference energy                    -78.601438817817
  UCCSD singles energy                 -0.003116755515
  UCCSD pair energy                    -0.314248006919
  UCCSD correlation energy             -0.317364762434
  Triples (T) contribution             -0.008398890628
  Total correlation energy             -0.325763653062

  RHF-UCCSD energy                    -78.918803580251
  RHF-UCCSD[T] energy                 -78.927391989325
  RHF-UCCSD-T energy                  -78.927101768901
 !RHF-UCCSD(T) energy                 -78.927202470879

 Program statistics:

 Available memory in ccsd:               999999438
 Min. memory needed in ccsd:                784542
 Max. memory used in ccsd:                 1059719
 Max. memory used in cckext:                925953 ( 9 integral passes)
 Max. memory used in cckint:               1833507 ( 1 integral passes)



 **********************************************************************************************************************************
 DATASETS  * FILE   NREC   LENGTH (MB)   RECORD NAMES
              1      18       20.16       500      610      700      900      950      970     1000      129      960     1100   
                                          VAR    BASINP    GEOM    SYMINP    ZMAT    AOBASIS   BASIS     P2S    ABASIS      S 
                                         1400     1410     1200     1210     1080     1600     1650     1700   
                                           T        V       H0       H01     AOSYM     SMH    MOLCAS    OPER   

              2       4        3.00       700     1000      520     2100   
                                         GEOM     BASIS   MCVARS     RHF  

 PROGRAMS   *        TOTAL  UCCSD(T)       RHF       INT
 CPU TIMES  *         2.00      1.53      0.06      0.26
 REAL TIME  *         2.99 SEC
 DISK USED  *       504.93 MB      
 SF USED    *        71.02 MB      
 GA USED    *         0.00 MB       (max)       0.00 MB       (current)
 **********************************************************************************************************************************

 UCCSD(T)/O=AVDZ,C=AVDZ,H=VDZ energy=    -78.927202470879

        UCCSD(T)        RHF-SCF 
    -78.92720247    -78.60143882
 **********************************************************************************************************************************
 Molpro calculation terminated
 Variable memory released
