
 Primary working directories    : /home/saurabh/molpro_temp2
 Secondary working directories  : /home/saurabh/molpro_temp2
 Wavefunction directory         : /home/saurabh/molpro_wfn2/
 Main file repository           : /home/saurabh/molpro_temp2/

 SHA1      : f6387f0c468d0184d0b38d85973bdb066f718752
 NAME      : 2015.1.44
 ARCHNAME  : linux/x86_64
 FC        : /opt/may/bin/gfortran
 BLASLIB   : -Wl,-_start-group /opt/intel/mkl/lib/intel64/libmkl_gf_ilp64.a /opt/intel/mkl/lib/intel64/libmkl_gnu_thread.a /opt/intel/mkl/lib/intel64/libmkl_core.a -Wl,-_end-group
 id        : ramakrishnan

 Nodes                 nprocs
 mediawiki.tifrh.res.in    8

 Using customized tuning parameters: mindgm=1; mindgv=20; mindgc=4; mindgr=1; noblas=0; minvec=7
 default implementation of scratch files=sf  

 ***,Mol_02
 memory,1,g
 geometry={
 C -1.471031 -0.469278 -0.091374
 C -0.495937 0.633396 0.259671
 O 0.793536 0.423461 -0.391162
 O 1.466615 -0.555296 0.178055
 H -0.815681 1.605295 -0.114525
 H -0.306771 0.693970 1.330293
 H -1.638720 -0.514669 -1.167236
 H -2.427804 -0.283411 0.398378
 H -1.090425 -1.431218 0.248162
  }
 basis,O=AVQZ,C=AVQZ,H=VQZ
 {rhf
 wf,33,1,1
 }
 uccsd;
 

 Variables initialized (889), CPU time= 0.01 sec
 Commands  initialized (702), CPU time= 0.01 sec, 572 directives.
 Default parameters read. Elapsed time= 0.05 sec

 Checking input...
 Passed
1


                                         ***  PROGRAM SYSTEM MOLPRO  ***
                                       Copyright, TTI GmbH Stuttgart, 2015
                                    Version 2015.1 linked Jun  9 2019 06:55:40


 **********************************************************************************************************************************
 LABEL *   Mol_02                                                                        
  64 bit mpp version                                                                     DATE: 20-Jun-22          TIME: 09:32:13  
 **********************************************************************************************************************************

 SHA1:             f6387f0c468d0184d0b38d85973bdb066f718752
 **********************************************************************************************************************************

Geometry recognized as XYZ


 Variable memory set to 1000000000 words,  buffer space   230000 words

 SETTING BASIS          =    O=AVQZ,C=AVQZ,H=VQZ


 Recomputing integrals since basis changed


 Using spherical harmonics

 Library entry C      S aug-cc-pVQZ          selected for orbital group  1
 Library entry C      P aug-cc-pVQZ          selected for orbital group  1
 Library entry C      D aug-cc-pVQZ          selected for orbital group  1
 Library entry C      F aug-cc-pVQZ          selected for orbital group  1
 Library entry C      G aug-cc-pVQZ          selected for orbital group  1
 Library entry O      S aug-cc-pVQZ          selected for orbital group  2
 Library entry O      P aug-cc-pVQZ          selected for orbital group  2
 Library entry O      D aug-cc-pVQZ          selected for orbital group  2
 Library entry O      F aug-cc-pVQZ          selected for orbital group  2
 Library entry O      G aug-cc-pVQZ          selected for orbital group  2
 Library entry H      S cc-pVQZ              selected for orbital group  3
 Library entry H      P cc-pVQZ              selected for orbital group  3
 Library entry H      D cc-pVQZ              selected for orbital group  3
 Library entry H      F cc-pVQZ              selected for orbital group  3


 PROGRAM * SEWARD (Integral evaluation for generally contracted gaussian basis sets)     Author: Roland Lindh, 1990

 Geometry written to block  1 of record 700


 Point group  C1  



 ATOMIC COORDINATES

 NR  ATOM    CHARGE       X              Y              Z

   1  C       6.00   -2.779845711   -0.886806896   -0.172671835
   2  C       6.00   -0.937185105    1.196944968    0.490707072
   3  O       8.00    1.499565710    0.800225314   -0.739189050
   4  O       8.00    2.771500680   -1.049357358    0.336475185
   5  H       1.00   -1.541413695    3.033567899   -0.216420884
   6  H       1.00   -0.579713173    1.311413239    2.513889435
   7  H       1.00   -3.096731995   -0.972583455   -2.205756363
   8  H       1.00   -4.587884644   -0.535569171    0.752825314
   9  H       1.00   -2.060604609   -2.704610045    0.468958215

 Bond lengths in Bohr (Angstrom)

 1-2  2.859631360  1-7  2.059419149  1-8  2.061290299  1-9  2.057524038  2-3  2.758221436
     ( 1.513251747)     ( 1.089797682)     ( 1.090787851)     ( 1.088794832)     ( 1.459587927)

 2-5  2.058714630  2-6  2.057706500  3-4  2.489142057
     ( 1.089424866)     ( 1.088891387)     ( 1.317197251)

 Bond angles

  1-2-3  111.16291539   1-2-5  112.41221470   1-2-6  112.36876479   2-1-7  111.00899495

  2-1-8  109.68695374   2-1-9  110.25435766   2-3-4  111.44571313   3-2-5  103.55906179

  3-2-6  107.03439692   5-2-6  109.82065280   7-1-8  108.38364051   7-1-9  108.95638077

  8-1-9  108.49048638

 NUCLEAR CHARGE:                   33
 NUMBER OF PRIMITIVE AOS:         657
 NUMBER OF SYMMETRY AOS:          532
 NUMBER OF CONTRACTIONS:          470   ( 470A   )
 NUMBER OF CORE ORBITALS:           4   (   4A   )
 NUMBER OF VALENCE ORBITALS:       21   (  21A   )


 NUCLEAR REPULSION ENERGY  125.50898393


 Eigenvalues of metric

         1 0.114E-04 0.526E-04 0.592E-04 0.623E-04 0.650E-04 0.777E-04 0.863E-04 0.119E-03


 Contracted 2-electron integrals neglected if value below      1.0D-12
 AO integral compression algorithm  1   Integral accuracy      1.0D-12

     25402.540 MB (compressed) written to integral file ( 47.6%)

     Node minimum: 2795.504 MB, node maximum: 3572.236 MB


 NUMBER OF SORTED TWO-ELECTRON INTEGRALS:  765684240.     BUFFER LENGTH:  32768
 NUMBER OF SEGMENTS:  24  SEGMENT LENGTH:   31996696      RECORD LENGTH: 524288

 Memory used in sort:      32.55 MW

 SORT1 READ  6676531782. AND WROTE   709227359. INTEGRALS IN   2040 RECORDS. CPU TIME:    85.73 SEC, REAL TIME:    93.94 SEC
 SORT2 READ  5674632567. AND WROTE  6125639955. INTEGRALS IN 106016 RECORDS. CPU TIME:    14.13 SEC, REAL TIME:    20.35 SEC

 Node minimum:   765656570.  Node maximum:   765753420. integrals

 OPERATOR DM      FOR CENTER  0  COORDINATES:    0.000000    0.000000    0.000000


 **********************************************************************************************************************************
 DATASETS  * FILE   NREC   LENGTH (MB)   RECORD NAMES
              1      18       28.12       500      610      700      900      950      970     1000      129      960     1100   
                                          VAR    BASINP    GEOM    SYMINP    ZMAT    AOBASIS   BASIS     P2S    ABASIS      S 
                                         1400     1410     1200     1210     1080     1600     1650     1700   
                                           T        V       H0       H01     AOSYM     SMH    MOLCAS    OPER   

 PROGRAMS   *        TOTAL       INT
 CPU TIMES  *       136.27    136.14
 REAL TIME  *       154.03 SEC
 DISK USED  *        93.59 GB      
 GA USED    *         0.01 MB       (max)       0.00 MB       (current)
 **********************************************************************************************************************************


 PROGRAM * RHF-SCF (OPEN SHELL)       Authors: W. Meyer, H.-J. Werner


 NUMBER OF ELECTRONS:      17+   16-    SPACE SYMMETRY=1    SPIN SYMMETRY: Doublet 
 CONVERGENCE THRESHOLDS:    1.00E-05 (Density)    1.00E-07 (Energy)
 MAX. NUMBER OF ITERATIONS:       60
 INTERPOLATION TYPE:            DIIS
 INTERPOLATION STEPS:              2 (START)      1 (STEP)
 LEVEL SHIFTS:                 -0.60 (CLOSED) -0.30 (OPEN) 



 Orbital guess generated from atomic densities. Full valence occupancy:   25

 Molecular orbital dump at record        2100.2

 Initial alpha occupancy:  17
 Initial beta  occupancy:  16
 Wave function symmetry:    1

 ITERATION    DDIFF          GRAD             ENERGY        2-EL.EN.            DIPOLE MOMENTS         DIIS   ORB.
    1      0.000D+00      0.000D+00      -228.24111255    411.868355   -1.53087    0.87833    0.00017    0    start
    2      0.000D+00      0.311D-02      -228.30768278    414.288703   -1.27817    0.38609    0.24516    1    diag,B
    3      0.172D-02      0.141D-02      -228.32094412    413.996229   -1.22903    0.43675    0.18128    2    diag,B
    4      0.673D-03      0.515D-03      -228.32819192    414.102459   -1.13109    0.35494    0.22045    3    diag,B
    5      0.385D-03      0.323D-03      -228.33243438    414.150000   -1.07013    0.31328    0.23900    4    diag,B
    6      0.242D-03      0.225D-03      -228.33625899    414.170784   -1.01443    0.27072    0.25952    5    diag,B
    7      0.228D-03      0.178D-03      -228.33978412    414.198342   -0.95158    0.22846    0.27601    6    fixocc
    8      0.319D-03      0.824D-04      -228.34026525    414.232173   -0.93278    0.21420    0.28090    7    diag,B
    9      0.116D-03      0.428D-04      -228.34035502    414.233489   -0.92305    0.21167    0.28010    8    diag,B
   10      0.756D-04      0.141D-04      -228.34035701    414.235813   -0.92566    0.21339    0.27967    9    orth
   11      0.292D-04      0.121D-04      -228.34036040    414.232573   -0.92427    0.21383    0.27904    9    diag,B
   12      0.174D-04      0.388D-05      -228.34036071    414.232995   -0.92495    0.21406    0.27904    9    diag,B
   13      0.529D-05      0.140D-05      -228.34036077    414.232843   -0.92490    0.21408    0.27898    9    diag,B
   14      0.284D-05      0.478D-06      -228.34036077    414.232887   -0.92491    0.21407    0.27899    0    orth

 Final alpha occupancy:  17
 Final beta  occupancy:  16

 !RHF STATE 1.1 Energy               -228.340360769656
 Nuclear energy                       125.50898393
 One-electron energy                 -560.96578840
 Two-electron energy                  207.11644370
 Virial quotient                       -1.00086914
 !RHF STATE 1.1 Dipole moment          -0.92491228     0.21407402     0.27898709
 Dipole moment /Debye                  -2.35073856     0.54408626     0.70906802

 Orbital energies:

         1.1          2.1          3.1          4.1          5.1          6.1          7.1          8.1          9.1         10.1
    -20.651607   -20.644772   -11.295783   -11.229386    -1.530362    -1.165219    -1.016246    -0.856360    -0.700660    -0.688076

        11.1         12.1         13.1         14.1         15.1         16.1         17.1         18.1         19.1
     -0.645599    -0.599817    -0.557560    -0.521072    -0.510902    -0.470590    -0.564904     0.045039     0.048856

 HOMO     17.1    -0.564904 =     -15.3718eV
 LUMO     18.1     0.045039 =       1.2256eV
 LUMO-HOMO         0.609944 =      16.5974eV


 **********************************************************************************************************************************
 DATASETS  * FILE   NREC   LENGTH (MB)   RECORD NAMES
              1      18       28.12       500      610      700      900      950      970     1000      129      960     1100   
                                          VAR    BASINP    GEOM    SYMINP    ZMAT    AOBASIS   BASIS     P2S    ABASIS      S 
                                         1400     1410     1200     1210     1080     1600     1650     1700   
                                           T        V       H0       H01     AOSYM     SMH    MOLCAS    OPER   

              2       4        9.16       700     1000      520     2100   
                                         GEOM     BASIS   MCVARS     RHF  

 PROGRAMS   *        TOTAL       RHF       INT
 CPU TIMES  *       262.98    126.70    136.14
 REAL TIME  *       290.60 SEC
 DISK USED  *        94.14 GB      
 SF USED    *         0.89 MB      
 GA USED    *         0.01 MB       (max)       0.00 MB       (current)
 **********************************************************************************************************************************


 PROGRAM * CCSD (Unrestricted open-shell coupled cluster)     Authors: C. Hampel, H.-J. Werner, 1991, M. Deegan, P.J. Knowles, 1992


 Convergence thresholds:  THRVAR = 1.00D-08  THRDEN = 1.00D-06

 Number of core orbitals:           4 (   4 )
 Number of closed-shell orbitals:  12 (  12 )
 Number of active  orbitals:        1 (   1 )
 Number of external orbitals:     453 ( 453 )

 Number of N-1 electron functions:              25
 Number of N-2 electron functions:             300
 Number of singly external CSFs:             11350
 Number of doubly external CSFs:          46961760
 Total number of CSFs:                    46973110

 Molecular orbitals read from record     2100.2  Type=RHF/CANONICAL (state 1.1)

 Integral transformation finished. Total CPU: 189.49 sec, npass=  1  Memory used: 766.42 MW

 Starting RMP2 calculation

 ITER.      SQ.NORM     CORR.ENERGY   TOTAL ENERGY   ENERGY CHANGE        DEN1      VAR(S)    VAR(P)  DIIS     TIME
   1      1.21913854    -0.85652627  -229.19688704    -0.85652627    -0.00263316  0.32D-04  0.91D-03  1  1   203.85
   2      1.22142329    -0.85936508  -229.19972585    -0.00283881    -0.00000694  0.13D-05  0.24D-05  2  2   210.27
   3      1.22150466    -0.85941730  -229.19977807    -0.00005221    -0.00000009  0.67D-07  0.14D-07  3  3   217.20
   4      1.22150772    -0.85941760  -229.19977837    -0.00000030    -0.00000000  0.20D-08  0.18D-09  4  4   224.51

 Norm of t1 vector:      0.04788319      S-energy:    -0.00461692      T1 diagnostic:  0.00087961
 Norm of t2 vector:      0.46820393      P-energy:    -0.85480068
                                         Alpha-Beta:  -0.65631255
                                         Alpha-Alpha: -0.10392453
                                         Beta-Beta:   -0.09456360

 Spin contamination <S**2-Sz**2-Sz>     0.00219464
  Reference energy                   -228.340360769657
  RHF-RMP2 correlation energy          -0.859417601031
 !RHF-RMP2 energy                    -229.199778370688

 Starting UCCSD calculation

 ITER.      SQ.NORM     CORR.ENERGY   TOTAL ENERGY   ENERGY CHANGE        DEN1      VAR(S)    VAR(P)  DIIS     TIME
   1      1.22637576    -0.85440530  -229.19476607    -0.85440530    -0.02496479  0.63D-02  0.41D-02  1  1   396.96
   2      1.24777032    -0.87599362  -229.21635439    -0.02158832    -0.00348574  0.71D-03  0.88D-03  2  2   563.04
   3      1.26386872    -0.88232059  -229.22268136    -0.00632697    -0.00090739  0.75D-03  0.76D-04  3  3   737.45
   4      1.27463188    -0.88481985  -229.22518062    -0.00249927    -0.00041005  0.33D-03  0.35D-04  4  4   913.17
   5      1.29113120    -0.88702071  -229.22738148    -0.00220085    -0.00011736  0.10D-03  0.91D-05  5  5  1088.52
   6      1.30272304    -0.88804614  -229.22840691    -0.00102543    -0.00001811  0.95D-05  0.31D-05  6  6  1265.17
   7      1.30655315    -0.88830660  -229.22866737    -0.00026046    -0.00000346  0.16D-05  0.71D-06  6  2  1431.30
   8      1.30701582    -0.88833988  -229.22870065    -0.00003328    -0.00000070  0.27D-06  0.17D-06  6  1  1601.89
   9      1.30723610    -0.88835385  -229.22871462    -0.00001397    -0.00000018  0.10D-06  0.35D-07  6  2  1773.73
  10      1.30734064    -0.88836287  -229.22872364    -0.00000902    -0.00000003  0.11D-07  0.67D-08  6  3  1942.60
  11      1.30730748    -0.88835573  -229.22871649     0.00000714    -0.00000000  0.31D-08  0.84D-09  6  4  2108.44
  12      1.30734398    -0.88835873  -229.22871950    -0.00000301    -0.00000000  0.16D-08  0.17D-09  6  5  2274.78
  13      1.30733748    -0.88835742  -229.22871819     0.00000131    -0.00000000  0.11D-08  0.72D-10  6  6  2434.43
  14      1.30733660    -0.88835746  -229.22871823    -0.00000004    -0.00000000  0.84D-09  0.46D-10  6  1  2594.09

 Norm of t1 vector:      0.23218068      S-energy:    -0.00521863      T1 diagnostic:  0.03172849
                                                                       D1 diagnostic:  0.14617391
 Norm of t2 vector:      0.50341706      P-energy:    -0.88313884
                                         Alpha-Beta:  -0.70005713
                                         Alpha-Alpha: -0.09453013
                                         Beta-Beta:   -0.08855158

 Singles amplitudes (print threshold =  0.500E-01):

         I         SYM. A    A   T(IA) [Beta-Beta]

         6         1         1      0.05152310
         7         1         1     -0.12095749
        10         1         1      0.09553692
        11         1         1     -0.10842032

 Spin contamination <S**2-Sz**2-Sz>     0.00276896


 RESULTS
 =======

  Reference energy                   -228.340360769657
  UCCSD singles energy                 -0.005218625001
  UCCSD pair energy                    -0.883138836681
  UCCSD correlation energy             -0.888357461682

 !RHF-UCCSD energy                   -229.228718231339

 Program statistics:

 Available memory in ccsd:               999998418
 Min. memory needed in ccsd:             132483879
 Max. memory used in ccsd:               191452673
 Max. memory used in cckext:             137579722 (14 integral passes)
 Max. memory used in cckint:             766416154 ( 1 integral passes)



 **********************************************************************************************************************************
 DATASETS  * FILE   NREC   LENGTH (MB)   RECORD NAMES
              1      18       28.12       500      610      700      900      950      970     1000      129      960     1100   
                                          VAR    BASINP    GEOM    SYMINP    ZMAT    AOBASIS   BASIS     P2S    ABASIS      S 
                                         1400     1410     1200     1210     1080     1600     1650     1700   
                                           T        V       H0       H01     AOSYM     SMH    MOLCAS    OPER   

              2       4        9.16       700     1000      520     2100   
                                         GEOM     BASIS   MCVARS     RHF  

 PROGRAMS   *        TOTAL     UCCSD       RHF       INT
 CPU TIMES  *      2858.23   2595.26    126.70    136.14
 REAL TIME  *      3008.90 SEC
 DISK USED  *       141.38 GB      
 SF USED    *        14.68 GB      
 GA USED    *         0.01 MB       (max)       0.00 MB       (current)
 **********************************************************************************************************************************

 UCCSD/O=AVQZ,C=AVQZ,H=VQZ energy=   -229.228718231339

        UCCSD           RHF-SCF 
   -229.22871823   -228.34036077
 **********************************************************************************************************************************
 Molpro calculation terminated
 Variable memory released
