
 Primary working directories    : /home/saurabh/molpro_temp2
 Secondary working directories  : /home/saurabh/molpro_temp2
 Wavefunction directory         : /home/saurabh/molpro_wfn2/
 Main file repository           : /home/saurabh/molpro_temp2/

 SHA1      : f6387f0c468d0184d0b38d85973bdb066f718752
 NAME      : 2015.1.44
 ARCHNAME  : linux/x86_64
 FC        : /opt/may/bin/gfortran
 BLASLIB   : -Wl,-_start-group /opt/intel/mkl/lib/intel64/libmkl_gf_ilp64.a /opt/intel/mkl/lib/intel64/libmkl_gnu_thread.a /opt/intel/mkl/lib/intel64/libmkl_core.a -Wl,-_end-group
 id        : ramakrishnan

 Nodes                 nprocs
 mediawiki.tifrh.res.in    8

 Using customized tuning parameters: mindgm=1; mindgv=20; mindgc=4; mindgr=1; noblas=0; minvec=7
 default implementation of scratch files=sf  

 ***,Mol_02
 memory,1,g
 geometry={
 C -0.628289 0.599487 0.247067
 C -1.499568 -0.547713 -0.097004
 H -1.596165 -0.855521 -1.129307
 H -2.080856 -1.061477 0.653815
 O 0.653814 0.562643 -0.390053
 O 1.425527 -0.492625 0.239674
 H 1.344850 -1.200414 -0.414032
 H -1.038456 1.544758 -0.134193
 H -0.496949 0.701865 1.326367
  }
 basis,O=AVDZ,C=AVDZ,H=VDZ
 {rhf
 wf,33,1,1
 }
 uccsd(t);
 

 Variables initialized (889), CPU time= 0.01 sec
 Commands  initialized (702), CPU time= 0.01 sec, 572 directives.
 Default parameters read. Elapsed time= 0.05 sec

 Checking input...
 Passed
1


                                         ***  PROGRAM SYSTEM MOLPRO  ***
                                       Copyright, TTI GmbH Stuttgart, 2015
                                    Version 2015.1 linked Jun  9 2019 06:55:40


 **********************************************************************************************************************************
 LABEL *   Mol_02                                                                        
  64 bit mpp version                                                                     DATE: 20-Jun-22          TIME: 08:57:54  
 **********************************************************************************************************************************

 SHA1:             f6387f0c468d0184d0b38d85973bdb066f718752
 **********************************************************************************************************************************

Geometry recognized as XYZ


 Variable memory set to 1000000000 words,  buffer space   230000 words

 SETTING BASIS          =    O=AVDZ,C=AVDZ,H=VDZ


 Recomputing integrals since basis changed


 Using spherical harmonics

 Library entry C      S aug-cc-pVDZ          selected for orbital group  1
 Library entry C      P aug-cc-pVDZ          selected for orbital group  1
 Library entry C      D aug-cc-pVDZ          selected for orbital group  1
 Library entry H      S cc-pVDZ              selected for orbital group  2
 Library entry H      P cc-pVDZ              selected for orbital group  2
 Library entry O      S aug-cc-pVDZ          selected for orbital group  3
 Library entry O      P aug-cc-pVDZ          selected for orbital group  3
 Library entry O      D aug-cc-pVDZ          selected for orbital group  3


 PROGRAM * SEWARD (Integral evaluation for generally contracted gaussian basis sets)     Author: Roland Lindh, 1990

 Geometry written to block  1 of record 700


 Point group  C1  



 ATOMIC COORDINATES

 NR  ATOM    CHARGE       X              Y              Z

   1  C       6.00   -1.187294137    1.132866245    0.466888964
   2  C       6.00   -2.833772825   -1.035027565   -0.183310993
   3  H       1.00   -3.016314700   -1.616700384   -2.134080941
   4  H       1.00   -3.932247945   -2.005900818    1.235531286
   5  O       8.00    1.235529396    1.063241176   -0.737093344
   6  O       8.00    2.693855613   -0.930926332    0.452918219
   7  H       1.00    2.541398179   -2.268453696   -0.782407087
   8  H       1.00   -1.962397432    2.919169549   -0.253588018
   9  H       1.00   -0.939097508    1.326332626    2.506470371

 Bond lengths in Bohr (Angstrom)

 1-2  2.798823972  1-5  2.706380410  1-8  2.076234980  1-9  2.063715853  2-3  2.043812172
     ( 1.481073863)     ( 1.432154837)     ( 1.098696236)     ( 1.092071399)     ( 1.081538825)

 2-4  2.040185255  5-6  2.742179229  6-7  1.827088211
     ( 1.079619543)     ( 1.451098756)     ( 0.966853444)

 Bond angles

  1-2-3  119.65145592   1-2-4  121.58601378   1-5-6  107.56239272   2-1-5  113.78868167

  2-1-8  111.48014358   2-1-9  111.89820145   3-2-4  118.70269511   5-1-8  101.65200108

  5-1-9  109.53673643   5-6-7  101.22000488   8-1-9  107.89031547

 NUCLEAR CHARGE:                   33
 NUMBER OF PRIMITIVE AOS:         183
 NUMBER OF SYMMETRY AOS:          175
 NUMBER OF CONTRACTIONS:          117   ( 117A   )
 NUMBER OF CORE ORBITALS:           4   (   4A   )
 NUMBER OF VALENCE ORBITALS:       21   (  21A   )


 NUCLEAR REPULSION ENERGY  124.64283884

 Eigenvalues of metric

         1 0.246E-03 0.262E-03 0.100E-02 0.213E-02 0.307E-02 0.507E-02 0.631E-02 0.736E-02


 Contracted 2-electron integrals neglected if value below      1.0D-11
 AO integral compression algorithm  1   Integral accuracy      1.0D-11

     120.062 MB (compressed) written to integral file ( 53.1%)

     Node minimum: 13.107 MB, node maximum: 16.253 MB


 NUMBER OF SORTED TWO-ELECTRON INTEGRALS:    2975624.     BUFFER LENGTH:  32768
 NUMBER OF SEGMENTS:   1  SEGMENT LENGTH:    2975624      RECORD LENGTH: 524288

 Memory used in sort:       3.53 MW

 SORT1 READ    28174979. AND WROTE     2950044. INTEGRALS IN      9 RECORDS. CPU TIME:     0.34 SEC, REAL TIME:     0.39 SEC
 SORT2 READ    23641559. AND WROTE    23829156. INTEGRALS IN    400 RECORDS. CPU TIME:     0.05 SEC, REAL TIME:     0.09 SEC

 Node minimum:     2975624.  Node maximum:     2981665. integrals

 OPERATOR DM      FOR CENTER  0  COORDINATES:    0.000000    0.000000    0.000000


 **********************************************************************************************************************************
 DATASETS  * FILE   NREC   LENGTH (MB)   RECORD NAMES
              1      18       20.53       500      610      700      900      950      970     1000      129      960     1100   
                                          VAR    BASINP    GEOM    SYMINP    ZMAT    AOBASIS   BASIS     P2S    ABASIS      S 
                                         1400     1410     1200     1210     1080     1600     1650     1700   
                                           T        V       H0       H01     AOSYM     SMH    MOLCAS    OPER   

 PROGRAMS   *        TOTAL       INT
 CPU TIMES  *         0.87      0.74
 REAL TIME  *         1.50 SEC
 DISK USED  *       405.63 MB      
 GA USED    *         0.00 MB       (max)       0.00 MB       (current)
 **********************************************************************************************************************************


 PROGRAM * RHF-SCF (OPEN SHELL)       Authors: W. Meyer, H.-J. Werner


 NUMBER OF ELECTRONS:      17+   16-    SPACE SYMMETRY=1    SPIN SYMMETRY: Doublet 
 CONVERGENCE THRESHOLDS:    1.00E-05 (Density)    1.00E-07 (Energy)
 MAX. NUMBER OF ITERATIONS:       60
 INTERPOLATION TYPE:            DIIS
 INTERPOLATION STEPS:              2 (START)      1 (STEP)
 LEVEL SHIFTS:                 -0.60 (CLOSED) -0.30 (OPEN) 



 Orbital guess generated from atomic densities. Full valence occupancy:   25

 Molecular orbital dump at record        2100.2

 Initial alpha occupancy:  17
 Initial beta  occupancy:  16
 Wave function symmetry:    1

 ITERATION    DDIFF          GRAD             ENERGY        2-EL.EN.            DIPOLE MOMENTS         DIIS   ORB.
    1      0.000D+00      0.000D+00      -228.17829477    412.073532   -0.82269   -0.43772   -0.27249    0    start
    2      0.000D+00      0.473D-02      -228.22256100    412.874927   -0.76544   -0.45564   -0.13963    1    diag,B
    3      0.615D-02      0.163D-02      -228.23259153    412.882368   -0.75498   -0.42953   -0.13576    2    diag,B
    4      0.258D-02      0.715D-03      -228.23558454    412.935638   -0.75636   -0.43316   -0.11835    3    diag,B
    5      0.133D-02      0.271D-03      -228.23611352    412.935832   -0.76429   -0.43013   -0.11969    4    diag,B
    6      0.544D-03      0.105D-03      -228.23620884    412.931175   -0.77106   -0.43093   -0.11828    5    diag,B
    7      0.283D-03      0.357D-04      -228.23622015    412.931280   -0.77394   -0.43058   -0.11792    6    fixocc
    8      0.110D-03      0.137D-04      -228.23622195    412.931520   -0.77509   -0.43030   -0.11786    7    diag,B
    9      0.512D-04      0.491D-05      -228.23622219    412.931825   -0.77549   -0.43009   -0.11790    8    diag,B
   10      0.178D-04      0.197D-05      -228.23622223    412.931765   -0.77564   -0.42998   -0.11792    9    orth
   11      0.727D-05      0.764D-06      -228.23622224    412.931798   -0.77566   -0.42996   -0.11793    0    orth

 Final alpha occupancy:  17
 Final beta  occupancy:  16

 !RHF STATE 1.1 Energy               -228.236222237531
 Nuclear energy                       124.64283884
 One-electron energy                 -559.34496007
 Two-electron energy                  206.46589900
 Virial quotient                       -1.00142950
 !RHF STATE 1.1 Dipole moment          -0.77565884    -0.42995830    -0.11792606
 Dipole moment /Debye                  -1.97139899    -1.09277340    -0.29971852

 Orbital energies:

         1.1          2.1          3.1          4.1          5.1          6.1          7.1          8.1          9.1         10.1
    -20.633020   -20.630279   -11.298920   -11.243150    -1.474737    -1.230734    -1.001317    -0.828651    -0.725432    -0.659354

        11.1         12.1         13.1         14.1         15.1         16.1         17.1         18.1         19.1
     -0.643626    -0.617669    -0.559205    -0.524345    -0.484806    -0.461967    -0.378755     0.063197     0.079565

 HOMO     17.1    -0.378755 =     -10.3064eV
 LUMO     18.1     0.063197 =       1.7197eV
 LUMO-HOMO         0.441952 =      12.0261eV


 **********************************************************************************************************************************
 DATASETS  * FILE   NREC   LENGTH (MB)   RECORD NAMES
              1      18       20.53       500      610      700      900      950      970     1000      129      960     1100   
                                          VAR    BASINP    GEOM    SYMINP    ZMAT    AOBASIS   BASIS     P2S    ABASIS      S 
                                         1400     1410     1200     1210     1080     1600     1650     1700   
                                           T        V       H0       H01     AOSYM     SMH    MOLCAS    OPER   

              2       4        3.28       700     1000      520     2100   
                                         GEOM     BASIS   MCVARS     RHF  

 PROGRAMS   *        TOTAL       RHF       INT
 CPU TIMES  *         1.23      0.36      0.74
 REAL TIME  *         1.92 SEC
 DISK USED  *       612.49 MB      
 SF USED    *         0.06 MB      
 GA USED    *         0.00 MB       (max)       0.00 MB       (current)
 **********************************************************************************************************************************


 PROGRAM * CCSD (Unrestricted open-shell coupled cluster)     Authors: C. Hampel, H.-J. Werner, 1991, M. Deegan, P.J. Knowles, 1992


 Convergence thresholds:  THRVAR = 1.00D-08  THRDEN = 1.00D-06

 CCSD(T)     terms to be evaluated (factor= 1.000)


 Number of core orbitals:           4 (   4 )
 Number of closed-shell orbitals:  12 (  12 )
 Number of active  orbitals:        1 (   1 )
 Number of external orbitals:     100 ( 100 )

 Memory could be reduced to 29.58 Mwords without degradation in triples

 Number of N-1 electron functions:              25
 Number of N-2 electron functions:             300
 Number of singly external CSFs:              2525
 Number of doubly external CSFs:           2318556
 Total number of CSFs:                     2321081

 Molecular orbitals read from record     2100.2  Type=RHF/CANONICAL (state 1.1)

 Integral transformation finished. Total CPU:   0.87 sec, npass=  1  Memory used:  13.67 MW

 Starting RMP2 calculation

 ITER.      SQ.NORM     CORR.ENERGY   TOTAL ENERGY   ENERGY CHANGE        DEN1      VAR(S)    VAR(P)  DIIS     TIME
   1      1.20530100    -0.67271152  -228.90893376    -0.67271152    -0.00245219  0.11D-04  0.89D-03  1  1     1.13
   2      1.20742755    -0.67534476  -228.91156700    -0.00263324    -0.00000275  0.14D-06  0.12D-05  2  2     1.35
   3      1.20747496    -0.67537598  -228.91159822    -0.00003122    -0.00000001  0.47D-08  0.33D-08  3  3     1.59
   4      1.20747537    -0.67537593  -228.91159817     0.00000005    -0.00000000  0.11D-09  0.11D-10  4  4     1.85

 Norm of t1 vector:      0.04103006      S-energy:    -0.00258162      T1 diagnostic:  0.00026506
 Norm of t2 vector:      0.45364293      P-energy:    -0.67279432
                                         Alpha-Beta:  -0.50421950
                                         Alpha-Alpha: -0.09043087
                                         Beta-Beta:   -0.07814395

 Spin contamination <S**2-Sz**2-Sz>     0.00117956
  Reference energy                   -228.236222237532
  RHF-RMP2 correlation energy          -0.675375932118
 !RHF-RMP2 energy                    -228.911598169649

 Starting UCCSD calculation

 ITER.      SQ.NORM     CORR.ENERGY   TOTAL ENERGY   ENERGY CHANGE        DEN1      VAR(S)    VAR(P)  DIIS     TIME
   1      1.21843215    -0.68673130  -228.92295354    -0.68673130    -0.02099264  0.35D-02  0.46D-02  1  1     4.63
   2      1.24172325    -0.70893240  -228.94515464    -0.02220110    -0.00162819  0.12D-03  0.56D-03  2  2     7.38
   3      1.24944522    -0.71258141  -228.94880365    -0.00364901    -0.00020062  0.87D-04  0.43D-04  3  3    10.14
   4      1.25253243    -0.71366143  -228.94988367    -0.00108002    -0.00002770  0.88D-05  0.81D-05  4  4    12.92
   5      1.25350629    -0.71383816  -228.95006039    -0.00017673    -0.00000637  0.42D-05  0.12D-05  5  5    15.72
   6      1.25390530    -0.71389193  -228.95011416    -0.00005377    -0.00000135  0.77D-06  0.29D-06  6  6    18.54
   7      1.25408207    -0.71391495  -228.95013719    -0.00002302    -0.00000036  0.28D-06  0.54D-07  6  1    21.45
   8      1.25413719    -0.71391741  -228.95013965    -0.00000246    -0.00000010  0.73D-07  0.19D-07  6  2    24.25
   9      1.25416665    -0.71391906  -228.95014130    -0.00000165    -0.00000003  0.26D-07  0.49D-08  6  3    27.08
  10      1.25417674    -0.71391946  -228.95014170    -0.00000040    -0.00000001  0.50D-08  0.15D-08  6  4    29.81

 Norm of t1 vector:      0.11338836      S-energy:    -0.00309965      T1 diagnostic:  0.01419201
                                                                       D1 diagnostic:  0.03207239
 Norm of t2 vector:      0.49124314      P-energy:    -0.71081982
                                         Alpha-Beta:  -0.55915758
                                         Alpha-Alpha: -0.08217943
                                         Beta-Beta:   -0.06948280

 Spin contamination <S**2-Sz**2-Sz>     0.00084365

 Memory could be reduced to 33.27 Mwords without degradation in triples


 RESULTS
 =======

  Reference energy                   -228.236222237532
  UCCSD singles energy                 -0.003099646983
  UCCSD pair energy                    -0.710819816305
  UCCSD correlation energy             -0.713919463288
  Triples (T) contribution             -0.023375641674
  Total correlation energy             -0.737295104962

  RHF-UCCSD energy                   -228.950141700819
  RHF-UCCSD[T] energy                -228.974778086159
  RHF-UCCSD-T energy                 -228.973034002895
 !RHF-UCCSD(T) energy                -228.973517342494

 Program statistics:

 Available memory in ccsd:               999998418
 Min. memory needed in ccsd:               6737227
 Max. memory used in ccsd:                 9622196
 Max. memory used in cckext:               8729608 (10 integral passes)
 Max. memory used in cckint:              13669786 ( 1 integral passes)



 **********************************************************************************************************************************
 DATASETS  * FILE   NREC   LENGTH (MB)   RECORD NAMES
              1      18       20.53       500      610      700      900      950      970     1000      129      960     1100   
                                          VAR    BASINP    GEOM    SYMINP    ZMAT    AOBASIS   BASIS     P2S    ABASIS      S 
                                         1400     1410     1200     1210     1080     1600     1650     1700   
                                           T        V       H0       H01     AOSYM     SMH    MOLCAS    OPER   

              2       4        3.28       700     1000      520     2100   
                                         GEOM     BASIS   MCVARS     RHF  

 PROGRAMS   *        TOTAL  UCCSD(T)       RHF       INT
 CPU TIMES  *        46.87     45.63      0.36      0.74
 REAL TIME  *        51.75 SEC
 DISK USED  *         2.95 GB      
 SF USED    *       596.05 MB      
 GA USED    *         0.00 MB       (max)       0.00 MB       (current)
 **********************************************************************************************************************************

 UCCSD(T)/O=AVDZ,C=AVDZ,H=VDZ energy=   -228.973517342494

        UCCSD(T)        RHF-SCF 
   -228.97351734   -228.23622224
 **********************************************************************************************************************************
 Molpro calculation terminated
 Variable memory released
