
 Primary working directories    : /home/saurabh/molpro_temp2
 Secondary working directories  : /home/saurabh/molpro_temp2
 Wavefunction directory         : /home/saurabh/molpro_wfn2/
 Main file repository           : /home/saurabh/molpro_temp2/

 SHA1      : f6387f0c468d0184d0b38d85973bdb066f718752
 NAME      : 2015.1.44
 ARCHNAME  : linux/x86_64
 FC        : /opt/may/bin/gfortran
 BLASLIB   : -Wl,-_start-group /opt/intel/mkl/lib/intel64/libmkl_gf_ilp64.a /opt/intel/mkl/lib/intel64/libmkl_gnu_thread.a /opt/intel/mkl/lib/intel64/libmkl_core.a -Wl,-_end-group
 id        : ramakrishnan

 Nodes                 nprocs
 mediawiki.tifrh.res.in    8

 Using customized tuning parameters: mindgm=1; mindgv=20; mindgc=4; mindgr=1; noblas=0; minvec=7
 default implementation of scratch files=sf  

 ***,Mol_02
 memory,1,g
 geometry={
 C -0.628289 0.599487 0.247067
 C -1.499568 -0.547713 -0.097004
 H -1.596165 -0.855521 -1.129307
 H -2.080856 -1.061477 0.653815
 O 0.653814 0.562643 -0.390053
 O 1.425527 -0.492625 0.239674
 H 1.344850 -1.200414 -0.414032
 H -1.038456 1.544758 -0.134193
 H -0.496949 0.701865 1.326367
  }
 basis,O=AVTZ,C=AVTZ,H=VTZ
 {rhf
 wf,33,1,1
 }
 uccsd(t);
 

 Variables initialized (889), CPU time= 0.01 sec
 Commands  initialized (702), CPU time= 0.01 sec, 572 directives.
 Default parameters read. Elapsed time= 0.05 sec

 Checking input...
 Passed
1


                                         ***  PROGRAM SYSTEM MOLPRO  ***
                                       Copyright, TTI GmbH Stuttgart, 2015
                                    Version 2015.1 linked Jun  9 2019 06:55:40


 **********************************************************************************************************************************
 LABEL *   Mol_02                                                                        
  64 bit mpp version                                                                     DATE: 20-Jun-22          TIME: 09:14:59  
 **********************************************************************************************************************************

 SHA1:             f6387f0c468d0184d0b38d85973bdb066f718752
 **********************************************************************************************************************************

Geometry recognized as XYZ


 Variable memory set to 1000000000 words,  buffer space   230000 words

 SETTING BASIS          =    O=AVTZ,C=AVTZ,H=VTZ


 Recomputing integrals since basis changed


 Using spherical harmonics

 Library entry C      S aug-cc-pVTZ          selected for orbital group  1
 Library entry C      P aug-cc-pVTZ          selected for orbital group  1
 Library entry C      D aug-cc-pVTZ          selected for orbital group  1
 Library entry C      F aug-cc-pVTZ          selected for orbital group  1
 Library entry H      S cc-pVTZ              selected for orbital group  2
 Library entry H      P cc-pVTZ              selected for orbital group  2
 Library entry H      D cc-pVTZ              selected for orbital group  2
 Library entry O      S aug-cc-pVTZ          selected for orbital group  3
 Library entry O      P aug-cc-pVTZ          selected for orbital group  3
 Library entry O      D aug-cc-pVTZ          selected for orbital group  3
 Library entry O      F aug-cc-pVTZ          selected for orbital group  3


 PROGRAM * SEWARD (Integral evaluation for generally contracted gaussian basis sets)     Author: Roland Lindh, 1990

 Geometry written to block  1 of record 700


 Point group  C1  



 ATOMIC COORDINATES

 NR  ATOM    CHARGE       X              Y              Z

   1  C       6.00   -1.187294137    1.132866245    0.466888964
   2  C       6.00   -2.833772825   -1.035027565   -0.183310993
   3  H       1.00   -3.016314700   -1.616700384   -2.134080941
   4  H       1.00   -3.932247945   -2.005900818    1.235531286
   5  O       8.00    1.235529396    1.063241176   -0.737093344
   6  O       8.00    2.693855613   -0.930926332    0.452918219
   7  H       1.00    2.541398179   -2.268453696   -0.782407087
   8  H       1.00   -1.962397432    2.919169549   -0.253588018
   9  H       1.00   -0.939097508    1.326332626    2.506470371

 Bond lengths in Bohr (Angstrom)

 1-2  2.798823972  1-5  2.706380410  1-8  2.076234980  1-9  2.063715853  2-3  2.043812172
     ( 1.481073863)     ( 1.432154837)     ( 1.098696236)     ( 1.092071399)     ( 1.081538825)

 2-4  2.040185255  5-6  2.742179229  6-7  1.827088211
     ( 1.079619543)     ( 1.451098756)     ( 0.966853444)

 Bond angles

  1-2-3  119.65145592   1-2-4  121.58601378   1-5-6  107.56239272   2-1-5  113.78868167

  2-1-8  111.48014358   2-1-9  111.89820145   3-2-4  118.70269511   5-1-8  101.65200108

  5-1-9  109.53673643   5-6-7  101.22000488   8-1-9  107.89031547

 NUCLEAR CHARGE:                   33
 NUMBER OF PRIMITIVE AOS:         353
 NUMBER OF SYMMETRY AOS:          312
 NUMBER OF CONTRACTIONS:          254   ( 254A   )
 NUMBER OF CORE ORBITALS:           4   (   4A   )
 NUMBER OF VALENCE ORBITALS:       21   (  21A   )


 NUCLEAR REPULSION ENERGY  124.64283884


 Eigenvalues of metric

         1 0.452E-04 0.137E-03 0.246E-03 0.381E-03 0.420E-03 0.430E-03 0.595E-03 0.658E-03


 Contracted 2-electron integrals neglected if value below      1.0D-12
 AO integral compression algorithm  1   Integral accuracy      1.0D-12

     2523.136 MB (compressed) written to integral file ( 53.5%)

     Node minimum: 277.348 MB, node maximum: 347.079 MB


 NUMBER OF SORTED TWO-ELECTRON INTEGRALS:   65561408.     BUFFER LENGTH:  32768
 NUMBER OF SEGMENTS:   5  SEGMENT LENGTH:   15996384      RECORD LENGTH: 524288

 Memory used in sort:      16.55 MW

 SORT1 READ   589742800. AND WROTE    63600663. INTEGRALS IN    184 RECORDS. CPU TIME:     7.11 SEC, REAL TIME:     7.81 SEC
 SORT2 READ   508408472. AND WROTE   524410305. INTEGRALS IN   8464 RECORDS. CPU TIME:     1.01 SEC, REAL TIME:     1.83 SEC

 Node minimum:    65537120.  Node maximum:    65565457. integrals

 OPERATOR DM      FOR CENTER  0  COORDINATES:    0.000000    0.000000    0.000000


 **********************************************************************************************************************************
 DATASETS  * FILE   NREC   LENGTH (MB)   RECORD NAMES
              1      18       22.41       500      610      700      900      950      970     1000      129      960     1100   
                                          VAR    BASINP    GEOM    SYMINP    ZMAT    AOBASIS   BASIS     P2S    ABASIS      S 
                                         1400     1410     1200     1210     1080     1600     1650     1700   
                                           T        V       H0       H01     AOSYM     SMH    MOLCAS    OPER   

 PROGRAMS   *        TOTAL       INT
 CPU TIMES  *        10.84     10.71
 REAL TIME  *        13.09 SEC
 DISK USED  *         8.59 GB      
 GA USED    *         0.00 MB       (max)       0.00 MB       (current)
 **********************************************************************************************************************************


 PROGRAM * RHF-SCF (OPEN SHELL)       Authors: W. Meyer, H.-J. Werner


 NUMBER OF ELECTRONS:      17+   16-    SPACE SYMMETRY=1    SPIN SYMMETRY: Doublet 
 CONVERGENCE THRESHOLDS:    1.00E-05 (Density)    1.00E-07 (Energy)
 MAX. NUMBER OF ITERATIONS:       60
 INTERPOLATION TYPE:            DIIS
 INTERPOLATION STEPS:              2 (START)      1 (STEP)
 LEVEL SHIFTS:                 -0.60 (CLOSED) -0.30 (OPEN) 



 Orbital guess generated from atomic densities. Full valence occupancy:   25

 Molecular orbital dump at record        2100.2

 Initial alpha occupancy:  17
 Initial beta  occupancy:  16
 Wave function symmetry:    1

 ITERATION    DDIFF          GRAD             ENERGY        2-EL.EN.            DIPOLE MOMENTS         DIIS   ORB.
    1      0.000D+00      0.000D+00      -228.23342394    412.577515   -0.85749   -0.43892   -0.26466    0    start
    2      0.000D+00      0.329D-02      -228.27900855    413.150190   -0.77566   -0.44864   -0.13811    1    diag,B
    3      0.263D-02      0.110D-02      -228.28909258    413.173081   -0.75881   -0.42331   -0.13536    2    diag,B
    4      0.104D-02      0.491D-03      -228.29229159    413.222716   -0.75463   -0.42453   -0.11873    3    diag,B
    5      0.588D-03      0.190D-03      -228.29287537    413.227350   -0.75988   -0.42087   -0.11974    4    diag,B
    6      0.258D-03      0.739D-04      -228.29298371    413.224946   -0.76534   -0.42195   -0.11836    5    diag,B
    7      0.143D-03      0.260D-04      -228.29299782    413.223552   -0.76817   -0.42196   -0.11815    6    fixocc
    8      0.558D-04      0.931D-05      -228.29299975    413.223859   -0.76926   -0.42181   -0.11809    7    diag,B
    9      0.248D-04      0.355D-05      -228.29300007    413.223983   -0.76966   -0.42161   -0.11810    8    diag,B
   10      0.105D-04      0.139D-05      -228.29300012    413.224127   -0.76981   -0.42150   -0.11811    9    orth
   11      0.478D-05      0.532D-06      -228.29300012    413.224071   -0.76982   -0.42148   -0.11812    0    orth

 Final alpha occupancy:  17
 Final beta  occupancy:  16

 !RHF STATE 1.1 Energy               -228.293000122589
 Nuclear energy                       124.64283884
 One-electron energy                 -559.54787437
 Two-electron energy                  206.61203541
 Virial quotient                       -1.00164501
 !RHF STATE 1.1 Dipole moment          -0.76982022    -0.42147930    -0.11811875
 Dipole moment /Debye                  -1.95655967    -1.07122337    -0.30020825

 Orbital energies:

         1.1          2.1          3.1          4.1          5.1          6.1          7.1          8.1          9.1         10.1
    -20.624481   -20.621526   -11.291823   -11.237175    -1.469941    -1.226449    -0.999403    -0.827321    -0.724242    -0.658777

        11.1         12.1         13.1         14.1         15.1         16.1         17.1         18.1         19.1
     -0.642856    -0.617339    -0.559349    -0.524438    -0.484772    -0.462396    -0.379197     0.051210     0.063941

 HOMO     17.1    -0.379197 =     -10.3185eV
 LUMO     18.1     0.051210 =       1.3935eV
 LUMO-HOMO         0.430407 =      11.7120eV


 **********************************************************************************************************************************
 DATASETS  * FILE   NREC   LENGTH (MB)   RECORD NAMES
              1      18       22.41       500      610      700      900      950      970     1000      129      960     1100   
                                          VAR    BASINP    GEOM    SYMINP    ZMAT    AOBASIS   BASIS     P2S    ABASIS      S 
                                         1400     1410     1200     1210     1080     1600     1650     1700   
                                           T        V       H0       H01     AOSYM     SMH    MOLCAS    OPER   

              2       4        4.74       700     1000      520     2100   
                                         GEOM     BASIS   MCVARS     RHF  

 PROGRAMS   *        TOTAL       RHF       INT
 CPU TIMES  *        18.60      7.75     10.71
 REAL TIME  *        21.60 SEC
 DISK USED  *         8.88 GB      
 SF USED    *         0.26 MB      
 GA USED    *         0.00 MB       (max)       0.00 MB       (current)
 **********************************************************************************************************************************


 PROGRAM * CCSD (Unrestricted open-shell coupled cluster)     Authors: C. Hampel, H.-J. Werner, 1991, M. Deegan, P.J. Knowles, 1992


 Convergence thresholds:  THRVAR = 1.00D-08  THRDEN = 1.00D-06

 CCSD(T)     terms to be evaluated (factor= 1.000)


 Number of core orbitals:           4 (   4 )
 Number of closed-shell orbitals:  12 (  12 )
 Number of active  orbitals:        1 (   1 )
 Number of external orbitals:     237 ( 237 )

 Memory could be reduced to 306.43 Mwords without degradation in triples

 Number of N-1 electron functions:              25
 Number of N-2 electron functions:             300
 Number of singly external CSFs:              5950
 Number of doubly external CSFs:          12897696
 Total number of CSFs:                    12903646

 Molecular orbitals read from record     2100.2  Type=RHF/CANONICAL (state 1.1)

 Integral transformation finished. Total CPU:  17.00 sec, npass=  1  Memory used: 126.31 MW

 Starting RMP2 calculation

 ITER.      SQ.NORM     CORR.ENERGY   TOTAL ENERGY   ENERGY CHANGE        DEN1      VAR(S)    VAR(P)  DIIS     TIME
   1      1.22133794    -0.81872393  -229.11172405    -0.81872393    -0.00251751  0.11D-04  0.91D-03  1  1    19.11
   2      1.22348757    -0.82141779  -229.11441791    -0.00269386    -0.00000302  0.14D-06  0.13D-05  2  2    20.50
   3      1.22354132    -0.82145551  -229.11445563    -0.00003772    -0.00000001  0.52D-08  0.41D-08  3  3    22.15
   4      1.22354188    -0.82145544  -229.11445556     0.00000007    -0.00000000  0.14D-09  0.14D-10  4  4    23.90

 Norm of t1 vector:      0.04191625      S-energy:    -0.00278771      T1 diagnostic:  0.00027023
 Norm of t2 vector:      0.47094045      P-energy:    -0.81866773
                                         Alpha-Beta:  -0.62203128
                                         Alpha-Alpha: -0.10568411
                                         Beta-Beta:   -0.09095233

 Spin contamination <S**2-Sz**2-Sz>     0.00111821
  Reference energy                   -228.293000122588
  RHF-RMP2 correlation energy          -0.821455440170
 !RHF-RMP2 energy                    -229.114455562758

 Starting UCCSD calculation

 ITER.      SQ.NORM     CORR.ENERGY   TOTAL ENERGY   ENERGY CHANGE        DEN1      VAR(S)    VAR(P)  DIIS     TIME
   1      1.22775864    -0.82193454  -229.11493466    -0.82193454    -0.02257298  0.34D-02  0.44D-02  1  1    47.82
   2      1.24806601    -0.84350457  -229.13650470    -0.02157004    -0.00195295  0.14D-03  0.63D-03  2  2    71.14
   3      1.25606120    -0.84770511  -229.14070523    -0.00420054    -0.00021120  0.83D-04  0.45D-04  3  3    94.43
   4      1.25925849    -0.84891162  -229.14191174    -0.00120651    -0.00003066  0.98D-05  0.84D-05  4  4   117.87
   5      1.26025825    -0.84910170  -229.14210182    -0.00019008    -0.00000738  0.51D-05  0.12D-05  5  5   141.38
   6      1.26069671    -0.84916515  -229.14216528    -0.00006345    -0.00000159  0.93D-06  0.30D-06  6  6   165.06
   7      1.26089686    -0.84918661  -229.14218673    -0.00002146    -0.00000040  0.31D-06  0.57D-07  6  1   188.80
   8      1.26094546    -0.84918904  -229.14218916    -0.00000243    -0.00000012  0.86D-07  0.21D-07  6  2   213.56
   9      1.26098054    -0.84919093  -229.14219105    -0.00000188    -0.00000004  0.31D-07  0.51D-08  6  3   237.03
  10      1.26099252    -0.84919298  -229.14219310    -0.00000205    -0.00000001  0.63D-08  0.15D-08  6  4   260.71
  11      1.26099126    -0.84919114  -229.14219127     0.00000184    -0.00000000  0.12D-08  0.45D-09  6  6   284.13
  12      1.26099274    -0.84919065  -229.14219077     0.00000049    -0.00000000  0.25D-09  0.70D-10  6  5   307.74

 Norm of t1 vector:      0.10723108      S-energy:    -0.00326152      T1 diagnostic:  0.01323625
                                                                       D1 diagnostic:  0.02891965
 Norm of t2 vector:      0.49949398      P-energy:    -0.84592913
                                         Alpha-Beta:  -0.66872514
                                         Alpha-Alpha: -0.09610490
                                         Beta-Beta:   -0.08109908

 Spin contamination <S**2-Sz**2-Sz>     0.00090944

 Memory could be reduced to 326.84 Mwords without degradation in triples


 RESULTS
 =======

  Reference energy                   -228.293000122588
  UCCSD singles energy                 -0.003261521525
  UCCSD pair energy                    -0.845929130506
  UCCSD correlation energy             -0.849190652030
  Triples (T) contribution             -0.034637512351
  Total correlation energy             -0.883828164382

  RHF-UCCSD energy                   -229.142190774619
  RHF-UCCSD[T] energy                -229.178092126701
  RHF-UCCSD-T energy                 -229.176239555917
 !RHF-UCCSD(T) energy                -229.176828286970

 Program statistics:

 Available memory in ccsd:               999998418
 Min. memory needed in ccsd:              36661651
 Max. memory used in ccsd:                52819029
 Max. memory used in cckext:              40550281 (12 integral passes)
 Max. memory used in cckint:             126311224 ( 1 integral passes)



 **********************************************************************************************************************************
 DATASETS  * FILE   NREC   LENGTH (MB)   RECORD NAMES
              1      18       22.41       500      610      700      900      950      970     1000      129      960     1100   
                                          VAR    BASINP    GEOM    SYMINP    ZMAT    AOBASIS   BASIS     P2S    ABASIS      S 
                                         1400     1410     1200     1210     1080     1600     1650     1700   
                                           T        V       H0       H01     AOSYM     SMH    MOLCAS    OPER   

              2       4        4.74       700     1000      520     2100   
                                         GEOM     BASIS   MCVARS     RHF  

 PROGRAMS   *        TOTAL  UCCSD(T)       RHF       INT
 CPU TIMES  *       675.37    656.75      7.75     10.71
 REAL TIME  *       716.42 SEC
 DISK USED  *        21.86 GB      
 SF USED    *         5.62 GB      
 GA USED    *         0.00 MB       (max)       0.00 MB       (current)
 **********************************************************************************************************************************

 UCCSD(T)/O=AVTZ,C=AVTZ,H=VTZ energy=   -229.176828286970

        UCCSD(T)        RHF-SCF 
   -229.17682829   -228.29300012
 **********************************************************************************************************************************
 Molpro calculation terminated
 Variable memory released
