 Entering Gaussian System, Link 0=g16
 Input=Mol_01.com
 Output=Mol_01.log
 Initial command:
 /home/saurabh/gaussian/g16/l1.exe "/home/saurabh/gaussian/gauss_scr/Gau-24584.inp" -scrdir="/home/saurabh/gaussian/gauss_scr/"
 Entering Link 1 = /home/saurabh/gaussian/g16/l1.exe PID=     24585.
  
 Copyright (c) 1988-2019, Gaussian, Inc.  All Rights Reserved.
  
 This is part of the Gaussian(R) 16 program.  It is based on
 the Gaussian(R) 09 system (copyright 2009, Gaussian, Inc.),
 the Gaussian(R) 03 system (copyright 2003, Gaussian, Inc.),
 the Gaussian(R) 98 system (copyright 1998, Gaussian, Inc.),
 the Gaussian(R) 94 system (copyright 1995, Gaussian, Inc.),
 the Gaussian 92(TM) system (copyright 1992, Gaussian, Inc.),
 the Gaussian 90(TM) system (copyright 1990, Gaussian, Inc.),
 the Gaussian 88(TM) system (copyright 1988, Gaussian, Inc.),
 the Gaussian 86(TM) system (copyright 1986, Carnegie Mellon
 University), and the Gaussian 82(TM) system (copyright 1983,
 Carnegie Mellon University). Gaussian is a federally registered
 trademark of Gaussian, Inc.
  
 This software contains proprietary and confidential information,
 including trade secrets, belonging to Gaussian, Inc.
  
 This software is provided under written license and may be
 used, copied, transmitted, or stored only in accord with that
 written license.
  
 The following legend is applicable only to US Government
 contracts under FAR:
  
                    RESTRICTED RIGHTS LEGEND
  
 Use, reproduction and disclosure by the US Government is
 subject to restrictions as set forth in subparagraphs (a)
 and (c) of the Commercial Computer Software - Restricted
 Rights clause in FAR 52.227-19.
  
 Gaussian, Inc.
 340 Quinnipiac St., Bldg. 40, Wallingford CT 06492
  
  
 ---------------------------------------------------------------
 Warning -- This program may not be used in any manner that
 competes with the business of Gaussian, Inc. or will provide
 assistance to any competitor of Gaussian, Inc.  The licensee
 of this program is prohibited from giving any competitor of
 Gaussian, Inc. access to this program.  By using this program,
 the user acknowledges that Gaussian, Inc. is engaged in the
 business of creating and licensing software in the field of
 computational chemistry and represents and warrants to the
 licensee that it is not a competitor of Gaussian, Inc. and that
 it will not use this program in any manner prohibited above.
 ---------------------------------------------------------------
  

 Cite this work as:
 Gaussian 16, Revision C.01,
 M. J. Frisch, G. W. Trucks, H. B. Schlegel, G. E. Scuseria, 
 M. A. Robb, J. R. Cheeseman, G. Scalmani, V. Barone, 
 G. A. Petersson, H. Nakatsuji, X. Li, M. Caricato, A. V. Marenich, 
 J. Bloino, B. G. Janesko, R. Gomperts, B. Mennucci, H. P. Hratchian, 
 J. V. Ortiz, A. F. Izmaylov, J. L. Sonnenberg, D. Williams-Young, 
 F. Ding, F. Lipparini, F. Egidi, J. Goings, B. Peng, A. Petrone, 
 T. Henderson, D. Ranasinghe, V. G. Zakrzewski, J. Gao, N. Rega, 
 G. Zheng, W. Liang, M. Hada, M. Ehara, K. Toyota, R. Fukuda, 
 J. Hasegawa, M. Ishida, T. Nakajima, Y. Honda, O. Kitao, H. Nakai, 
 T. Vreven, K. Throssell, J. A. Montgomery, Jr., J. E. Peralta, 
 F. Ogliaro, M. J. Bearpark, J. J. Heyd, E. N. Brothers, K. N. Kudin, 
 V. N. Staroverov, T. A. Keith, R. Kobayashi, J. Normand, 
 K. Raghavachari, A. P. Rendell, J. C. Burant, S. S. Iyengar, 
 J. Tomasi, M. Cossi, J. M. Millam, M. Klene, C. Adamo, R. Cammi, 
 J. W. Ochterski, R. L. Martin, K. Morokuma, O. Farkas, 
 J. B. Foresman, and D. J. Fox, Gaussian, Inc., Wallingford CT, 2019.
 
 ******************************************
 Gaussian 16:  ES64L-G16RevC.01  3-Jul-2019
                25-Mar-2022 
 ******************************************
 %mem=8gb
 %nproc=8
 Will use up to    8 processors via shared memory.
 %chk=Mol_01.chk
 ----------------------------------------------------------------------
 #p B3LYP/cc-PVTZ scf(verytight, maxcycles=1000) opt(calcfc, maxcyc=100
 0) freq(hpmodes) int(grid=ultrafine)
 ----------------------------------------------------------------------
 1/6=1000,10=4,18=20,19=15,26=4,38=1/1,3;
 2/9=110,12=2,17=6,18=5,40=1/2;
 3/5=16,6=1,11=2,25=1,30=1,71=2,74=-5,75=-5,140=1/1,2,3;
 4//1;
 5/5=2,7=1000,17=3,38=5/2;
 8/6=4,10=90,11=11/1;
 11/6=1,8=1,9=11,15=111,16=1/1,2,10;
 10/6=1,13=1/2;
 6/7=2,8=2,9=2,10=2,28=1/1;
 7/10=1,25=1/1,2,3,16;
 1/6=1000,10=4,18=20,19=15,26=4/3(2);
 2/9=110/2;
 99//99;
 2/9=110/2;
 3/5=16,6=1,11=2,25=1,30=1,71=1,74=-5,75=-5/1,2,3;
 4/5=5,16=3,69=1/1;
 5/5=2,7=1000,17=3,38=5/2;
 7//1,2,3,16;
 1/6=1000,18=20,19=15,26=4/3(-5);
 2/9=110/2;
 6/7=2,8=2,9=2,10=2,19=2,28=1/1;
 99/9=1/99;
 Leave Link    1 at Fri Mar 25 14:49:52 2022, MaxMem=  1073741824 cpu:               0.5 elap:               0.1
 (Enter /home/saurabh/gaussian/g16/l101.exe)
 ------
 Mol_01
 ------
 Symbolic Z-matrix:
 Charge =  0 Multiplicity = 2
 C                     0.        0.        0. 
 C                    -1.23859  -0.76286   0.49222 
 C                    -1.18634  -2.22434   0.02353 
 C                     0.09463  -2.90217   0.53145 
 C                     1.33321  -2.13931   0.03924 
 C                     1.28097  -0.67783   0.50794 
 H                     2.17023  -0.13062   0.12809 
 H                     1.30107  -0.64491   1.61975 
 H                     1.36935  -2.17033  -1.07223 
 H                     2.25254  -2.62549   0.43037 
 H                     0.13231  -3.95162   0.16848 
 H                     0.08826  -2.9189    1.64379 
 H                    -1.20645  -2.25726  -1.08829 
 H                    -2.0756   -2.77155   0.40338 
 H                    -1.27471  -0.73183   1.60369 
 H                    -0.03768   1.04945   0.36296 
 H                     0.00638   0.01672  -1.11234 
 
 ITRead=  0  0  0  0  0  0  0  0  0  0  0  0  0  0  0  0  0
 MicOpt= -1 -1 -1 -1 -1 -1 -1 -1 -1 -1 -1 -1 -1 -1 -1 -1 -1
 NAtoms=     17 NQM=       17 NQMF=       0 NMMI=      0 NMMIF=      0
                NMic=       0 NMicF=      0.
                    Isotopes and Nuclear Properties:
 (Nuclear quadrupole moments (NQMom) in fm**2, nuclear magnetic moments (NMagM)
  in nuclear magnetons)

  Atom         1           2           3           4           5           6           7           8           9          10
 IAtWgt=          12          12          12          12          12          12           1           1           1           1
 AtmWgt=  12.0000000  12.0000000  12.0000000  12.0000000  12.0000000  12.0000000   1.0078250   1.0078250   1.0078250   1.0078250
 NucSpn=           0           0           0           0           0           0           1           1           1           1
 AtZEff=  -0.0000000  -0.0000000  -0.0000000  -0.0000000  -0.0000000  -0.0000000  -0.0000000  -0.0000000  -0.0000000  -0.0000000
 NQMom=    0.0000000   0.0000000   0.0000000   0.0000000   0.0000000   0.0000000   0.0000000   0.0000000   0.0000000   0.0000000
 NMagM=    0.0000000   0.0000000   0.0000000   0.0000000   0.0000000   0.0000000   2.7928460   2.7928460   2.7928460   2.7928460
 AtZNuc=   6.0000000   6.0000000   6.0000000   6.0000000   6.0000000   6.0000000   1.0000000   1.0000000   1.0000000   1.0000000

  Atom        11          12          13          14          15          16          17
 IAtWgt=           1           1           1           1           1           1           1
 AtmWgt=   1.0078250   1.0078250   1.0078250   1.0078250   1.0078250   1.0078250   1.0078250
 NucSpn=           1           1           1           1           1           1           1
 AtZEff=  -0.0000000  -0.0000000  -0.0000000  -0.0000000  -0.0000000  -0.0000000  -0.0000000
 NQMom=    0.0000000   0.0000000   0.0000000   0.0000000   0.0000000   0.0000000   0.0000000
 NMagM=    2.7928460   2.7928460   2.7928460   2.7928460   2.7928460   2.7928460   2.7928460
 AtZNuc=   1.0000000   1.0000000   1.0000000   1.0000000   1.0000000   1.0000000   1.0000000
 Leave Link  101 at Fri Mar 25 14:49:52 2022, MaxMem=  1073741824 cpu:               1.6 elap:               0.2
 (Enter /home/saurabh/gaussian/g16/l103.exe)

 GradGradGradGradGradGradGradGradGradGradGradGradGradGradGradGradGradGrad
 Berny optimization.
 Initialization pass.
                           ----------------------------
                           !    Initial Parameters    !
                           ! (Angstroms and Degrees)  !
 --------------------------                            --------------------------
 ! Name  Definition              Value          Derivative Info.                !
 --------------------------------------------------------------------------------
 ! R1    R(1,2)                  1.5357         calculate D2E/DX2 analytically  !
 ! R2    R(1,6)                  1.5357         calculate D2E/DX2 analytically  !
 ! R3    R(1,16)                 1.1111         calculate D2E/DX2 analytically  !
 ! R4    R(1,17)                 1.1125         calculate D2E/DX2 analytically  !
 ! R5    R(2,3)                  1.5357         calculate D2E/DX2 analytically  !
 ! R6    R(2,15)                 1.1125         calculate D2E/DX2 analytically  !
 ! R7    R(3,4)                  1.5357         calculate D2E/DX2 analytically  !
 ! R8    R(3,13)                 1.1125         calculate D2E/DX2 analytically  !
 ! R9    R(3,14)                 1.1111         calculate D2E/DX2 analytically  !
 ! R10   R(4,5)                  1.5357         calculate D2E/DX2 analytically  !
 ! R11   R(4,11)                 1.1111         calculate D2E/DX2 analytically  !
 ! R12   R(4,12)                 1.1125         calculate D2E/DX2 analytically  !
 ! R13   R(5,6)                  1.5357         calculate D2E/DX2 analytically  !
 ! R14   R(5,9)                  1.1125         calculate D2E/DX2 analytically  !
 ! R15   R(5,10)                 1.1111         calculate D2E/DX2 analytically  !
 ! R16   R(6,7)                  1.1111         calculate D2E/DX2 analytically  !
 ! R17   R(6,8)                  1.1125         calculate D2E/DX2 analytically  !
 ! A1    A(2,1,6)              110.3336         calculate D2E/DX2 analytically  !
 ! A2    A(2,1,16)             109.7028         calculate D2E/DX2 analytically  !
 ! A3    A(2,1,17)             109.4249         calculate D2E/DX2 analytically  !
 ! A4    A(6,1,16)             109.7027         calculate D2E/DX2 analytically  !
 ! A5    A(6,1,17)             109.4245         calculate D2E/DX2 analytically  !
 ! A6    A(16,1,17)            108.2177         calculate D2E/DX2 analytically  !
 ! A7    A(1,2,3)              110.3337         calculate D2E/DX2 analytically  !
 ! A8    A(1,2,15)             109.4241         calculate D2E/DX2 analytically  !
 ! A9    A(3,2,15)             109.4248         calculate D2E/DX2 analytically  !
 ! A10   A(2,3,4)              110.3343         calculate D2E/DX2 analytically  !
 ! A11   A(2,3,13)             109.4244         calculate D2E/DX2 analytically  !
 ! A12   A(2,3,14)             109.7023         calculate D2E/DX2 analytically  !
 ! A13   A(4,3,13)             109.4245         calculate D2E/DX2 analytically  !
 ! A14   A(4,3,14)             109.7032         calculate D2E/DX2 analytically  !
 ! A15   A(13,3,14)            108.2176         calculate D2E/DX2 analytically  !
 ! A16   A(3,4,5)              110.3339         calculate D2E/DX2 analytically  !
 ! A17   A(3,4,11)             109.7028         calculate D2E/DX2 analytically  !
 ! A18   A(3,4,12)             109.4245         calculate D2E/DX2 analytically  !
 ! A19   A(5,4,11)             109.7029         calculate D2E/DX2 analytically  !
 ! A20   A(5,4,12)             109.4244         calculate D2E/DX2 analytically  !
 ! A21   A(11,4,12)            108.2177         calculate D2E/DX2 analytically  !
 ! A22   A(4,5,6)              110.3341         calculate D2E/DX2 analytically  !
 ! A23   A(4,5,9)              109.425          calculate D2E/DX2 analytically  !
 ! A24   A(4,5,10)             109.7029         calculate D2E/DX2 analytically  !
 ! A25   A(6,5,9)              109.4246         calculate D2E/DX2 analytically  !
 ! A26   A(6,5,10)             109.7023         calculate D2E/DX2 analytically  !
 ! A27   A(9,5,10)             108.2172         calculate D2E/DX2 analytically  !
 ! A28   A(1,6,5)              110.3334         calculate D2E/DX2 analytically  !
 ! A29   A(1,6,7)              109.7029         calculate D2E/DX2 analytically  !
 ! A30   A(1,6,8)              109.4247         calculate D2E/DX2 analytically  !
 ! A31   A(5,6,7)              109.7024         calculate D2E/DX2 analytically  !
 ! A32   A(5,6,8)              109.4248         calculate D2E/DX2 analytically  !
 ! A33   A(7,6,8)              108.218          calculate D2E/DX2 analytically  !
 ! D1    D(6,1,2,3)            -57.8228         calculate D2E/DX2 analytically  !
 ! D2    D(6,1,2,15)            62.625          calculate D2E/DX2 analytically  !
 ! D3    D(16,1,2,3)          -178.7942         calculate D2E/DX2 analytically  !
 ! D4    D(16,1,2,15)          -58.3464         calculate D2E/DX2 analytically  !
 ! D5    D(17,1,2,3)            62.6251         calculate D2E/DX2 analytically  !
 ! D6    D(17,1,2,15)         -176.9272         calculate D2E/DX2 analytically  !
 ! D7    D(2,1,6,5)             57.8231         calculate D2E/DX2 analytically  !
 ! D8    D(2,1,6,7)            178.794          calculate D2E/DX2 analytically  !
 ! D9    D(2,1,6,8)            -62.6249         calculate D2E/DX2 analytically  !
 ! D10   D(16,1,6,5)           178.7945         calculate D2E/DX2 analytically  !
 ! D11   D(16,1,6,7)           -60.2345         calculate D2E/DX2 analytically  !
 ! D12   D(16,1,6,8)            58.3465         calculate D2E/DX2 analytically  !
 ! D13   D(17,1,6,5)           -62.625          calculate D2E/DX2 analytically  !
 ! D14   D(17,1,6,7)            58.346          calculate D2E/DX2 analytically  !
 ! D15   D(17,1,6,8)           176.927          calculate D2E/DX2 analytically  !
 ! D16   D(1,2,3,4)             57.8223         calculate D2E/DX2 analytically  !
 ! D17   D(1,2,3,13)           -62.6256         calculate D2E/DX2 analytically  !
 ! D18   D(1,2,3,14)           178.7944         calculate D2E/DX2 analytically  !
 ! D19   D(15,2,3,4)           -62.625          calculate D2E/DX2 analytically  !
 ! D20   D(15,2,3,13)          176.9271         calculate D2E/DX2 analytically  !
 ! D21   D(15,2,3,14)           58.3471         calculate D2E/DX2 analytically  !
 ! D22   D(2,3,4,5)            -57.8221         calculate D2E/DX2 analytically  !
 ! D23   D(2,3,4,11)          -178.7939         calculate D2E/DX2 analytically  !
 ! D24   D(2,3,4,12)            62.6256         calculate D2E/DX2 analytically  !
 ! D25   D(13,3,4,5)            62.6257         calculate D2E/DX2 analytically  !
 ! D26   D(13,3,4,11)          -58.3461         calculate D2E/DX2 analytically  !
 ! D27   D(13,3,4,12)         -176.9265         calculate D2E/DX2 analytically  !
 ! D28   D(14,3,4,5)          -178.7937         calculate D2E/DX2 analytically  !
 ! D29   D(14,3,4,11)           60.2345         calculate D2E/DX2 analytically  !
 ! D30   D(14,3,4,12)          -58.346          calculate D2E/DX2 analytically  !
 ! D31   D(3,4,5,6)             57.8225         calculate D2E/DX2 analytically  !
 ! D32   D(3,4,5,9)            -62.626          calculate D2E/DX2 analytically  !
 ! D33   D(3,4,5,10)           178.7938         calculate D2E/DX2 analytically  !
 ! D34   D(11,4,5,6)           178.7942         calculate D2E/DX2 analytically  !
 ! D35   D(11,4,5,9)            58.3458         calculate D2E/DX2 analytically  !
 ! D36   D(11,4,5,10)          -60.2345         calculate D2E/DX2 analytically  !
 ! D37   D(12,4,5,6)           -62.6253         calculate D2E/DX2 analytically  !
 ! D38   D(12,4,5,9)           176.9263         calculate D2E/DX2 analytically  !
 ! D39   D(12,4,5,10)           58.346          calculate D2E/DX2 analytically  !
 ! D40   D(4,5,6,1)            -57.8231         calculate D2E/DX2 analytically  !
 ! D41   D(4,5,6,7)           -178.7943         calculate D2E/DX2 analytically  !
 ! D42   D(4,5,6,8)             62.6249         calculate D2E/DX2 analytically  !
 ! D43   D(9,5,6,1)             62.6256         calculate D2E/DX2 analytically  !
 ! D44   D(9,5,6,7)            -58.3457         calculate D2E/DX2 analytically  !
 ! D45   D(9,5,6,8)           -176.9265         calculate D2E/DX2 analytically  !
 ! D46   D(10,5,6,1)          -178.7947         calculate D2E/DX2 analytically  !
 ! D47   D(10,5,6,7)            60.2341         calculate D2E/DX2 analytically  !
 ! D48   D(10,5,6,8)           -58.3467         calculate D2E/DX2 analytically  !
 --------------------------------------------------------------------------------
 Trust Radius=3.00D-01 FncErr=1.00D-07 GrdErr=1.00D-06 EigMax=2.50D+02 EigMin=1.00D-04
 Number of steps in this run=    102 maximum allowed number of steps=    102.
 GradGradGradGradGradGradGradGradGradGradGradGradGradGradGradGradGradGrad

 Leave Link  103 at Fri Mar 25 14:49:53 2022, MaxMem=  1073741824 cpu:               0.1 elap:               0.0
 (Enter /home/saurabh/gaussian/g16/l202.exe)
                          Input orientation:                          
 ---------------------------------------------------------------------
 Center     Atomic      Atomic             Coordinates (Angstroms)
 Number     Number       Type             X           Y           Z
 ---------------------------------------------------------------------
      1          6           0        0.000000    0.000000    0.000000
      2          6           0       -1.238590   -0.762860    0.492220
      3          6           0       -1.186340   -2.224340    0.023530
      4          6           0        0.094630   -2.902170    0.531450
      5          6           0        1.333210   -2.139310    0.039240
      6          6           0        1.280970   -0.677830    0.507940
      7          1           0        2.170230   -0.130620    0.128090
      8          1           0        1.301070   -0.644910    1.619750
      9          1           0        1.369350   -2.170330   -1.072230
     10          1           0        2.252540   -2.625490    0.430370
     11          1           0        0.132310   -3.951620    0.168480
     12          1           0        0.088260   -2.918900    1.643790
     13          1           0       -1.206450   -2.257260   -1.088290
     14          1           0       -2.075600   -2.771550    0.403380
     15          1           0       -1.274710   -0.731830    1.603690
     16          1           0       -0.037680    1.049450    0.362960
     17          1           0        0.006380    0.016720   -1.112340
 ---------------------------------------------------------------------
                    Distance matrix (angstroms):
                    1          2          3          4          5
     1  C    0.000000
     2  C    1.535689   0.000000
     3  C    2.521040   1.535684   0.000000
     4  C    2.951946   2.521044   1.535682   0.000000
     5  C    2.521039   2.951942   2.521033   1.535678   0.000000
     6  C    1.535689   2.521043   2.951943   2.521040   1.535686
     7  H    2.177927   3.486025   3.957418   3.486015   2.177919
     8  H    2.175381   2.781206   3.351078   2.781208   2.175380
     9  H    2.781210   3.351093   2.781215   2.175383   1.112490
    10  H    3.486022   3.957424   3.486020   2.177922   1.111090
    11  H    3.957422   3.486024   2.177922   1.111086   2.177919
    12  H    3.351091   2.781214   2.175376   1.112484   2.175372
    13  H    2.781208   2.175380   1.112489   2.175379   2.781206
    14  H    3.486018   2.177915   1.111084   2.177926   3.486016
    15  H    2.175381   1.112490   2.175385   2.781217   3.351082
    16  H    1.111083   2.177926   3.486020   3.957423   3.486018
    17  H    1.112484   2.175387   2.781210   3.351082   2.781201
                    6          7          8          9         10
     6  C    0.000000
     7  H    1.111084   0.000000
     8  H    1.112479   1.801384   0.000000
     9  H    2.175386   2.498518   3.094887   0.000000
    10  H    2.177922   2.514463   2.498523   1.801389   0.000000
    11  H    3.486023   4.330680   3.795592   2.498524   2.514475
    12  H    2.781206   3.795583   2.577308   3.094885   2.498517
    13  H    3.351091   4.171828   4.027507   2.577317   3.795594
    14  H    3.957418   5.007731   4.171817   3.795599   4.330688
    15  H    2.781202   3.795584   2.577296   4.027516   4.171825
    16  H    2.177924   2.514477   2.498525   3.795588   4.330685
    17  H    2.175382   2.498524   3.094882   2.577302   3.795585
                   11         12         13         14         15
    11  H    0.000000
    12  H    1.801386   0.000000
    13  H    2.498521   3.094883   0.000000
    14  H    2.514480   2.498523   1.801387   0.000000
    15  H    3.795600   2.577318   3.094891   2.498525   0.000000
    16  H    5.007736   4.171833   3.795587   4.330680   2.498522
    17  H    4.171820   4.027508   2.577309   3.795589   3.094889
                   16         17
    16  H    0.000000
    17  H    1.801384   0.000000
 Stoichiometry    C6H11(2)
 Framework group  C1[X(C6H11)]
 Deg. of freedom    45
 Full point group                 C1      NOp   1
 Largest Abelian subgroup         C1      NOp   1
 Largest concise Abelian subgroup C1      NOp   1
                         Standard orientation:                         
 ---------------------------------------------------------------------
 Center     Atomic      Atomic             Coordinates (Angstroms)
 Number     Number       Type             X           Y           Z
 ---------------------------------------------------------------------
      1          6           0        1.260527   -0.779007    0.253724
      2          6           0        0.000011   -1.510555   -0.230296
      3          6           0       -1.260513   -0.779024    0.253714
      4          6           0       -1.260525    0.672659   -0.247222
      5          6           0       -0.000013    1.404199    0.236788
      6          6           0        1.260515    0.672676   -0.247232
      7          1           0        2.165328    1.198005    0.126734
      8          1           0        1.288646    0.680291   -1.359329
      9          1           0       -0.000007    1.445316    1.348517
     10          1           0       -0.000017    2.446040   -0.149332
     11          1           0       -2.165352    1.197966    0.126747
     12          1           0       -1.288662    0.680283   -1.359324
     13          1           0       -1.288649   -0.786648    1.365821
     14          1           0       -2.165327   -1.304353   -0.120252
     15          1           0        0.000022   -1.551659   -1.342026
     16          1           0        2.165354   -1.304314   -0.120235
     17          1           0        1.288659   -0.786617    1.365826
 ---------------------------------------------------------------------
 Rotational constants (GHZ):           4.5519497           4.3047539           2.5607990
 Leave Link  202 at Fri Mar 25 14:49:53 2022, MaxMem=  1073741824 cpu:               0.2 elap:               0.0
 (Enter /home/saurabh/gaussian/g16/l301.exe)
 Standard basis: CC-pVTZ (5D, 7F)
 Ernie: Thresh=  0.10000D-02 Tol=  0.10000D-05 Strict=F.
 Ernie:  18 primitive shells out of 244 were deleted.
 There are   375 symmetry adapted cartesian basis functions of A   symmetry.
 There are   334 symmetry adapted basis functions of A   symmetry.
   334 basis functions,   499 primitive gaussians,   375 cartesian basis functions
    24 alpha electrons       23 beta electrons
       nuclear repulsion energy       244.9486924109 Hartrees.
 IExCor=  402 DFT=T Ex+Corr=B3LYP ExCW=0 ScaHFX=  0.200000
 ScaDFX=  0.800000  0.720000  1.000000  0.810000 ScalE2=  1.000000  1.000000
 IRadAn=      5 IRanWt=     -1 IRanGd=            0 ICorTp=0 IEmpDi=  4
 NAtoms=   17 NActive=   17 NUniq=   17 SFac= 1.00D+00 NAtFMM=   60 NAOKFM=F Big=F
 Integral buffers will be    131072 words long.
 Raffenetti 2 integral format.
 Two-electron integral symmetry is turned on.
 Leave Link  301 at Fri Mar 25 14:49:53 2022, MaxMem=  1073741824 cpu:               0.4 elap:               0.1
 (Enter /home/saurabh/gaussian/g16/l302.exe)
 NPDir=0 NMtPBC=     1 NCelOv=     1 NCel=       1 NClECP=     1 NCelD=      1
         NCelK=      1 NCelE2=     1 NClLst=     1 CellRange=     0.0.
 One-electron integrals computed using PRISM.
 One-electron integral symmetry used in STVInt
 NBasis=   334 RedAO= T EigKep=  3.74D-04  NBF=   334
 NBsUse=   334 1.00D-06 EigRej= -1.00D+00 NBFU=   334
 Precomputing XC quadrature grid using
 IXCGrd= 4 IRadAn=           5 IRanWt=          -1 IRanGd=           0 AccXCQ= 0.00D+00.
 Generated NRdTot=       0 NPtTot=           0 NUsed=           0 NTot=          32
 NSgBfM=   375   375   375   375   375 MxSgAt=    17 MxSgA2=    17.
 Leave Link  302 at Fri Mar 25 14:49:53 2022, MaxMem=  1073741824 cpu:               2.6 elap:               0.3
 (Enter /home/saurabh/gaussian/g16/l303.exe)
 DipDrv:  MaxL=1.
 Leave Link  303 at Fri Mar 25 14:49:53 2022, MaxMem=  1073741824 cpu:               0.4 elap:               0.1
 (Enter /home/saurabh/gaussian/g16/l401.exe)
 ExpMin= 1.03D-01 ExpMax= 8.24D+03 ExpMxC= 2.81D+02 IAcc=3 IRadAn=         5 AccDes= 0.00D+00
 Harris functional with IExCor=  402 and IRadAn=       5 diagonalized for initial guess.
 HarFok:  IExCor=  402 AccDes= 0.00D+00 IRadAn=         5 IDoV= 1 UseB2=F ITyADJ=14
 ICtDFT=  3500011 ScaDFX=  1.000000  1.000000  1.000000  1.000000
 FoFCou: FMM=F IPFlag=           0 FMFlag=      100000 FMFlg1=           0
         NFxFlg=           0 DoJE=T BraDBF=F KetDBF=T FulRan=T
         wScrn=  0.000000 ICntrl=       500 IOpCl=  0 I1Cent=   200000004 NGrid=           0
         NMat0=    1 NMatS0=      1 NMatT0=    0 NMatD0=    1 NMtDS0=    0 NMtDT0=    0
 Petite list used in FoFCou.
 Harris En= -235.307491618463    
 JPrj=0 DoOrth=F DoCkMO=F.
 Initial guess <Sx>= 0.0000 <Sy>= 0.0000 <Sz>= 0.5000 <S**2>= 0.7500 S= 0.5000
 Leave Link  401 at Fri Mar 25 14:49:54 2022, MaxMem=  1073741824 cpu:               9.6 elap:               1.2
 (Enter /home/saurabh/gaussian/g16/l502.exe)
 Integral symmetry usage will be decided dynamically.
 UHF open shell SCF:
 Using DIIS extrapolation, IDIIS=  1040.
 NGot=  1073741824 LenX=  1073453780 LenY=  1073312714
 Requested convergence on RMS density matrix=1.00D-08 within1000 cycles.
 Requested convergence on MAX density matrix=1.00D-06.
 Requested convergence on             energy=1.00D-06.
 No special actions if energy rises.
 Fock matrices will be formed incrementally for  20 cycles.
 Integral accuracy reduced to 1.0D-05 until final iterations.

 Cycle   1  Pass 0  IDiag  1:
 FoFJK:  IHMeth= 1 ICntrl=       0 DoSepK=F KAlg= 0 I1Cent=           0 FoldK=F
 IRaf= 990000000 NMat=       1 IRICut=       1 DoRegI=T DoRafI=F ISym2E= 0 IDoP0=0 IntGTp=1.
 FoFCou: FMM=F IPFlag=           0 FMFlag=      100000 FMFlg1=           0
         NFxFlg=           0 DoJE=F BraDBF=F KetDBF=F FulRan=T
         wScrn=  0.000000 ICntrl=         0 IOpCl=  1 I1Cent=           0 NGrid=           0
         NMat0=    1 NMatS0=      1 NMatT0=    0 NMatD0=    1 NMtDS0=    0 NMtDT0=    0
 Symmetry not used in FoFCou.
 E= -235.056853374310    
 DIIS: error= 2.91D-02 at cycle   1 NSaved=   1.
 NSaved= 1 IEnMin= 1 EnMin= -235.056853374310     IErMin= 1 ErrMin= 2.91D-02
 ErrMax= 2.91D-02  0.00D+00 EMaxC= 1.00D-01 BMatC= 8.84D-01 BMatP= 8.84D-01
 IDIUse=3 WtCom= 7.09D-01 WtEn= 2.91D-01
 Coeff-Com:  0.100D+01
 Coeff-En:   0.100D+01
 Coeff:      0.100D+01
 Gap=     0.197 Goal=   None    Shift=    0.000
 Gap=     0.204 Goal=   None    Shift=    0.000
 GapD=    0.197 DampG=1.000 DampE=0.500 DampFc=0.5000 IDamp=-1.
 Damping current iteration by 5.00D-01
 RMSDP=2.67D-03 MaxDP=1.94D-01              OVMax= 1.96D-01

 Cycle   2  Pass 0  IDiag  1:
 RMSU=  1.33D-03    CP:  9.87D-01
 E= -235.138331347478     Delta-E=       -0.081477973168 Rises=F Damp=T
 DIIS: error= 1.04D-02 at cycle   2 NSaved=   2.
 NSaved= 2 IEnMin= 2 EnMin= -235.138331347478     IErMin= 2 ErrMin= 1.04D-02
 ErrMax= 1.04D-02  0.00D+00 EMaxC= 1.00D-01 BMatC= 7.84D-02 BMatP= 8.84D-01
 IDIUse=3 WtCom= 8.96D-01 WtEn= 1.04D-01
 Coeff-Com:  0.131D+00 0.869D+00
 Coeff-En:   0.253D+00 0.747D+00
 Coeff:      0.144D+00 0.856D+00
 Gap=     0.250 Goal=   None    Shift=    0.000
 Gap=     0.239 Goal=   None    Shift=    0.000
 RMSDP=6.31D-04 MaxDP=3.77D-02 DE=-8.15D-02 OVMax= 1.24D-01

 Cycle   3  Pass 0  IDiag  1:
 RMSU=  4.65D-04    CP:  9.92D-01  6.80D-01
 E= -235.279565015522     Delta-E=       -0.141233668045 Rises=F Damp=F
 DIIS: error= 5.93D-03 at cycle   3 NSaved=   3.
 NSaved= 3 IEnMin= 3 EnMin= -235.279565015522     IErMin= 3 ErrMin= 5.93D-03
 ErrMax= 5.93D-03  0.00D+00 EMaxC= 1.00D-01 BMatC= 1.96D-02 BMatP= 7.84D-02
 IDIUse=3 WtCom= 9.41D-01 WtEn= 5.93D-02
 Coeff-Com: -0.114D-01 0.306D+00 0.706D+00
 Coeff-En:   0.000D+00 0.000D+00 0.100D+01
 Coeff:     -0.108D-01 0.287D+00 0.723D+00
 Gap=     0.251 Goal=   None    Shift=    0.000
 Gap=     0.228 Goal=   None    Shift=    0.000
 RMSDP=1.65D-04 MaxDP=6.94D-03 DE=-1.41D-01 OVMax= 1.72D-02

 Cycle   4  Pass 0  IDiag  1:
 RMSU=  1.37D-04    CP:  9.91D-01  7.06D-01  8.18D-01
 E= -235.283966993576     Delta-E=       -0.004401978054 Rises=F Damp=F
 DIIS: error= 1.17D-03 at cycle   4 NSaved=   4.
 NSaved= 4 IEnMin= 4 EnMin= -235.283966993576     IErMin= 4 ErrMin= 1.17D-03
 ErrMax= 1.17D-03  0.00D+00 EMaxC= 1.00D-01 BMatC= 1.11D-03 BMatP= 1.96D-02
 IDIUse=3 WtCom= 9.88D-01 WtEn= 1.17D-02
 Coeff-Com: -0.117D-01 0.261D-01 0.217D+00 0.769D+00
 Coeff-En:   0.000D+00 0.000D+00 0.000D+00 0.100D+01
 Coeff:     -0.116D-01 0.258D-01 0.214D+00 0.772D+00
 Gap=     0.247 Goal=   None    Shift=    0.000
 Gap=     0.232 Goal=   None    Shift=    0.000
 RMSDP=4.53D-05 MaxDP=2.95D-03 DE=-4.40D-03 OVMax= 5.79D-03

 Cycle   5  Pass 0  IDiag  1:
 RMSU=  2.58D-05    CP:  9.91D-01  7.15D-01  8.62D-01  7.89D-01
 E= -235.284218769754     Delta-E=       -0.000251776178 Rises=F Damp=F
 DIIS: error= 4.50D-04 at cycle   5 NSaved=   5.
 NSaved= 5 IEnMin= 5 EnMin= -235.284218769754     IErMin= 5 ErrMin= 4.50D-04
 ErrMax= 4.50D-04  0.00D+00 EMaxC= 1.00D-01 BMatC= 1.61D-04 BMatP= 1.11D-03
 IDIUse=3 WtCom= 9.95D-01 WtEn= 4.50D-03
 Coeff-Com: -0.554D-02 0.354D-02 0.857D-01 0.394D+00 0.522D+00
 Coeff-En:   0.000D+00 0.000D+00 0.000D+00 0.000D+00 0.100D+01
 Coeff:     -0.552D-02 0.352D-02 0.854D-01 0.393D+00 0.524D+00
 Gap=     0.249 Goal=   None    Shift=    0.000
 Gap=     0.231 Goal=   None    Shift=    0.000
 RMSDP=2.09D-05 MaxDP=2.31D-03 DE=-2.52D-04 OVMax= 2.66D-03

 Cycle   6  Pass 0  IDiag  1:
 RMSU=  1.32D-05    CP:  9.91D-01  7.10D-01  8.67D-01  8.68D-01  6.39D-01
 E= -235.284260069833     Delta-E=       -0.000041300079 Rises=F Damp=F
 DIIS: error= 9.35D-05 at cycle   6 NSaved=   6.
 NSaved= 6 IEnMin= 6 EnMin= -235.284260069833     IErMin= 6 ErrMin= 9.35D-05
 ErrMax= 9.35D-05  0.00D+00 EMaxC= 1.00D-01 BMatC= 6.94D-06 BMatP= 1.61D-04
 IDIUse=1 WtCom= 1.00D+00 WtEn= 0.00D+00
 Coeff-Com:  0.558D-03-0.378D-02-0.124D-01-0.132D-01 0.139D+00 0.890D+00
 Coeff:      0.558D-03-0.378D-02-0.124D-01-0.132D-01 0.139D+00 0.890D+00
 Gap=     0.249 Goal=   None    Shift=    0.000
 Gap=     0.231 Goal=   None    Shift=    0.000
 RMSDP=4.68D-06 MaxDP=3.75D-04 DE=-4.13D-05 OVMax= 7.81D-04

 Initial convergence to 1.0D-05 achieved.  Increase integral accuracy.
 Cycle   7  Pass 1  IDiag  1:
 E= -235.284277395783     Delta-E=       -0.000017325951 Rises=F Damp=F
 DIIS: error= 4.02D-05 at cycle   1 NSaved=   1.
 NSaved= 1 IEnMin= 1 EnMin= -235.284277395783     IErMin= 1 ErrMin= 4.02D-05
 ErrMax= 4.02D-05  0.00D+00 EMaxC= 1.00D-01 BMatC= 1.14D-06 BMatP= 1.14D-06
 IDIUse=1 WtCom= 1.00D+00 WtEn= 0.00D+00
 Coeff-Com:  0.100D+01
 Coeff:      0.100D+01
 Gap=     0.250 Goal=   None    Shift=    0.000
 Gap=     0.231 Goal=   None    Shift=    0.000
 RMSDP=4.68D-06 MaxDP=3.75D-04 DE=-1.73D-05 OVMax= 2.03D-04

 Cycle   8  Pass 1  IDiag  1:
 RMSU=  5.37D-06    CP:  1.00D+00
 E= -235.284277630847     Delta-E=       -0.000000235064 Rises=F Damp=F
 DIIS: error= 1.44D-05 at cycle   2 NSaved=   2.
 NSaved= 2 IEnMin= 2 EnMin= -235.284277630847     IErMin= 2 ErrMin= 1.44D-05
 ErrMax= 1.44D-05  0.00D+00 EMaxC= 1.00D-01 BMatC= 1.72D-07 BMatP= 1.14D-06
 IDIUse=1 WtCom= 1.00D+00 WtEn= 0.00D+00
 Coeff-Com:  0.153D+00 0.847D+00
 Coeff:      0.153D+00 0.847D+00
 Gap=     0.250 Goal=   None    Shift=    0.000
 Gap=     0.231 Goal=   None    Shift=    0.000
 RMSDP=8.11D-07 MaxDP=5.78D-05 DE=-2.35D-07 OVMax= 1.22D-04

 Cycle   9  Pass 1  IDiag  1:
 RMSU=  8.11D-07    CP:  1.00D+00  1.00D+00
 E= -235.284277660957     Delta-E=       -0.000000030110 Rises=F Damp=F
 DIIS: error= 1.14D-05 at cycle   3 NSaved=   3.
 NSaved= 3 IEnMin= 3 EnMin= -235.284277660957     IErMin= 3 ErrMin= 1.14D-05
 ErrMax= 1.14D-05  0.00D+00 EMaxC= 1.00D-01 BMatC= 1.30D-07 BMatP= 1.72D-07
 IDIUse=1 WtCom= 1.00D+00 WtEn= 0.00D+00
 Coeff-Com: -0.383D-01 0.463D+00 0.575D+00
 Coeff:     -0.383D-01 0.463D+00 0.575D+00
 Gap=     0.250 Goal=   None    Shift=    0.000
 Gap=     0.231 Goal=   None    Shift=    0.000
 RMSDP=5.14D-07 MaxDP=5.57D-05 DE=-3.01D-08 OVMax= 6.38D-05

 Cycle  10  Pass 1  IDiag  1:
 RMSU=  4.09D-07    CP:  1.00D+00  1.03D+00  6.58D-01
 E= -235.284277696524     Delta-E=       -0.000000035567 Rises=F Damp=F
 DIIS: error= 3.06D-06 at cycle   4 NSaved=   4.
 NSaved= 4 IEnMin= 4 EnMin= -235.284277696524     IErMin= 4 ErrMin= 3.06D-06
 ErrMax= 3.06D-06  0.00D+00 EMaxC= 1.00D-01 BMatC= 5.55D-09 BMatP= 1.30D-07
 IDIUse=1 WtCom= 1.00D+00 WtEn= 0.00D+00
 Coeff-Com: -0.257D-01-0.265D-01 0.945D-01 0.958D+00
 Coeff:     -0.257D-01-0.265D-01 0.945D-01 0.958D+00
 Gap=     0.250 Goal=   None    Shift=    0.000
 Gap=     0.231 Goal=   None    Shift=    0.000
 RMSDP=1.62D-07 MaxDP=1.29D-05 DE=-3.56D-08 OVMax= 1.94D-05

 Cycle  11  Pass 1  IDiag  1:
 RMSU=  1.27D-07    CP:  1.00D+00  1.04D+00  7.31D-01  1.18D+00
 E= -235.284277699132     Delta-E=       -0.000000002608 Rises=F Damp=F
 DIIS: error= 1.39D-06 at cycle   5 NSaved=   5.
 NSaved= 5 IEnMin= 5 EnMin= -235.284277699132     IErMin= 5 ErrMin= 1.39D-06
 ErrMax= 1.39D-06  0.00D+00 EMaxC= 1.00D-01 BMatC= 1.54D-09 BMatP= 5.55D-09
 IDIUse=1 WtCom= 1.00D+00 WtEn= 0.00D+00
 Coeff-Com: -0.273D-02-0.108D+00-0.826D-01 0.387D+00 0.807D+00
 Coeff:     -0.273D-02-0.108D+00-0.826D-01 0.387D+00 0.807D+00
 Gap=     0.250 Goal=   None    Shift=    0.000
 Gap=     0.231 Goal=   None    Shift=    0.000
 RMSDP=8.23D-08 MaxDP=4.46D-06 DE=-2.61D-09 OVMax= 9.10D-06

 Cycle  12  Pass 1  IDiag  1:
 RMSU=  3.93D-08    CP:  1.00D+00  1.04D+00  7.69D-01  1.33D+00  8.84D-01
 E= -235.284277699694     Delta-E=       -0.000000000562 Rises=F Damp=F
 DIIS: error= 4.55D-07 at cycle   6 NSaved=   6.
 NSaved= 6 IEnMin= 6 EnMin= -235.284277699694     IErMin= 6 ErrMin= 4.55D-07
 ErrMax= 4.55D-07  0.00D+00 EMaxC= 1.00D-01 BMatC= 1.84D-10 BMatP= 1.54D-09
 IDIUse=1 WtCom= 1.00D+00 WtEn= 0.00D+00
 Coeff-Com:  0.584D-03-0.501D-01-0.454D-01 0.118D+00 0.383D+00 0.594D+00
 Coeff:      0.584D-03-0.501D-01-0.454D-01 0.118D+00 0.383D+00 0.594D+00
 Gap=     0.250 Goal=   None    Shift=    0.000
 Gap=     0.231 Goal=   None    Shift=    0.000
 RMSDP=1.91D-08 MaxDP=1.08D-06 DE=-5.62D-10 OVMax= 1.81D-06

 Cycle  13  Pass 1  IDiag  1:
 RMSU=  1.34D-08    CP:  1.00D+00  1.04D+00  7.70D-01  1.35D+00  9.34D-01
                    CP:  7.66D-01
 E= -235.284277699746     Delta-E=       -0.000000000052 Rises=F Damp=F
 DIIS: error= 1.11D-07 at cycle   7 NSaved=   7.
 NSaved= 7 IEnMin= 7 EnMin= -235.284277699746     IErMin= 7 ErrMin= 1.11D-07
 ErrMax= 1.11D-07  0.00D+00 EMaxC= 1.00D-01 BMatC= 1.47D-11 BMatP= 1.84D-10
 IDIUse=1 WtCom= 1.00D+00 WtEn= 0.00D+00
 Coeff-Com:  0.496D-03-0.920D-02-0.932D-02 0.743D-02 0.718D-01 0.242D+00
 Coeff-Com:  0.697D+00
 Coeff:      0.496D-03-0.920D-02-0.932D-02 0.743D-02 0.718D-01 0.242D+00
 Coeff:      0.697D+00
 Gap=     0.250 Goal=   None    Shift=    0.000
 Gap=     0.231 Goal=   None    Shift=    0.000
 RMSDP=6.78D-09 MaxDP=5.74D-07 DE=-5.18D-11 OVMax= 6.11D-07

 SCF Done:  E(UB3LYP) =  -235.284277700     A.U. after   13 cycles
            NFock= 13  Conv=0.68D-08     -V/T= 2.0088
 <Sx>= 0.0000 <Sy>= 0.0000 <Sz>= 0.5000 <S**2>= 0.7532 S= 0.5016
 <L.S>=  0.00000000000    
 KE= 2.332292818466D+02 PE=-1.033610954981D+03 EE= 3.201487030242D+02
 Annihilation of the first spin contaminant:
 S**2 before annihilation     0.7532,   after     0.7500
 Leave Link  502 at Fri Mar 25 14:51:07 2022, MaxMem=  1073741824 cpu:             579.5 elap:              72.5
 (Enter /home/saurabh/gaussian/g16/l801.exe)
 DoSCS=F DFT=T ScalE2(SS,OS)=  1.000000  1.000000
 Range of M.O.s used for correlation:     1   334
 NBasis=   334 NAE=    24 NBE=    23 NFC=     0 NFV=     0
 NROrb=    334 NOA=    24 NOB=    23 NVA=   310 NVB=   311

 **** Warning!!: The largest alpha MO coefficient is  0.12569940D+02


 **** Warning!!: The largest beta MO coefficient is  0.13729399D+02

 Leave Link  801 at Fri Mar 25 14:51:07 2022, MaxMem=  1073741824 cpu:               0.2 elap:               0.0
 (Enter /home/saurabh/gaussian/g16/l1101.exe)
 Using compressed storage, NAtomX=    17.
 Will process     18 centers per pass.
 Leave Link 1101 at Fri Mar 25 14:51:07 2022, MaxMem=  1073741824 cpu:               2.6 elap:               0.3
 (Enter /home/saurabh/gaussian/g16/l1102.exe)
 Symmetrizing basis deriv contribution to polar:
 IMax=3 JMax=2 DiffMx= 0.00D+00
 Leave Link 1102 at Fri Mar 25 14:51:07 2022, MaxMem=  1073741824 cpu:               0.3 elap:               0.1
 (Enter /home/saurabh/gaussian/g16/l1110.exe)
 Forming Gx(P) for the SCF density, NAtomX=    17.
 Integral derivatives from FoFJK, PRISM(SPDF).
 Do as many integral derivatives as possible in FoFJK.
 G2DrvN: MDV=    1073739937.
 G2DrvN: will do    18 centers at a time, making    1 passes.
 Calling FoFCou, ICntrl=  3107 FMM=F I1Cent=   0 AccDes= 0.00D+00.
 FoFJK:  IHMeth= 1 ICntrl=    3107 DoSepK=F KAlg= 0 I1Cent=           0 FoldK=F
 IRaf=         0 NMat=       1 IRICut=       1 DoRegI=T DoRafI=F ISym2E= 0 IDoP0=0 IntGTp=1.
 FoFCou: FMM=F IPFlag=           0 FMFlag=      100000 FMFlg1=           0
         NFxFlg=           0 DoJE=F BraDBF=F KetDBF=F FulRan=T
         wScrn=  0.000000 ICntrl=      3107 IOpCl=  1 I1Cent=           0 NGrid=           0
         NMat0=    1 NMatS0=      1 NMatT0=    0 NMatD0=    1 NMtDS0=    0 NMtDT0=    0
 Symmetry not used in FoFCou.
 End of G2Drv F.D. properties file   721 does not exist.
 End of G2Drv F.D. properties file   722 does not exist.
 End of G2Drv F.D. properties file   788 does not exist.
 Leave Link 1110 at Fri Mar 25 14:53:26 2022, MaxMem=  1073741824 cpu:            1110.3 elap:             138.8
 (Enter /home/saurabh/gaussian/g16/l1002.exe)
 Minotr:  UHF open shell wavefunction.
          IDoAtm=11111111111111111
          Direct CPHF calculation.
          Differentiating once with respect to nuclear coordinates.
          Requested convergence is 1.0D-08 RMS, and 1.0D-07 maximum.
          Secondary convergence is 1.0D-12 RMS, and 1.0D-12 maximum.
          NewPWx=T KeepS1=F KeepF1=F KeepIn=T MapXYZ=F SortEE=F KeepMc=T.
         5025 words used for storage of precomputed grid.
 Two-electron integrals replicated using symmetry.
          MDV=    1073741824 using IRadAn=       1.
          Solving linear equations simultaneously, MaxMat=     384.
 FoF2E skips out because all densities are zero.
 CalDSu exits because no D1Ps are significant.
 FoFJK:  IHMeth= 1 ICntrl=       0 DoSepK=F KAlg= 0 I1Cent=           0 FoldK=F
 IRaf= 980000000 NMat=      51 IRICut=     127 DoRegI=T DoRafI=T ISym2E= 2 IDoP0=3 IntGTp=3.
 FoFCou: FMM=F IPFlag=           0 FMFlag=      100000 FMFlg1=           0
         NFxFlg=           0 DoJE=F BraDBF=F KetDBF=F FulRan=T
         wScrn=  0.000000 ICntrl=         0 IOpCl=  1 I1Cent=           0 NGrid=           0
         NMat0=   51 NMatS0=     51 NMatT0=    0 NMatD0=   51 NMtDS0=    0 NMtDT0=    0
 Integrals replicated using symmetry in FoFCou.
 Raff kept on since  96.28% of shell-pairs survive, threshold=   0.20 IRatSp=96.
          There are    54 degrees of freedom in the 1st order CPHF.  IDoFFX=6 NUNeed=     0.
     48 vectors produced by pass  0 Test12= 2.70D-14 1.85D-09 XBig12= 1.65D-01 1.10D-01.
 AX will form    48 AO Fock derivatives at one time.
     48 vectors produced by pass  1 Test12= 2.70D-14 1.85D-09 XBig12= 1.41D-02 1.72D-02.
     48 vectors produced by pass  2 Test12= 2.70D-14 1.85D-09 XBig12= 4.19D-04 4.42D-03.
     48 vectors produced by pass  3 Test12= 2.70D-14 1.85D-09 XBig12= 4.37D-06 2.28D-04.
     48 vectors produced by pass  4 Test12= 2.70D-14 1.85D-09 XBig12= 3.86D-08 2.96D-05.
     48 vectors produced by pass  5 Test12= 2.70D-14 1.85D-09 XBig12= 2.00D-10 1.50D-06.
     24 vectors produced by pass  6 Test12= 2.70D-14 1.85D-09 XBig12= 7.57D-13 7.46D-08.
      7 vectors produced by pass  7 Test12= 2.70D-14 1.85D-09 XBig12= 3.09D-15 4.87D-09.
 InvSVY:  IOpt=1 It=  1 EMax= 3.33D-16
 Solved reduced A of dimension   319 with    54 vectors.
 End of Minotr F.D. properties file   721 does not exist.
 End of Minotr F.D. properties file   722 does not exist.
 End of Minotr F.D. properties file   788 does not exist.
 Leave Link 1002 at Fri Mar 25 14:58:44 2022, MaxMem=  1073741824 cpu:            2540.6 elap:             317.6
 (Enter /home/saurabh/gaussian/g16/l601.exe)
 Copying SCF densities to generalized density rwf, IOpCl= 1 IROHF=0.

 **********************************************************************

            Population analysis using the SCF Density.

 **********************************************************************

 Orbital symmetries:
 Alpha Orbitals:
       Occupied  (A) (A) (A) (A) (A) (A) (A) (A) (A) (A) (A) (A)
                 (A) (A) (A) (A) (A) (A) (A) (A) (A) (A) (A) (A)
       Virtual   (A) (A) (A) (A) (A) (A) (A) (A) (A) (A) (A) (A)
                 (A) (A) (A) (A) (A) (A) (A) (A) (A) (A) (A) (A)
                 (A) (A) (A) (A) (A) (A) (A) (A) (A) (A) (A) (A)
                 (A) (A) (A) (A) (A) (A) (A) (A) (A) (A) (A) (A)
                 (A) (A) (A) (A) (A) (A) (A) (A) (A) (A) (A) (A)
                 (A) (A) (A) (A) (A) (A) (A) (A) (A) (A) (A) (A)
                 (A) (A) (A) (A) (A) (A) (A) (A) (A) (A) (A) (A)
                 (A) (A) (A) (A) (A) (A) (A) (A) (A) (A) (A) (A)
                 (A) (A) (A) (A) (A) (A) (A) (A) (A) (A) (A) (A)
                 (A) (A) (A) (A) (A) (A) (A) (A) (A) (A) (A) (A)
                 (A) (A) (A) (A) (A) (A) (A) (A) (A) (A) (A) (A)
                 (A) (A) (A) (A) (A) (A) (A) (A) (A) (A) (A) (A)
                 (A) (A) (A) (A) (A) (A) (A) (A) (A) (A) (A) (A)
                 (A) (A) (A) (A) (A) (A) (A) (A) (A) (A) (A) (A)
                 (A) (A) (A) (A) (A) (A) (A) (A) (A) (A) (A) (A)
                 (A) (A) (A) (A) (A) (A) (A) (A) (A) (A) (A) (A)
                 (A) (A) (A) (A) (A) (A) (A) (A) (A) (A) (A) (A)
                 (A) (A) (A) (A) (A) (A) (A) (A) (A) (A) (A) (A)
                 (A) (A) (A) (A) (A) (A) (A) (A) (A) (A) (A) (A)
                 (A) (A) (A) (A) (A) (A) (A) (A) (A) (A) (A) (A)
                 (A) (A) (A) (A) (A) (A) (A) (A) (A) (A) (A) (A)
                 (A) (A) (A) (A) (A) (A) (A) (A) (A) (A) (A) (A)
                 (A) (A) (A) (A) (A) (A) (A) (A) (A) (A) (A) (A)
                 (A) (A) (A) (A) (A) (A) (A) (A) (A) (A) (A) (A)
                 (A) (A) (A) (A) (A) (A) (A) (A) (A) (A) (A) (A)
                 (A) (A) (A) (A) (A) (A) (A) (A) (A) (A)
 Beta  Orbitals:
       Occupied  (A) (A) (A) (A) (A) (A) (A) (A) (A) (A) (A) (A)
                 (A) (A) (A) (A) (A) (A) (A) (A) (A) (A) (A)
       Virtual   (A) (A) (A) (A) (A) (A) (A) (A) (A) (A) (A) (A)
                 (A) (A) (A) (A) (A) (A) (A) (A) (A) (A) (A) (A)
                 (A) (A) (A) (A) (A) (A) (A) (A) (A) (A) (A) (A)
                 (A) (A) (A) (A) (A) (A) (A) (A) (A) (A) (A) (A)
                 (A) (A) (A) (A) (A) (A) (A) (A) (A) (A) (A) (A)
                 (A) (A) (A) (A) (A) (A) (A) (A) (A) (A) (A) (A)
                 (A) (A) (A) (A) (A) (A) (A) (A) (A) (A) (A) (A)
                 (A) (A) (A) (A) (A) (A) (A) (A) (A) (A) (A) (A)
                 (A) (A) (A) (A) (A) (A) (A) (A) (A) (A) (A) (A)
                 (A) (A) (A) (A) (A) (A) (A) (A) (A) (A) (A) (A)
                 (A) (A) (A) (A) (A) (A) (A) (A) (A) (A) (A) (A)
                 (A) (A) (A) (A) (A) (A) (A) (A) (A) (A) (A) (A)
                 (A) (A) (A) (A) (A) (A) (A) (A) (A) (A) (A) (A)
                 (A) (A) (A) (A) (A) (A) (A) (A) (A) (A) (A) (A)
                 (A) (A) (A) (A) (A) (A) (A) (A) (A) (A) (A) (A)
                 (A) (A) (A) (A) (A) (A) (A) (A) (A) (A) (A) (A)
                 (A) (A) (A) (A) (A) (A) (A) (A) (A) (A) (A) (A)
                 (A) (A) (A) (A) (A) (A) (A) (A) (A) (A) (A) (A)
                 (A) (A) (A) (A) (A) (A) (A) (A) (A) (A) (A) (A)
                 (A) (A) (A) (A) (A) (A) (A) (A) (A) (A) (A) (A)
                 (A) (A) (A) (A) (A) (A) (A) (A) (A) (A) (A) (A)
                 (A) (A) (A) (A) (A) (A) (A) (A) (A) (A) (A) (A)
                 (A) (A) (A) (A) (A) (A) (A) (A) (A) (A) (A) (A)
                 (A) (A) (A) (A) (A) (A) (A) (A) (A) (A) (A) (A)
                 (A) (A) (A) (A) (A) (A) (A) (A) (A) (A) (A) (A)
                 (A) (A) (A) (A) (A) (A) (A) (A) (A) (A) (A)
 The electronic state is 2-A.
 Alpha  occ. eigenvalues --  -10.18718 -10.17716 -10.17716 -10.17377 -10.17377
 Alpha  occ. eigenvalues --  -10.17349  -0.83355  -0.74287  -0.73434  -0.60424
 Alpha  occ. eigenvalues --   -0.59518  -0.55164  -0.47413  -0.44102  -0.44045
 Alpha  occ. eigenvalues --   -0.42262  -0.38133  -0.37492  -0.35487  -0.34661
 Alpha  occ. eigenvalues --   -0.34049  -0.32264  -0.30050  -0.21381
 Alpha virt. eigenvalues --    0.03574   0.04636   0.06046   0.06994   0.09895
 Alpha virt. eigenvalues --    0.10051   0.10792   0.11543   0.11551   0.12574
 Alpha virt. eigenvalues --    0.13094   0.16412   0.18477   0.19609   0.23143
 Alpha virt. eigenvalues --    0.23599   0.24289   0.26243   0.26765   0.27474
 Alpha virt. eigenvalues --    0.28554   0.29259   0.30729   0.32168   0.34062
 Alpha virt. eigenvalues --    0.37910   0.39769   0.42337   0.42657   0.42984
 Alpha virt. eigenvalues --    0.43068   0.43128   0.44647   0.44808   0.45162
 Alpha virt. eigenvalues --    0.45462   0.46432   0.46850   0.48148   0.48888
 Alpha virt. eigenvalues --    0.49060   0.49935   0.50707   0.50833   0.52700
 Alpha virt. eigenvalues --    0.60891   0.61350   0.63447   0.67456   0.71510
 Alpha virt. eigenvalues --    0.72604   0.75791   0.76859   0.77317   0.78564
 Alpha virt. eigenvalues --    0.79124   0.83120   0.88513   0.89163   0.90097
 Alpha virt. eigenvalues --    0.90906   0.92641   0.98216   0.98733   1.00068
 Alpha virt. eigenvalues --    1.02264   1.02592   1.02668   1.04367   1.05003
 Alpha virt. eigenvalues --    1.07530   1.08873   1.09006   1.09862   1.09957
 Alpha virt. eigenvalues --    1.11402   1.11859   1.14872   1.15065   1.16427
 Alpha virt. eigenvalues --    1.18503   1.19142   1.21435   1.22573   1.23499
 Alpha virt. eigenvalues --    1.24519   1.25335   1.26120   1.27459   1.30754
 Alpha virt. eigenvalues --    1.32224   1.33153   1.36140   1.36164   1.36621
 Alpha virt. eigenvalues --    1.37653   1.38615   1.40696   1.43938   1.44661
 Alpha virt. eigenvalues --    1.45335   1.46148   1.46647   1.50098   1.51512
 Alpha virt. eigenvalues --    1.56613   1.58312   1.59805   1.61446   1.64272
 Alpha virt. eigenvalues --    1.68387   1.70216   1.76695   1.77255   1.82369
 Alpha virt. eigenvalues --    2.15163   2.22223   2.25170   2.30778   2.33711
 Alpha virt. eigenvalues --    2.36195   2.37858   2.44431   2.44669   2.45082
 Alpha virt. eigenvalues --    2.45776   2.46669   2.49968   2.51847   2.52086
 Alpha virt. eigenvalues --    2.53616   2.54136   2.56673   2.57533   2.59901
 Alpha virt. eigenvalues --    2.61270   2.62354   2.64118   2.65255   2.65770
 Alpha virt. eigenvalues --    2.66274   2.67199   2.67510   2.68006   2.69271
 Alpha virt. eigenvalues --    2.74130   2.77550   2.80454   2.82616   2.83949
 Alpha virt. eigenvalues --    2.86518   2.88558   2.90837   2.93259   2.93342
 Alpha virt. eigenvalues --    2.95638   2.98860   2.99984   3.02575   3.04898
 Alpha virt. eigenvalues --    3.05519   3.08164   3.08356   3.09015   3.10912
 Alpha virt. eigenvalues --    3.12164   3.13035   3.13603   3.13618   3.14352
 Alpha virt. eigenvalues --    3.15278   3.16882   3.17656   3.18461   3.19352
 Alpha virt. eigenvalues --    3.20715   3.21269   3.23916   3.24026   3.28341
 Alpha virt. eigenvalues --    3.28385   3.33054   3.34038   3.36100   3.39862
 Alpha virt. eigenvalues --    3.40317   3.40795   3.42879   3.46687   3.47457
 Alpha virt. eigenvalues --    3.50317   3.51933   3.54275   3.54476   3.56141
 Alpha virt. eigenvalues --    3.61816   3.62732   3.62939   3.63856   3.64928
 Alpha virt. eigenvalues --    3.65392   3.66906   3.67014   3.68884   3.71575
 Alpha virt. eigenvalues --    3.72343   3.73732   3.74785   3.75801   3.77404
 Alpha virt. eigenvalues --    3.80469   3.82224   3.84030   3.86011   3.87823
 Alpha virt. eigenvalues --    3.88873   3.92646   3.95065   3.95609   3.96940
 Alpha virt. eigenvalues --    3.98401   3.98637   3.99835   4.00645   4.01523
 Alpha virt. eigenvalues --    4.02529   4.03312   4.05131   4.05925   4.08159
 Alpha virt. eigenvalues --    4.09513   4.10595   4.12115   4.14049   4.16278
 Alpha virt. eigenvalues --    4.16815   4.17336   4.17688   4.21720   4.21738
 Alpha virt. eigenvalues --    4.24188   4.27267   4.29807   4.30023   4.30973
 Alpha virt. eigenvalues --    4.32204   4.32888   4.37298   4.40098   4.41573
 Alpha virt. eigenvalues --    4.45751   4.48136   4.49141   4.58716   4.59989
 Alpha virt. eigenvalues --    4.61908   4.62511   4.64307   4.64433   4.66652
 Alpha virt. eigenvalues --    4.71828   4.74550   4.79576   4.79723   4.80580
 Alpha virt. eigenvalues --    4.82909   4.89189   4.89926   4.91802   4.92601
 Alpha virt. eigenvalues --    4.93155   4.95786   4.96952   4.99288   5.00370
 Alpha virt. eigenvalues --    5.03008   5.05016   5.05240   5.12076   5.16527
 Alpha virt. eigenvalues --    5.20550   5.21312   5.23516   5.28756   5.29112
 Alpha virt. eigenvalues --    5.34340   5.36340   5.40408   5.40952   5.41776
 Alpha virt. eigenvalues --    5.42923   5.43915   5.44934   5.48742   5.53619
 Alpha virt. eigenvalues --    5.54974   5.67453   5.68965   5.72782   5.94629
 Alpha virt. eigenvalues --    5.95291   5.98472   6.02588   6.06229  10.40740
 Alpha virt. eigenvalues --   11.83246  12.04905  12.37595  12.66131  12.71830
  Beta  occ. eigenvalues --  -10.17601 -10.17600 -10.17395 -10.17393 -10.17358
  Beta  occ. eigenvalues --  -10.17279  -0.82762  -0.73988  -0.72387  -0.60241
  Beta  occ. eigenvalues --   -0.58381  -0.54535  -0.47007  -0.43894  -0.43825
  Beta  occ. eigenvalues --   -0.41474  -0.37890  -0.36844  -0.34722  -0.34517
  Beta  occ. eigenvalues --   -0.33482  -0.31765  -0.29677
  Beta virt. eigenvalues --   -0.06539   0.03775   0.04726   0.06078   0.07148
  Beta virt. eigenvalues --    0.10007   0.10140   0.11063   0.11564   0.11746
  Beta virt. eigenvalues --    0.12722   0.13149   0.16566   0.19171   0.19804
  Beta virt. eigenvalues --    0.23439   0.23930   0.24682   0.26853   0.27016
  Beta virt. eigenvalues --    0.27840   0.28979   0.29425   0.31334   0.33995
  Beta virt. eigenvalues --    0.34830   0.38356   0.40016   0.42490   0.42897
  Beta virt. eigenvalues --    0.43128   0.43190   0.43524   0.44937   0.45113
  Beta virt. eigenvalues --    0.45476   0.45566   0.46682   0.47378   0.48457
  Beta virt. eigenvalues --    0.49140   0.49647   0.50450   0.51068   0.51205
  Beta virt. eigenvalues --    0.53501   0.61189   0.61664   0.63795   0.67567
  Beta virt. eigenvalues --    0.72047   0.72840   0.76015   0.77184   0.77677
  Beta virt. eigenvalues --    0.78686   0.79362   0.83535   0.89179   0.90085
  Beta virt. eigenvalues --    0.90174   0.91203   0.92783   0.98441   0.99187
  Beta virt. eigenvalues --    1.00191   1.02409   1.03043   1.03145   1.04485
  Beta virt. eigenvalues --    1.05482   1.07742   1.09074   1.09333   1.09966
  Beta virt. eigenvalues --    1.10300   1.11836   1.12548   1.15104   1.15260
  Beta virt. eigenvalues --    1.16751   1.18731   1.20375   1.21560   1.23020
  Beta virt. eigenvalues --    1.23818   1.24842   1.25549   1.26453   1.27988
  Beta virt. eigenvalues --    1.30990   1.32859   1.33667   1.36461   1.36694
  Beta virt. eigenvalues --    1.37510   1.38080   1.38956   1.41018   1.44569
  Beta virt. eigenvalues --    1.44784   1.45473   1.46284   1.46769   1.50222
  Beta virt. eigenvalues --    1.52183   1.57015   1.58861   1.59927   1.61574
  Beta virt. eigenvalues --    1.64495   1.68862   1.71016   1.77129   1.78087
  Beta virt. eigenvalues --    1.82856   2.18537   2.22724   2.25854   2.30979
  Beta virt. eigenvalues --    2.34765   2.36497   2.38053   2.44908   2.45365
  Beta virt. eigenvalues --    2.45430   2.46041   2.47102   2.50194   2.52006
  Beta virt. eigenvalues --    2.52842   2.53804   2.54611   2.56872   2.58291
  Beta virt. eigenvalues --    2.60048   2.61503   2.62817   2.65156   2.65452
  Beta virt. eigenvalues --    2.67066   2.67189   2.67390   2.67758   2.68237
  Beta virt. eigenvalues --    2.70169   2.75025   2.78067   2.80998   2.82748
  Beta virt. eigenvalues --    2.84287   2.87496   2.89574   2.91331   2.93476
  Beta virt. eigenvalues --    2.93646   2.96267   2.99286   3.00090   3.03672
  Beta virt. eigenvalues --    3.05465   3.06249   3.08473   3.08566   3.10126
  Beta virt. eigenvalues --    3.11242   3.12327   3.13232   3.13766   3.13953
  Beta virt. eigenvalues --    3.14602   3.15757   3.17021   3.17840   3.19772
  Beta virt. eigenvalues --    3.20531   3.21403   3.21607   3.24329   3.24636
  Beta virt. eigenvalues --    3.29152   3.30319   3.33797   3.34274   3.36980
  Beta virt. eigenvalues --    3.40250   3.40813   3.41511   3.43717   3.46907
  Beta virt. eigenvalues --    3.47712   3.50469   3.52356   3.54623   3.54921
  Beta virt. eigenvalues --    3.56621   3.62258   3.62962   3.63210   3.64042
  Beta virt. eigenvalues --    3.65201   3.65814   3.67072   3.67297   3.69236
  Beta virt. eigenvalues --    3.71873   3.72467   3.74087   3.74942   3.76114
  Beta virt. eigenvalues --    3.78128   3.81141   3.82761   3.84223   3.86631
  Beta virt. eigenvalues --    3.88118   3.89458   3.93129   3.95218   3.95926
  Beta virt. eigenvalues --    3.97508   3.98647   3.99368   4.00061   4.00843
  Beta virt. eigenvalues --    4.01703   4.02911   4.03627   4.05408   4.06642
  Beta virt. eigenvalues --    4.08600   4.09946   4.10787   4.12590   4.14243
  Beta virt. eigenvalues --    4.16529   4.17141   4.17463   4.18008   4.22005
  Beta virt. eigenvalues --    4.22127   4.24430   4.27492   4.30000   4.30179
  Beta virt. eigenvalues --    4.31458   4.32419   4.33070   4.37679   4.40382
  Beta virt. eigenvalues --    4.41738   4.46001   4.48381   4.49728   4.58996
  Beta virt. eigenvalues --    4.60094   4.62307   4.62688   4.64397   4.65287
  Beta virt. eigenvalues --    4.67027   4.72008   4.74858   4.79801   4.79885
  Beta virt. eigenvalues --    4.80825   4.83110   4.89426   4.90110   4.91871
  Beta virt. eigenvalues --    4.92779   4.93439   4.96111   4.97594   4.99795
  Beta virt. eigenvalues --    5.00885   5.03194   5.05472   5.05495   5.12367
  Beta virt. eigenvalues --    5.17000   5.20713   5.21442   5.23754   5.28864
  Beta virt. eigenvalues --    5.29384   5.34488   5.36409   5.40630   5.41062
  Beta virt. eigenvalues --    5.41929   5.43055   5.44204   5.45107   5.48877
  Beta virt. eigenvalues --    5.53920   5.55210   5.67630   5.69258   5.73483
  Beta virt. eigenvalues --    5.94724   5.95383   5.98574   6.02644   6.06326
  Beta virt. eigenvalues --   10.42331  11.83406  12.05010  12.37848  12.66201
  Beta virt. eigenvalues --   12.71947
          Condensed to atoms (all electrons):
               1          2          3          4          5          6
     1  C    4.844955   0.361978  -0.051293  -0.001901  -0.042624   0.341822
     2  C    0.361978   5.258199   0.361979  -0.064103  -0.003733  -0.064104
     3  C   -0.051293   0.361979   4.844951   0.341824  -0.042625  -0.001901
     4  C   -0.001901  -0.064103   0.341824   4.920598   0.341796  -0.034373
     5  C   -0.042624  -0.003733  -0.042625   0.341796   4.884914   0.341794
     6  C    0.341822  -0.064104  -0.001901  -0.034373   0.341794   4.920605
     7  H   -0.032986   0.008963  -0.000980   0.007116  -0.035992   0.400545
     8  H   -0.038191  -0.002282  -0.001083  -0.005623  -0.037488   0.401809
     9  H   -0.004658  -0.000292  -0.004657  -0.038469   0.406975  -0.038468
    10  H    0.007401  -0.000637   0.007401  -0.034863   0.405904  -0.034863
    11  H   -0.000980   0.008963  -0.032986   0.400545  -0.035992   0.007116
    12  H   -0.001083  -0.002282  -0.038191   0.401807  -0.037489  -0.005624
    13  H   -0.005854  -0.035456   0.401050  -0.041380  -0.004590  -0.001504
    14  H    0.006968  -0.035504   0.407214  -0.037489   0.007923  -0.000663
    15  H   -0.050439   0.407008  -0.050439  -0.001820  -0.001391  -0.001820
    16  H    0.407214  -0.035503   0.006967  -0.000663   0.007923  -0.037490
    17  H    0.401051  -0.035455  -0.005854  -0.001504  -0.004590  -0.041379
               7          8          9         10         11         12
     1  C   -0.032986  -0.038191  -0.004658   0.007401  -0.000980  -0.001083
     2  C    0.008963  -0.002282  -0.000292  -0.000637   0.008963  -0.002282
     3  C   -0.000980  -0.001083  -0.004657   0.007401  -0.032986  -0.038191
     4  C    0.007116  -0.005623  -0.038469  -0.034863   0.400545   0.401807
     5  C   -0.035992  -0.037488   0.406975   0.405904  -0.035992  -0.037489
     6  C    0.400545   0.401809  -0.038468  -0.034863   0.007116  -0.005624
     7  H    0.620926  -0.033205  -0.004948  -0.004991  -0.000483  -0.000016
     8  H   -0.033205   0.625600   0.008076  -0.005100  -0.000016   0.004771
     9  H   -0.004948   0.008076   0.624654  -0.033948  -0.004949   0.008077
    10  H   -0.004991  -0.005100  -0.033948   0.619855  -0.004991  -0.005101
    11  H   -0.000483  -0.000016  -0.004949  -0.004991   0.620927  -0.033205
    12  H   -0.000016   0.004771   0.008077  -0.005101  -0.033205   0.625606
    13  H   -0.000087   0.000322   0.004618   0.000000  -0.004573   0.008211
    14  H    0.000114  -0.000086  -0.000083  -0.000495  -0.005675  -0.004962
    15  H   -0.000296   0.004686   0.000266   0.000064  -0.000296   0.004686
    16  H   -0.005675  -0.004962  -0.000083  -0.000495   0.000114  -0.000086
    17  H   -0.004573   0.008211   0.004618   0.000000  -0.000087   0.000322
              13         14         15         16         17
     1  C   -0.005854   0.006968  -0.050439   0.407214   0.401051
     2  C   -0.035456  -0.035504   0.407008  -0.035503  -0.035455
     3  C    0.401050   0.407214  -0.050439   0.006967  -0.005854
     4  C   -0.041380  -0.037489  -0.001820  -0.000663  -0.001504
     5  C   -0.004590   0.007923  -0.001391   0.007923  -0.004590
     6  C   -0.001504  -0.000663  -0.001820  -0.037490  -0.041379
     7  H   -0.000087   0.000114  -0.000296  -0.005675  -0.004573
     8  H    0.000322  -0.000086   0.004686  -0.004962   0.008211
     9  H    0.004618  -0.000083   0.000266  -0.000083   0.004618
    10  H    0.000000  -0.000495   0.000064  -0.000495   0.000000
    11  H   -0.004573  -0.005675  -0.000296   0.000114  -0.000087
    12  H    0.008211  -0.004962   0.004686  -0.000086   0.000322
    13  H    0.631282  -0.034134   0.007793  -0.000091   0.004294
    14  H   -0.034134   0.619067  -0.006637  -0.000489  -0.000091
    15  H    0.007793  -0.006637   0.613899  -0.006637   0.007793
    16  H   -0.000091  -0.000489  -0.006637   0.619067  -0.034134
    17  H    0.004294  -0.000091   0.007793  -0.034134   0.631277
          Atomic-Atomic Spin Densities.
               1          2          3          4          5          6
     1  C   -0.036678  -0.020862   0.004696   0.001468   0.001248   0.016242
     2  C   -0.020862   1.049549  -0.020862  -0.044347   0.007303  -0.044348
     3  C    0.004696  -0.020862  -0.036679   0.016242   0.001248   0.001468
     4  C    0.001468  -0.044347   0.016242   0.097362  -0.006667   0.011177
     5  C    0.001248   0.007303   0.001248  -0.006667  -0.003631  -0.006667
     6  C    0.016242  -0.044348   0.001468   0.011177  -0.006667   0.097363
     7  H   -0.002255   0.004258  -0.000266  -0.000748   0.000550  -0.009415
     8  H   -0.000080   0.002786  -0.000181  -0.000644   0.000520  -0.003195
     9  H   -0.000252   0.001123  -0.000252  -0.000937   0.000092  -0.000937
    10  H    0.000041  -0.001766   0.000041   0.000770   0.002789   0.000770
    11  H   -0.000266   0.004258  -0.002255  -0.009415   0.000550  -0.000748
    12  H   -0.000181   0.002786  -0.000080  -0.003195   0.000520  -0.000644
    13  H    0.000280  -0.002175   0.002028  -0.007508   0.000698  -0.001322
    14  H   -0.000470  -0.002008   0.004111  -0.007316   0.000141  -0.000316
    15  H    0.003343   0.008983   0.003343  -0.003641   0.000182  -0.003641
    16  H    0.004111  -0.002007  -0.000470  -0.000316   0.000141  -0.007316
    17  H    0.002028  -0.002175   0.000280  -0.001322   0.000698  -0.007508
               7          8          9         10         11         12
     1  C   -0.002255  -0.000080  -0.000252   0.000041  -0.000266  -0.000181
     2  C    0.004258   0.002786   0.001123  -0.001766   0.004258   0.002786
     3  C   -0.000266  -0.000181  -0.000252   0.000041  -0.002255  -0.000080
     4  C   -0.000748  -0.000644  -0.000937   0.000770  -0.009415  -0.003195
     5  C    0.000550   0.000520   0.000092   0.002789   0.000550   0.000520
     6  C   -0.009415  -0.003195  -0.000937   0.000770  -0.000748  -0.000644
     7  H    0.015407   0.001570   0.000484  -0.001337   0.000154   0.000130
     8  H    0.001570  -0.002508   0.000032  -0.000396   0.000130   0.000050
     9  H    0.000484   0.000032   0.000586  -0.000401   0.000484   0.000032
    10  H   -0.001337  -0.000396  -0.000401   0.003335  -0.001337  -0.000396
    11  H    0.000154   0.000130   0.000484  -0.001337   0.015407   0.001570
    12  H    0.000130   0.000050   0.000032  -0.000396   0.001570  -0.002508
    13  H    0.000126   0.000033   0.000233  -0.000114   0.001387   0.000172
    14  H    0.000015   0.000027   0.000033  -0.000026   0.001089   0.000280
    15  H    0.000278   0.000230   0.000034  -0.000080   0.000278   0.000230
    16  H    0.001089   0.000280   0.000033  -0.000026   0.000015   0.000027
    17  H    0.001387   0.000172   0.000233  -0.000114   0.000126   0.000033
              13         14         15         16         17
     1  C    0.000280  -0.000470   0.003343   0.004111   0.002028
     2  C   -0.002175  -0.002008   0.008983  -0.002007  -0.002175
     3  C    0.002028   0.004111   0.003343  -0.000470   0.000280
     4  C   -0.007508  -0.007316  -0.003641  -0.000316  -0.001322
     5  C    0.000698   0.000141   0.000182   0.000141   0.000698
     6  C   -0.001322  -0.000316  -0.003641  -0.007316  -0.007508
     7  H    0.000126   0.000015   0.000278   0.001089   0.001387
     8  H    0.000033   0.000027   0.000230   0.000280   0.000172
     9  H    0.000233   0.000033   0.000034   0.000033   0.000233
    10  H   -0.000114  -0.000026  -0.000080  -0.000026  -0.000114
    11  H    0.001387   0.001089   0.000278   0.000015   0.000126
    12  H    0.000172   0.000280   0.000230   0.000027   0.000033
    13  H    0.009647   0.001334   0.000053   0.000089   0.000599
    14  H    0.001334   0.007087   0.001107   0.000022   0.000089
    15  H    0.000053   0.001107  -0.023223   0.001107   0.000053
    16  H    0.000089   0.000022   0.001107   0.007087   0.001334
    17  H    0.000599   0.000089   0.000053   0.001334   0.009647
 Mulliken charges and spin densities:
               1          2
     1  C   -0.141380  -0.027588
     2  C   -0.127740   0.940496
     3  C   -0.141377  -0.027588
     4  C   -0.151499   0.040963
     5  C   -0.150713  -0.000285
     6  C   -0.151503   0.040964
     7  H    0.086568   0.011427
     8  H    0.074563  -0.001174
     9  H    0.073270   0.000618
    10  H    0.084859   0.001757
    11  H    0.086568   0.011427
    12  H    0.074560  -0.001174
    13  H    0.070099   0.005561
    14  H    0.085022   0.005200
    15  H    0.073581  -0.011363
    16  H    0.085022   0.005200
    17  H    0.070101   0.005560
 Sum of Mulliken charges =  -0.00000   1.00000
 Mulliken charges and spin densities with hydrogens summed into heavy atoms:
               1          2
     1  C    0.013743  -0.016828
     2  C   -0.054160   0.929133
     3  C    0.013744  -0.016828
     4  C    0.009629   0.051216
     5  C    0.007416   0.002090
     6  C    0.009628   0.051217
 APT charges:
               1
     1  C   -0.779988
     2  C   -0.160876
     3  C   -0.779986
     4  C   -0.688893
     5  C   -0.701174
     6  C   -0.688893
     7  H    0.431102
     8  H    0.282000
     9  H    0.283475
    10  H    0.426021
    11  H    0.431103
    12  H    0.281997
    13  H    0.279643
    14  H    0.438365
    15  H    0.228092
    16  H    0.438365
    17  H    0.279645
 Sum of APT charges =  -0.00000
 APT charges with hydrogens summed into heavy atoms:
               1
     1  C   -0.061977
     2  C    0.067216
     3  C   -0.061978
     4  C    0.024207
     5  C    0.008323
     6  C    0.024209
 Electronic spatial extent (au):  <R**2>=            568.8346
 Charge=             -0.0000 electrons
 Dipole moment (field-independent basis, Debye):
    X=             -0.0000    Y=              0.9122    Z=             -0.1171  Tot=              0.9197
 Quadrupole moment (field-independent basis, Debye-Ang):
   XX=            -39.7355   YY=            -42.7844   ZZ=            -39.0950
   XY=              0.0000   XZ=             -0.0000   YZ=              0.2783
 Traceless Quadrupole moment (field-independent basis, Debye-Ang):
   XX=              0.8028   YY=             -2.2461   ZZ=              1.4433
   XY=              0.0000   XZ=             -0.0000   YZ=              0.2783
 Octapole moment (field-independent basis, Debye-Ang**2):
  XXX=              0.0000  YYY=              9.4167  ZZZ=             -0.0059  XYY=             -0.0001
  XXY=              0.3370  XXZ=             -0.0084  XZZ=              0.0000  YZZ=              0.3048
  YYZ=             -0.7363  XYZ=              0.0000
 Hexadecapole moment (field-independent basis, Debye-Ang**3):
 XXXX=           -363.2519 YYYY=           -359.9860 ZZZZ=           -105.0132 XXXY=             -0.0000
 XXXZ=             -0.0001 YYYX=              0.0004 YYYZ=             -1.4995 ZZZX=             -0.0000
 ZZZY=              0.0430 XXYY=           -116.2593 XXZZ=            -80.2753 YYZZ=            -75.8670
 XXYZ=              3.2938 YYXZ=              0.0001 ZZXY=              0.0000
 N-N= 2.449486924109D+02 E-N=-1.033610921257D+03  KE= 2.332292818466D+02
  Exact polarizability:       0.000       0.000       0.000       0.000       0.000       0.000
 Approx polarizability:      99.080       0.000      98.407      -0.000       1.617      98.866
                          Isotropic Fermi Contact Couplings
        Atom                 a.u.       MegaHertz       Gauss      10(-4) cm-1
     1  C(13)             -0.00952     -10.69896      -3.81766      -3.56879
     2  C(13)              0.24545     275.93403      98.46012      92.04169
     3  C(13)             -0.00952     -10.69885      -3.81762      -3.56875
     4  C(13)              0.03671      41.27451      14.72777      13.76769
     5  C(13)             -0.00320      -3.59554      -1.28298      -1.19934
     6  C(13)              0.03671      41.27426      14.72768      13.76761
     7  H(1)               0.00362      16.16060       5.76650       5.39060
     8  H(1)              -0.00053      -2.36175      -0.84273      -0.78780
     9  H(1)               0.00012       0.54356       0.19396       0.18131
    10  H(1)               0.00202       9.02060       3.21878       3.00895
    11  H(1)               0.00362      16.15998       5.76628       5.39039
    12  H(1)              -0.00053      -2.36192      -0.84279      -0.78785
    13  H(1)               0.00319      14.24027       5.08128       4.75004
    14  H(1)               0.00376      16.79111       5.99149       5.60091
    15  H(1)              -0.00113      -5.06158      -1.80610      -1.68836
    16  H(1)               0.00376      16.79068       5.99133       5.60077
    17  H(1)               0.00319      14.23911       5.08087       4.74966
 --------------------------------------------------------
       Center         ----  Spin Dipole Couplings  ----
                      3XX-RR        3YY-RR        3ZZ-RR
 --------------------------------------------------------
     1   Atom        0.000208      0.023986     -0.024194
     2   Atom       -0.513599      0.834596     -0.320997
     3   Atom        0.000209      0.023985     -0.024194
     4   Atom       -0.039255      0.077958     -0.038702
     5   Atom       -0.004063      0.009009     -0.004946
     6   Atom       -0.039256      0.077958     -0.038702
     7   Atom        0.002950      0.001969     -0.004919
     8   Atom       -0.005009      0.002325      0.002684
     9   Atom       -0.002443      0.003539     -0.001095
    10   Atom       -0.001786      0.004345     -0.002560
    11   Atom        0.002950      0.001969     -0.004919
    12   Atom       -0.005009      0.002325      0.002684
    13   Atom       -0.001050     -0.003514      0.004564
    14   Atom        0.018475     -0.008136     -0.010338
    15   Atom       -0.058829     -0.008039      0.066868
    16   Atom        0.018474     -0.008136     -0.010338
    17   Atom       -0.001051     -0.003513      0.004564
 --------------------------------------------------------
                        XY            XZ            YZ
 --------------------------------------------------------
     1   Atom        0.032852      0.006664      0.003947
     2   Atom       -0.000003      0.000001     -0.506455
     3   Atom       -0.032852     -0.006664      0.003946
     4   Atom       -0.003606      0.000636     -0.014425
     5   Atom       -0.000000     -0.000000      0.002090
     6   Atom        0.003603     -0.000636     -0.014425
     7   Atom        0.005264      0.003158      0.000796
     8   Atom        0.005318     -0.002123     -0.007614
     9   Atom       -0.000000     -0.000000      0.003887
    10   Atom       -0.000000     -0.000000     -0.000151
    11   Atom       -0.005264     -0.003158      0.000796
    12   Atom       -0.005318      0.002123     -0.007614
    13   Atom       -0.006737     -0.011602      0.008174
    14   Atom       -0.004560      0.000030     -0.000834
    15   Atom       -0.000000     -0.000001      0.002066
    16   Atom        0.004561     -0.000029     -0.000834
    17   Atom        0.006737      0.011602      0.008174
 --------------------------------------------------------


 ---------------------------------------------------------------------------------
              Anisotropic Spin Dipole Couplings in Principal Axis System
 ---------------------------------------------------------------------------------

       Atom             a.u.   MegaHertz   Gauss  10(-4) cm-1        Axes

              Baa    -0.0272    -3.650    -1.302    -1.217 -0.5259  0.2755  0.8047
     1 C(13)  Bbb    -0.0205    -2.755    -0.983    -0.919  0.6265 -0.5143  0.5856
              Bcc     0.0477     6.405     2.285     2.136  0.5752  0.8121  0.0979
 
              Baa    -0.5136   -68.920   -24.592   -22.989  1.0000 -0.0000 -0.0001
     2 C(13)  Bbb    -0.5115   -68.644   -24.494   -22.897  0.0001  0.3521  0.9360
              Bcc     1.0251   137.564    49.086    45.886 -0.0000  0.9360 -0.3521
 
              Baa    -0.0272    -3.650    -1.302    -1.217  0.5259  0.2755  0.8047
     3 C(13)  Bbb    -0.0205    -2.755    -0.983    -0.919  0.6265  0.5143 -0.5856
              Bcc     0.0477     6.405     2.285     2.136 -0.5752  0.8121  0.0979
 
              Baa    -0.0405    -5.434    -1.939    -1.813 -0.1706  0.1140  0.9787
     4 C(13)  Bbb    -0.0393    -5.278    -1.883    -1.761  0.9849  0.0507  0.1658
              Bcc     0.0798    10.712     3.822     3.573 -0.0307  0.9922 -0.1209
 
              Baa    -0.0053    -0.705    -0.251    -0.235  0.0000 -0.1450  0.9894
     5 C(13)  Bbb    -0.0041    -0.545    -0.195    -0.182  1.0000  0.0000 -0.0000
              Bcc     0.0093     1.250     0.446     0.417 -0.0000  0.9894  0.1450
 
              Baa    -0.0405    -5.434    -1.939    -1.813  0.1707  0.1140  0.9787
     6 C(13)  Bbb    -0.0393    -5.278    -1.883    -1.761  0.9849 -0.0507 -0.1658
              Bcc     0.0798    10.712     3.822     3.573  0.0307  0.9922 -0.1209
 
              Baa    -0.0062    -3.313    -1.182    -1.105 -0.4102  0.1770  0.8946
     7 H(1)   Bbb    -0.0022    -1.156    -0.413    -0.386 -0.5309  0.7513 -0.3921
              Bcc     0.0084     4.469     1.595     1.491  0.7415  0.6358  0.2142
 
              Baa    -0.0082    -4.391    -1.567    -1.465  0.7820 -0.5722 -0.2471
     8 H(1)   Bbb    -0.0036    -1.897    -0.677    -0.633  0.5449  0.4352  0.7167
              Bcc     0.0118     6.287     2.244     2.097  0.3026  0.6951 -0.6522
 
              Baa    -0.0033    -1.763    -0.629    -0.588  0.0000 -0.4939  0.8695
     9 H(1)   Bbb    -0.0024    -1.304    -0.465    -0.435  1.0000  0.0000 -0.0000
              Bcc     0.0057     3.066     1.094     1.023 -0.0000  0.8695  0.4939
 
              Baa    -0.0026    -1.367    -0.488    -0.456  0.0000  0.0219  0.9998
    10 H(1)   Bbb    -0.0018    -0.953    -0.340    -0.318  1.0000  0.0000 -0.0000
              Bcc     0.0043     2.320     0.828     0.774 -0.0000  0.9998 -0.0219
 
              Baa    -0.0062    -3.313    -1.182    -1.105  0.4102  0.1770  0.8946
    11 H(1)   Bbb    -0.0022    -1.156    -0.413    -0.386  0.5309  0.7513 -0.3921
              Bcc     0.0084     4.469     1.595     1.491  0.7415 -0.6358 -0.2142
 
              Baa    -0.0082    -4.391    -1.567    -1.465  0.7820  0.5722  0.2471
    12 H(1)   Bbb    -0.0036    -1.897    -0.677    -0.633 -0.5449  0.4352  0.7167
              Bcc     0.0118     6.287     2.244     2.097 -0.3026  0.6951 -0.6522
 
              Baa    -0.0102    -5.447    -1.944    -1.817  0.8117  0.1186  0.5719
    13 H(1)   Bbb    -0.0085    -4.549    -1.623    -1.517  0.1619  0.8951 -0.4154
              Bcc     0.0187     9.996     3.567     3.334 -0.5612  0.4298  0.7074
 
              Baa    -0.0107    -5.714    -2.039    -1.906  0.0626  0.4066  0.9115
    14 H(1)   Bbb    -0.0085    -4.550    -1.623    -1.518  0.1522  0.8987 -0.4114
              Bcc     0.0192    10.263     3.662     3.423  0.9864 -0.1645  0.0056
 
              Baa    -0.0588   -31.388   -11.200   -10.470  1.0000  0.0000  0.0000
    15 H(1)   Bbb    -0.0081    -4.320    -1.541    -1.441 -0.0000  0.9996 -0.0275
              Bcc     0.0669    35.708    12.742    11.911 -0.0000  0.0275  0.9996
 
              Baa    -0.0107    -5.714    -2.039    -1.906 -0.0626  0.4066  0.9114
    16 H(1)   Bbb    -0.0085    -4.550    -1.623    -1.518 -0.1522  0.8987 -0.4114
              Bcc     0.0192    10.263     3.662     3.423  0.9864  0.1645 -0.0056
 
              Baa    -0.0102    -5.447    -1.944    -1.817  0.8117 -0.1186 -0.5719
    17 H(1)   Bbb    -0.0085    -4.549    -1.623    -1.517 -0.1619  0.8951 -0.4154
              Bcc     0.0187     9.996     3.567     3.334  0.5611  0.4298  0.7074
 

 ---------------------------------------------------------------------------------

 No NMR shielding tensors so no spin-rotation constants.
 Leave Link  601 at Fri Mar 25 14:58:44 2022, MaxMem=  1073741824 cpu:               2.7 elap:               0.4
 (Enter /home/saurabh/gaussian/g16/l701.exe)
 ... and contract with generalized density number  0.
 Compute integral second derivatives.
 Leave Link  701 at Fri Mar 25 14:58:44 2022, MaxMem=  1073741824 cpu:               2.0 elap:               0.3
 (Enter /home/saurabh/gaussian/g16/l702.exe)
 L702 exits ... SP integral derivatives will be done elsewhere.
 Leave Link  702 at Fri Mar 25 14:58:44 2022, MaxMem=  1073741824 cpu:               0.1 elap:               0.0
 (Enter /home/saurabh/gaussian/g16/l703.exe)
 Integral derivatives from FoFJK, PRISM(SPDF).
 Compute integral second derivatives, UseDBF=F ICtDFT=           0.
 Calling FoFJK, ICntrl=    100127 FMM=F ISym2X=0 I1Cent= 0 IOpClX= 1 NMat=1 NMatS=1 NMatT=0.
 FoFJK:  IHMeth= 1 ICntrl=  100127 DoSepK=F KAlg= 0 I1Cent=           0 FoldK=F
 IRaf=         0 NMat=       1 IRICut=       1 DoRegI=T DoRafI=F ISym2E= 0 IDoP0=0 IntGTp=1.
 FoFCou: FMM=F IPFlag=           0 FMFlag=      100000 FMFlg1=         800
         NFxFlg=           0 DoJE=F BraDBF=F KetDBF=F FulRan=T
         wScrn=  0.000000 ICntrl=    100127 IOpCl=  1 I1Cent=           0 NGrid=           0
         NMat0=    1 NMatS0=      1 NMatT0=    0 NMatD0=    1 NMtDS0=    0 NMtDT0=    0
 Symmetry not used in FoFCou.
 Leave Link  703 at Fri Mar 25 15:02:57 2022, MaxMem=  1073741824 cpu:            2017.0 elap:             252.1
 (Enter /home/saurabh/gaussian/g16/l716.exe)
 Dipole        =-3.88801766D-07 3.58899488D-01-4.60673709D-02
 Polarizability= 0.00000000D+00 0.00000000D+00 0.00000000D+00
                 0.00000000D+00 0.00000000D+00 0.00000000D+00
 ***** Axes restored to original set *****
 -------------------------------------------------------------------
 Center     Atomic                   Forces (Hartrees/Bohr)
 Number     Number              X              Y              Z
 -------------------------------------------------------------------
      1        6          -0.021758818    0.015745612   -0.003395471
      2        6           0.043629108   -0.023146364    0.011301401
      3        6          -0.025230827    0.009243123   -0.003331464
      4        6           0.005934982   -0.007264696    0.000309384
      5        6           0.006582330   -0.003471597    0.003346468
      6        6           0.009338692   -0.000880155    0.000235627
      7        1          -0.008817591   -0.003826114    0.005990421
      8        1           0.001606313    0.000654768   -0.011494535
      9        1           0.001303293   -0.000575248    0.011344613
     10        1          -0.008478881    0.004454114   -0.006376563
     11        1          -0.001682211    0.009552574    0.005849017
     12        1           0.000250085   -0.001887866   -0.011470114
     13        1          -0.000762316   -0.001492848    0.011011341
     14        1           0.008568948    0.004036473   -0.006329998
     15        1          -0.012759593    0.006679926   -0.011778935
     16        1           0.001365177   -0.009467292   -0.006186908
     17        1           0.000911309    0.001645589    0.010975716
 -------------------------------------------------------------------
 Cartesian Forces:  Max     0.043629108 RMS     0.010773538
 FormGI is forming the generalized inverse of G from B-inverse, IUseBI=4.
 Leave Link  716 at Fri Mar 25 15:02:57 2022, MaxMem=  1073741824 cpu:               0.2 elap:               0.0
 (Enter /home/saurabh/gaussian/g16/l103.exe)

 GradGradGradGradGradGradGradGradGradGradGradGradGradGradGradGradGradGrad
 Berny optimization.
 Red2BG is reusing G-inverse.
 Internal  Forces:  Max     0.012710335 RMS     0.004860150
 Search for a local minimum.
 Step number   1 out of a maximum of  102
 All quantities printed in internal units (Hartrees-Bohrs-Radians)
 RMS Force = .48601D-02 SwitMx=.10000D-02 MixMth= 1
 Mixed Optimization -- RFO/linear search
[...]
   zx         0.508637D+01      0.753723D+00      0.838630D+00
   zy         0.269483D+01      0.399333D+00      0.444318D+00
   zz         0.649586D+02      0.962587D+01      0.107102D+02

 ----------------------------------------------------------------------
 Unable to Open any file for archive entry.
 1\1\GINC-MEDIAWIKI\Freq\UB3LYP\CC-pVTZ\C6H11(2)\SAURABH\25-Mar-2022\0\
 \#P Geom=AllCheck Guess=TCheck SCRF=Check GenChk UB3LYP/CC-pVTZ Freq\\
 Mol_01\\0,2\C,0.0449419021,0.0061163799,0.1547985738\C,-1.1521684954,-
 0.8087795449,0.5081902382\C,-1.1650268785,-2.2625130633,0.1787849851\C
 ,0.1697065814,-2.9473184256,0.5247862417\C,1.3627720806,-2.15567931,-0
 .0179681672\C,1.3602339929,-0.715139699,0.5011852848\H,2.2072337894,-0
 .1602426776,0.0918143222\H,1.4848752082,-0.7266829461,1.588009074\H,1.
 3247093959,-2.1469571617,-1.1130446761\H,2.2971666385,-2.6511464725,0.
 2553698474\H,0.1772066226,-3.966441831,0.1320583715\H,0.2582739372,-3.
 0264983568,1.6123252159\H,-1.3433023493,-2.3963424006,-0.9026133984\H,
 -1.9948382392,-2.766450624,0.678562353\H,-2.0749567706,-0.3137341607,0
 .7810452882\H,0.0054936753,0.9840738743,0.638906532\H,0.0472589087,0.2
 108864196,-0.930180086\\Version=ES64L-G16RevC.01\State=2-A\HF=-235.299
 1077\S2=0.754103\S2-1=0.\S2A=0.750012\RMSD=2.697e-09\RMSF=6.794e-07\Ze
 roPoint=0.1549169\Thermal=0.160992\ETot=-235.1381157\HTot=-235.1371716
 \GTot=-235.1739482\Dipole=0.0355671,-0.0196352,-0.0629753\DipoleDeriv=
 0.0035953,0.0176252,-0.0007729,0.0193707,0.0529559,-0.0188805,0.021902
 3,0.0113249,0.220719,0.0974316,0.017226,-0.0985951,0.0171266,0.123065,
 0.0486075,-0.1081244,0.0536902,-0.2445385,0.0206915,0.0307834,0.016500
 4,0.0291466,0.035853,0.0139462,0.0040754,-0.0217259,0.2207235,0.085493
 3,-0.0396795,0.012394,-0.0110397,0.1161631,0.0240847,0.0114278,0.00151
 18,0.1517305,0.0738595,-0.0072453,0.0148661,-0.0074912,0.063902,-0.006
 9759,-0.0083807,0.0054225,0.1500903,0.1300407,0.0185864,-0.0132125,-0.
 0098661,0.0710074,-0.0222939,0.0054654,-0.0091675,0.1523391,-0.1349264
 ,-0.0936616,0.0422428,-0.0979674,-0.0551097,0.0320914,0.0823375,0.0498
 496,0.0298637,0.0250082,0.0229173,-0.0063656,0.0283256,0.0139263,0.015
 6603,-0.0615018,-0.0210865,-0.1754145,0.0382331,-0.0252599,-0.028293,-
 0.0247031,0.0047474,0.0131649,0.0243643,-0.0149197,-0.1906435,-0.15819
 79,0.0908984,-0.0230893,0.0906395,-0.0355185,0.0126824,-0.047575,0.025
 7418,0.0474768,0.0087872,-0.0024502,-0.0028894,0.0023592,-0.2012029,-0
 .0491764,0.0046239,-0.0923263,0.0322426,-0.0066473,0.007546,-0.0181597
 ,0.0015536,0.0461926,-0.0070991,-0.0182639,0.0591101,-0.1760254,0.0403
 412,0.0150644,-0.0153838,-0.0129955,-0.0194793,-0.0192543,-0.0736932,-
 0.0712011,-0.1912472,-0.1182015,-0.0743161,0.0570412,-0.078862,-0.0283
 031,0.0355161,0.0896066,0.0590588,0.0225802,-0.1185391,0.052921,0.0550
 965,0.0529328,-0.0489345,-0.0279197,0.0564035,-0.0286174,0.1181788,0.0
 1469,0.0093716,0.0022016,0.0142461,-0.1639919,-0.0642116,0.0007142,-0.
 1043295,0.0253778,-0.0016592,-0.0403269,0.0064187,-0.0127756,0.0247272
 ,0.0200581,0.016618,0.0976642,-0.1934531\Polar=72.2665222,0.8105815,73
 .3835305,-1.2208396,0.5093168,60.3973759\Quadrupole=0.0590638,0.196876
 4,-0.2559402,0.1022013,-0.0306744,0.0109956\PG=C01 [X(C6H11)]\NImag=0\
 \0.42552767,0.00993905,0.55307291,-0.00897082,0.04867930,0.48807003,-0
 .16299446,-0.05708190,0.03370778,0.54794682,-0.05414733,-0.12802905,0.
 00828327,-0.03513316,0.50420870,0.03544093,0.00991564,-0.06100138,-0.1
 3496481,0.06850491,0.15581565,0.00199332,-0.02464841,-0.00893585,-0.08
 721369,-0.00647128,0.01184944,0.50348676,-0.00493868,-0.01771847,-0.00
 416800,-0.00355116,-0.20467426,-0.03256162,0.06184513,0.47365323,-0.00
 139431,0.01036270,0.00675685,0.01219146,-0.03018713,-0.06013718,-0.046
 58236,-0.01997133,0.48953078,0.00051615,-0.00064900,0.00145379,0.00080
 263,0.01311421,0.00162492,-0.14153130,0.02611424,-0.01946939,0.4217620
 5,-0.00055111,0.00236273,0.00064418,0.03123297,-0.02049693,0.00277876,
 0.03225738,-0.09615282,0.01593383,0.00286118,0.55327839,0.00020129,0.0
 0088045,-0.00018936,0.00787049,-0.00492366,0.00150906,-0.01756444,0.01
 228992,-0.07968532,0.00840464,0.03539511,0.56404608,-0.00125799,0.0310
 3627,0.01096359,0.00236930,-0.00126809,0.00091649,-0.03252189,-0.01230
 851,0.01091956,-0.13612521,-0.03658900,0.02778832,0.53448235,0.0085673
 6,-0.02009897,-0.00516556,-0.00126961,0.00064556,-0.00048299,0.0098953
 0,0.01102906,-0.00643643,-0.03780074,-0.10599387,0.01954492,-0.0554732
 4,0.45928653,0.00150963,0.00685407,0.00366166,0.00077290,-0.00040640,0
 .00052406,-0.00469653,-0.00508499,0.00379784,0.02805171,0.01768601,-0.
 09474091,0.03088789,-0.01515438,0.55468568,-0.13762698,0.03480760,-0.0
 2414659,-0.03433832,0.00756070,-0.00121212,0.00234160,0.00067399,0.000
 24175,0.00017088,-0.02836516,-0.00978963,-0.08092903,0.00015727,0.0008
 1802,0.50937873,0.02872892,-0.10019594,0.00737988,-0.01038450,0.014595
 50,-0.00302172,0.00055344,0.00049707,-0.00158242,-0.00757040,-0.023787
 21,-0.00460091,-0.00107496,-0.16227562,-0.03202816,0.06128757,0.464361
 91,-0.01995863,0.00777408,-0.07954667,0.00896060,-0.00407595,0.0015574
 8,-0.00065042,-0.00067485,-0.00014918,-0.00146013,0.01142873,0.0057404
 7,-0.00085238,-0.03285564,-0.09365491,-0.02524254,-0.02559386,0.565345
 89,-0.02290788,-0.01421699,0.00975601,-0.00351209,0.00482046,-0.000912
 11,0.00030931,0.00048413,0.00001117,0.00108731,0.00021349,-0.00027235,
 0.00113606,0.00067867,-0.00089591,-0.19743659,-0.09905513,0.07495843,0
 .21674513,0.01408990,0.00857711,-0.00533987,0.00219206,-0.00175880,0.0
 0039257,0.00058894,-0.00003888,0.00018777,0.00191949,-0.00569879,-0.00
 380852,-0.02480673,-0.01640018,0.01330569,-0.09913935,-0.11180772,0.04
 910058,0.10693920,0.12413304,-0.00846614,-0.00459440,0.00250611,-0.000
 79599,0.00116112,0.00054112,0.00002926,0.00001286,-0.00003887,0.000529
 52,-0.00188482,-0.00060295,-0.01057191,-0.00721761,0.00428456,0.076949
 17,0.05045089,-0.08774904,-0.08215559,-0.05413380,0.09106817,-0.005402
 30,0.00176316,-0.02860779,0.00196187,0.00039908,-0.00040503,-0.0003261
 0,-0.00006449,-0.00015541,0.00002995,0.00003843,-0.00091314,-0.0002618
 7,0.00013608,0.00091551,-0.05164586,-0.00187588,-0.02431152,0.00296051
 ,0.00013533,0.02494599,0.05479043,0.00354180,-0.00162582,0.01611815,-0
 .00121293,-0.00007941,-0.00052792,-0.00005614,-0.00023656,0.00010642,0
 .00066881,0.00185135,-0.00092914,-0.00341885,-0.00215160,-0.03366097,-
 0.00201888,-0.04696794,0.00468088,0.00207971,-0.00036659,0.01640752,-0
 .00259795,0.05449241,-0.00168978,0.00102952,-0.00699455,0.00079481,-0.
 00012789,0.00089270,-0.00019501,-0.00003571,0.00002546,0.00021222,0.00
 095883,0.00043451,-0.00072054,-0.00135469,-0.01312656,-0.02569680,0.00
 397110,-0.29329130,-0.00040916,0.00060992,-0.01253905,0.02917658,-0.00
 295429,0.32086836,0.00020597,-0.00010264,0.00092470,-0.00024911,-0.000
 05792,-0.00003697,0.00173074,0.00044049,0.00086341,-0.00019981,-0.0011
 3749,0.02755244,-0.05011357,0.00185861,-0.01171250,-0.00059464,-0.0002
 0947,-0.00080278,0.00004105,0.00006020,-0.00031153,0.00090937,-0.00038
 839,0.00030964,0.05187473,-0.00059260,0.00194868,-0.00044217,-0.000054
 85,-0.00032748,0.00002192,0.00090269,0.00041039,-0.00053006,0.00006675
 ,-0.00146757,0.01932184,0.00186892,-0.04735460,0.00366862,-0.00170524,
 -0.00166208,-0.03382228,-0.00019709,0.00135496,0.00065870,0.00035683,-
 0.00596697,-0.00250019,0.00191781,0.05421078,-0.00009293,0.00080171,0.
 00038370,0.00025243,-0.00013243,-0.00014913,-0.00074431,-0.00037370,0.
 00039723,0.00027069,0.00139772,-0.01326614,-0.01073663,0.00314814,-0.2
 9024061,-0.00109322,-0.00119261,-0.01267680,-0.00033948,-0.00035451,0.
 00065359,-0.00011551,-0.00239785,0.00070079,0.01046511,-0.00278229,0.3
 2001530,0.00127188,-0.00017345,0.00030584,0.00048396,-0.00062761,-0.00
 015935,-0.00259206,-0.00440433,0.00340590,-0.02267709,0.01143732,-0.00
 731663,-0.23093962,0.09774166,-0.05653580,0.00115902,-0.00042186,0.000
 45380,0.00063415,0.00051767,0.00012084,0.00017032,0.00021212,0.0004755
 8,-0.00111637,0.00033581,-0.00141394,0.25296293,-0.00185064,-0.0057497
 2,-0.00378471,-0.00062811,-0.00035367,0.00009033,-0.00275339,-0.001791
 53,0.00190202,-0.01629271,0.00847806,-0.00543164,0.09772606,-0.0983635
 8,0.02994148,0.02762363,-0.01521064,0.00915286,-0.00043984,0.00089978,
 0.00077590,-0.00017216,0.00138744,-0.00030314,0.00005633,-0.00048173,0
 .00066503,-0.10544935,0.10993150,-0.00025054,-0.00187109,-0.00035655,-
 0.00020685,0.00011567,-0.00018401,0.00147936,0.00131265,-0.00045078,0.
 01189145,-0.00589936,0.00259147,-0.05801211,0.03072887,-0.06658659,0.0
 1108342,-0.00629330,0.00244408,-0.00022598,0.00065836,0.00020462,0.000
 36461,0.00062238,0.00053703,-0.02784706,0.01476308,-0.00888504,0.06134
 443,-0.03256528,0.06847078,-0.00042851,0.00009207,-0.00014782,-0.00556
 662,0.00081367,-0.00079406,-0.00105803,0.02893835,0.00942591,-0.046676
 69,0.00119921,0.00060753,0.00010591,-0.02550339,-0.01109343,-0.0045361
 5,-0.00182640,0.00307596,0.00003838,-0.00185837,-0.00031735,-0.0000129
 8,0.00037257,0.00009881,0.00100502,0.00071118,0.00009048,0.00077031,0.
 00060047,-0.00068757,0.05391595,-0.00001089,0.00069510,-0.00012586,0.0
 0343680,0.00028508,0.00051290,0.00032985,-0.01312026,-0.00487380,0.001
 30430,-0.26549606,-0.08669113,-0.00000148,-0.01536024,-0.00634421,-0.0
 0353579,0.00001706,0.00236852,0.00017298,-0.00109009,-0.00041742,0.000
 01656,0.00021657,-0.00006600,0.00044550,0.00039156,0.00047982,-0.00035
 220,0.00074071,-0.00018478,-0.00144025,0.29013716,0.00000922,-0.000044
 36,-0.00003504,-0.00141083,0.00001137,0.00055178,-0.00087576,0.0095938
 3,0.00235360,0.00059358,-0.08909574,-0.08482053,0.00014040,0.01334822,
 0.00427476,0.00195322,0.00061596,-0.00069534,0.00017078,0.00053807,0.0
 0046826,0.00011189,0.00035123,0.00036547,-0.00073109,-0.00011012,0.000
 65300,-0.00057625,-0.00054666,0.00022754,-0.00046804,0.09512244,0.0878
 9321,-0.00021076,0.00002148,-0.00017326,0.00093742,-0.00190606,0.00024
 376,-0.00552578,0.00316604,-0.02939226,-0.04694474,0.00119942,-0.01961
 738,0.00020898,-0.00279509,0.02839566,0.00095510,0.00128975,0.00023706
 ,-0.00003574,0.00035381,-0.00023167,0.00011412,-0.00022432,-0.00065814
 ,-0.00378095,-0.00351702,0.00202440,0.00099291,0.00075548,-0.00033018,
 -0.00036366,-0.00014439,0.00016864,0.05733774,0.00001372,-0.00034987,0
 .00007585,-0.00027808,0.00095270,0.00063192,0.00196332,-0.00152095,0.0
 1467396,0.00132582,-0.05145726,0.01359058,0.00044863,-0.00205135,0.017
 80377,0.00066143,0.00093142,0.00126198,0.00000130,0.00023279,-0.000286
 40,-0.00018786,-0.00015378,-0.00042377,-0.00276405,-0.00119595,0.00148
 713,0.00038122,0.00055201,-0.00065311,-0.00236711,0.00245725,-0.030084
 23,-0.00097496,0.05162357,-0.00007715,0.00018785,0.00002343,0.00055328
 ,-0.00057313,0.00088502,-0.00184183,0.00071201,-0.00697592,-0.01980184
 ,0.01513759,-0.29350304,0.00059915,0.00119526,-0.01369774,-0.00069356,
 -0.00072987,0.00042930,0.00011337,-0.00004623,0.00037200,-0.00000711,0
 .00079760,0.00063368,0.00233390,0.00119764,0.00062008,0.00050649,-0.00
 023301,0.00054987,-0.00080249,-0.00024557,-0.01203872,0.02104141,-0.01
 814472,0.32118989,0.00044803,-0.00021391,0.00049937,0.00099572,-0.0006
 5413,-0.00004467,-0.04851859,-0.00601348,-0.03079319,-0.00853245,-0.00
 020349,-0.03031758,0.00175918,-0.00018337,-0.00121224,-0.00025220,0.00
 007700,-0.00011480,0.00003727,-0.00008107,-0.00001091,-0.00000493,0.00
 011084,0.00013727,-0.00017773,-0.00020788,0.00076248,0.00033167,0.0001
 8660,0.00036611,0.00159697,-0.00044824,0.00056104,-0.00482066,0.002323
 34,-0.00141988,0.05415167,0.00075133,0.00152721,0.00076599,-0.00301500
 ,-0.01303314,-0.03191868,-0.00854882,-0.04285124,-0.03068342,0.0049161
 5,0.00082151,0.01623198,-0.00097498,-0.00007667,-0.00052446,0.00030172
 ,-0.00059948,0.00005838,-0.00015187,0.00010053,0.00002377,0.00004078,-
 0.00000209,-0.00005674,-0.00001761,0.00018662,-0.00022515,-0.00008926,
 -0.00005692,0.00001330,-0.00076263,0.00059237,0.00024207,0.00347554,-0
 .00065221,0.00071670,0.00239045,0.05392225,0.00036111,0.00022377,0.000
 08191,0.00068818,-0.01276804,-0.00681053,-0.03285376,-0.01560867,-0.25
 749070,-0.00235655,0.00052663,-0.01063519,0.00060799,-0.00030525,0.000
 37940,-0.00002444,-0.00009412,0.00022396,-0.00007733,-0.00001013,0.000
 00426,0.00011512,0.00015011,-0.00006651,-0.00061571,-0.00042341,0.0005
 4371,-0.00006985,0.00004148,0.00033491,0.00013617,0.00055697,0.0006288
 7,-0.00185574,0.00088829,0.00091168,0.03864982,0.02892884,0.28898280,0
 .00151120,0.00003382,0.00041803,0.00008207,-0.00122434,-0.00100269,-0.
 19219639,-0.08635978,0.08990146,-0.02083015,-0.01326289,0.01336948,-0.
 00381201,0.00455150,-0.00259262,0.00035619,0.00066514,0.00014152,0.000
 09050,-0.00011194,0.00000341,-0.00001348,-0.00006939,-0.00009202,0.000
 28241,0.00015690,0.00003779,-0.00149633,-0.00112515,0.00051815,0.00067
 648,0.00036246,0.00037689,0.00113385,-0.00056922,-0.00056892,0.0034203
 0,0.00206707,-0.00123395,0.21005917,0.00235372,-0.00497273,-0.00223976
 ,-0.02713787,-0.01631666,0.01410469,-0.08623468,-0.10117016,0.05552507
 ,0.01163590,0.00781835,-0.00808613,0.00261982,-0.00145843,0.00098493,0
 .00047293,-0.00012909,0.00005641,-0.00009463,0.00015321,0.00002453,-0.
 00006542,0.00006973,-0.00004669,-0.00012715,-0.00012128,0.00004539,0.0
 0093117,0.00051521,-0.00013024,-0.00057541,0.00038556,-0.00039591,-0.0
 0074867,0.00056270,-0.00020141,0.00262531,0.00185974,-0.00072955,0.095
 12949,0.11216051,0.00004025,-0.00142306,0.00036169,-0.00816864,-0.0060
 2479,0.00345543,0.09187532,0.05706575,-0.10183944,-0.00772653,-0.00483
 945,0.00341988,-0.00122879,0.00082409,0.00001775,0.00009735,0.00011576
 ,0.00000301,0.00006383,0.00001051,-0.00003559,-0.00000070,0.00001258,-
 0.00002424,-0.00034949,-0.00014317,0.00038154,-0.00034271,-0.00006311,
 0.00042189,0.00060102,-0.00020907,-0.00007181,0.00016842,-0.00055532,0
 .00072335,0.02400900,0.01435327,-0.01706191,-0.09856390,-0.05925954,0.
 10974991,-0.01327321,0.01181794,0.00316176,-0.25684522,0.10868316,0.07
 467332,0.00471702,-0.00375059,-0.00094443,0.00032078,-0.00024715,0.000
 06375,0.00040558,-0.00054047,-0.00015313,-0.00225764,-0.00318127,0.002
 33997,-0.00123282,0.00069265,-0.00037898,0.00003401,0.00001512,-0.0002
 0151,0.00001007,0.00004026,0.00002947,0.00004172,0.00012736,-0.0000567
 9,0.00011613,-0.00008272,0.00002370,-0.00003133,0.00001236,-0.00004469
 ,-0.00042726,0.00023210,-0.00050590,0.00082301,0.00057053,-0.00010832,
 0.26767592,-0.01573198,0.01008973,0.00331935,0.10861458,-0.11289506,-0
 .03960282,0.02394347,-0.00795621,-0.00449778,-0.00149996,-0.00460453,-
 0.00269331,-0.00053803,-0.00031685,0.00008856,-0.00198970,-0.00195974,
 0.00148838,-0.00098692,0.00052164,-0.00027934,0.00005765,-0.00001202,-
 0.00008164,0.00004015,0.00006339,-0.00001707,0.00012801,0.00021365,0.0
 0002649,0.00160471,-0.00081514,0.00047443,-0.00002602,0.00005561,0.000
 21162,0.00027520,-0.00103839,-0.00072567,-0.00015615,0.00139206,0.0006
 8289,-0.11420975,0.11642179,0.00743184,-0.00561267,0.00343955,0.068207
 75,-0.03615454,-0.03340628,0.00839739,-0.00282549,0.00349496,-0.002254
 89,-0.00009091,-0.00052805,0.00007809,-0.00003476,0.00004704,-0.001133
 04,0.00197488,-0.00059439,0.00010148,-0.00030706,0.00028781,0.00009314
 ,-0.00000079,-0.00003226,0.00001836,-0.00001114,-0.00004243,0.00000421
 ,-0.00000604,-0.00007766,0.00028667,0.00010564,0.00027563,0.00005298,-
 0.00007847,-0.00003455,-0.00106413,0.00069202,-0.00060538,-0.00098429,
 -0.00009975,0.00012979,-0.07759096,0.04109780,0.02813576,-0.04950840,0
 .00856019,0.00337822,0.00179186,-0.02602956,-0.01182995,-0.00403545,-0
 .00134522,0.00215390,-0.00050505,-0.00010550,0.00003820,-0.00553831,0.
 00145098,-0.00223775,-0.00019927,0.02570463,0.01377396,0.00058353,-0.0
 0063838,0.00054358,0.00135322,-0.00060480,-0.00014530,-0.00001052,-0.0
 0032007,-0.00000792,-0.00001712,0.00193111,0.00036895,0.00022937,-0.00
 000235,-0.00002076,0.00010606,0.00001464,-0.00001388,0.00005671,0.0002
 4195,-0.00012676,0.00006771,-0.00145350,-0.00007183,0.00101404,0.00069
 476,-0.00048481,0.05442771,0.00845409,-0.24727538,-0.10327516,-0.00006
 173,-0.01806926,-0.00666912,-0.00367809,0.00063120,0.00092830,0.000085
 42,0.00072706,-0.00016163,0.00340618,0.00027128,0.00157053,0.00043438,
 -0.01264840,-0.00633877,0.00030138,0.00047973,-0.00010421,-0.00041014,
 0.00035950,0.00059429,-0.00004078,0.00017614,-0.00005293,-0.00013962,-
 0.00096220,-0.00033378,-0.00001855,0.00001314,-0.00001713,0.00001165,-
 0.00004844,0.00010273,0.00002989,-0.00006470,-0.00019673,0.00002411,-0
 .00089227,-0.00025708,-0.00002429,0.00120056,0.00085563,-0.00829653,0.
 27143747,0.00320024,-0.10577365,-0.09842210,0.00046773,0.01072332,0.00
 349819,0.00130350,0.00076664,0.00030443,-0.00003884,-0.00015633,0.0000
 0809,-0.00137643,0.00054459,0.00001433,-0.00026134,0.00915177,0.003255
 77,0.00049782,-0.00038618,-0.00007303,0.00055628,0.00018075,0.00070718
 ,-0.00007172,0.00037621,0.00037705,-0.00013239,0.00032562,0.00042010,0
 .00002482,-0.00005965,-0.00003440,-0.00001217,-0.00000616,-0.00002561,
 0.00007768,0.00040799,0.00017647,0.00017416,0.00023343,0.00018927,-0.0
 0063488,-0.00031418,0.00013024,-0.00508150,0.11228089,0.10610434,-0.03
 786376,-0.00098528,0.00641302,-0.00665214,-0.00787182,0.02661289,0.000
 94053,0.00107387,-0.00038315,-0.00066726,0.00002240,-0.00010500,0.0010
 3214,-0.00147152,-0.00022140,-0.00454484,0.00729341,-0.03054809,0.0014
 6193,-0.00085341,0.00011831,-0.00465629,0.00359067,-0.00139665,0.00018
 334,0.00023759,0.00061110,0.00001974,-0.00029568,0.00020059,0.00018812
 ,-0.00005013,-0.00002661,-0.00007257,-0.00000451,0.00012374,-0.0000637
 1,-0.00085692,-0.00083841,-0.00015453,0.00009845,-0.00029428,-0.001090
 79,-0.00022000,-0.00115977,0.00018391,-0.00007737,0.00130704,0.0517561
 9,0.00138332,-0.05225753,0.03927514,-0.00566749,-0.00465384,0.01783123
 ,0.00011128,0.00101038,-0.00085771,-0.00019945,-0.00018241,0.00007127,
 -0.00065201,0.00066952,0.00129990,0.00277289,-0.00315909,0.01599056,-0
 .00054884,0.00070825,-0.00059729,0.00243000,-0.00081421,0.00078710,0.0
 0002641,-0.00016486,-0.00049641,-0.00002729,0.00025161,-0.00030986,0.0
 0001987,-0.00004977,-0.00000347,0.00006336,0.00006175,-0.00008507,-0.0
 0001307,-0.00063541,-0.00045452,-0.00011163,0.00014354,-0.00029026,-0.
 00015525,-0.00036049,0.00049567,0.00019767,0.00466457,-0.02829507,0.00
 037024,0.05476800,-0.00729422,0.03261014,-0.25873927,0.01107972,0.0065
 7431,-0.00754198,0.00000599,-0.00044929,0.00010626,0.00007566,0.000079
 22,0.00022194,0.00059732,-0.00032678,0.00036025,-0.00184966,0.00147672
 ,-0.01064233,-0.00038498,-0.00041716,0.00064804,-0.00176292,0.00104334
 ,0.00090931,0.00001130,0.00075681,0.00053415,-0.00007016,0.00003887,0.
 00033832,-0.00003661,0.00007120,0.00000371,-0.00006151,-0.00018130,-0.
 00006272,-0.00008536,0.00097412,0.00040226,0.00009751,0.00021455,0.000
 17948,0.00032760,0.00082229,-0.00061976,-0.00023634,0.00107416,-0.0166
 3031,-0.00041333,-0.04436120,0.29053264\\0.00000028,-0.00000002,0.0000
 0037,-0.00000034,0.00000091,-0.00000307,-0.00000075,-0.00000011,0.0000
 0037,0.00000009,0.00000002,-0.00000006,0.00000004,-0.00000013,-0.00000
 042,0.00000017,0.00000031,-0.00000010,0.00000007,0.00000015,-0.0000003
 4,0.00000049,-0.00000021,-0.00000008,-0.00000040,0.00000017,-0.0000004
 5,0.00000011,-0.00000005,-0.00000067,-0.00000019,-0.00000010,-0.000000
 37,0.00000054,-0.00000025,-0.00000008,-0.00000034,0.00000060,0.0000008
 4,-0.00000004,-0.00000029,0.00000041,0.00000074,-0.00000110,0.00000234
 ,0.00000012,0.00000020,0.00000046,-0.00000059,-0.00000009,0.00000086\\
 \@
 The archive entry for this job was punched.


 YOU KNOW YOU'RE A TEACHER WHEN YOU SAY 2, WRITE 3, AND MEAN 4.
 -- RONALD ANSTROM, HIGH SCHOOL TEACHER, UNDERWOOD, N.D. 1974
 Job cpu time:       0 days  1 hours 40 minutes  8.6 seconds.
 Elapsed time:       0 days  0 hours 12 minutes 31.5 seconds.
 File lengths (MBytes):  RWF=    268 Int=      0 D2E=      0 Chk=     14 Scr=      1
 Normal termination of Gaussian 16 at Fri Mar 25 15:39:31 2022.
