 Entering Gaussian System, Link 0=g16
 Input=Mol_07.com
 Output=Mol_07.log
 Initial command:
 /home/saurabh/gaussian/g16/l1.exe "/home/saurabh/gaussian/gauss_scr/Gau-41939.inp" -scrdir="/home/saurabh/gaussian/gauss_scr/"
 Entering Link 1 = /home/saurabh/gaussian/g16/l1.exe PID=     41940.
  
 Copyright (c) 1988-2019, Gaussian, Inc.  All Rights Reserved.
  
 This is part of the Gaussian(R) 16 program.  It is based on
 the Gaussian(R) 09 system (copyright 2009, Gaussian, Inc.),
 the Gaussian(R) 03 system (copyright 2003, Gaussian, Inc.),
 the Gaussian(R) 98 system (copyright 1998, Gaussian, Inc.),
 the Gaussian(R) 94 system (copyright 1995, Gaussian, Inc.),
 the Gaussian 92(TM) system (copyright 1992, Gaussian, Inc.),
 the Gaussian 90(TM) system (copyright 1990, Gaussian, Inc.),
 the Gaussian 88(TM) system (copyright 1988, Gaussian, Inc.),
 the Gaussian 86(TM) system (copyright 1986, Carnegie Mellon
 University), and the Gaussian 82(TM) system (copyright 1983,
 Carnegie Mellon University). Gaussian is a federally registered
 trademark of Gaussian, Inc.
  
 This software contains proprietary and confidential information,
 including trade secrets, belonging to Gaussian, Inc.
  
 This software is provided under written license and may be
 used, copied, transmitted, or stored only in accord with that
 written license.
  
 The following legend is applicable only to US Government
 contracts under FAR:
  
                    RESTRICTED RIGHTS LEGEND
  
 Use, reproduction and disclosure by the US Government is
 subject to restrictions as set forth in subparagraphs (a)
 and (c) of the Commercial Computer Software - Restricted
 Rights clause in FAR 52.227-19.
  
 Gaussian, Inc.
 340 Quinnipiac St., Bldg. 40, Wallingford CT 06492
  
  
 ---------------------------------------------------------------
 Warning -- This program may not be used in any manner that
 competes with the business of Gaussian, Inc. or will provide
 assistance to any competitor of Gaussian, Inc.  The licensee
 of this program is prohibited from giving any competitor of
 Gaussian, Inc. access to this program.  By using this program,
 the user acknowledges that Gaussian, Inc. is engaged in the
 business of creating and licensing software in the field of
 computational chemistry and represents and warrants to the
 licensee that it is not a competitor of Gaussian, Inc. and that
 it will not use this program in any manner prohibited above.
 ---------------------------------------------------------------
  

 Cite this work as:
 Gaussian 16, Revision C.01,
 M. J. Frisch, G. W. Trucks, H. B. Schlegel, G. E. Scuseria, 
 M. A. Robb, J. R. Cheeseman, G. Scalmani, V. Barone, 
 G. A. Petersson, H. Nakatsuji, X. Li, M. Caricato, A. V. Marenich, 
 J. Bloino, B. G. Janesko, R. Gomperts, B. Mennucci, H. P. Hratchian, 
 J. V. Ortiz, A. F. Izmaylov, J. L. Sonnenberg, D. Williams-Young, 
 F. Ding, F. Lipparini, F. Egidi, J. Goings, B. Peng, A. Petrone, 
 T. Henderson, D. Ranasinghe, V. G. Zakrzewski, J. Gao, N. Rega, 
 G. Zheng, W. Liang, M. Hada, M. Ehara, K. Toyota, R. Fukuda, 
 J. Hasegawa, M. Ishida, T. Nakajima, Y. Honda, O. Kitao, H. Nakai, 
 T. Vreven, K. Throssell, J. A. Montgomery, Jr., J. E. Peralta, 
 F. Ogliaro, M. J. Bearpark, J. J. Heyd, E. N. Brothers, K. N. Kudin, 
 V. N. Staroverov, T. A. Keith, R. Kobayashi, J. Normand, 
 K. Raghavachari, A. P. Rendell, J. C. Burant, S. S. Iyengar, 
 J. Tomasi, M. Cossi, J. M. Millam, M. Klene, C. Adamo, R. Cammi, 
 J. W. Ochterski, R. L. Martin, K. Morokuma, O. Farkas, 
 J. B. Foresman, and D. J. Fox, Gaussian, Inc., Wallingford CT, 2019.
 
 ******************************************
 Gaussian 16:  ES64L-G16RevC.01  3-Jul-2019
                25-Mar-2022 
 ******************************************
 %mem=8gb
 %nproc=8
 Will use up to    8 processors via shared memory.
 %chk=Mol_07.chk
 ----------------------------------------------------------------------
 #p B3LYP/cc-pVTZ scf(verytight, maxcycles=1000) opt(calcfc, maxcyc=100
 0) freq(hpmodes) int(grid=ultrafine)
 ----------------------------------------------------------------------
 1/6=1000,10=4,18=20,19=15,26=4,38=1/1,3;
 2/9=110,12=2,17=6,18=5,40=1/2;
 3/5=16,6=1,11=2,25=1,30=1,71=2,74=-5,75=-5,140=1/1,2,3;
 4//1;
 5/5=2,7=1000,17=3,38=5/2;
 8/6=4,10=90,11=11/1;
 11/6=1,8=1,9=11,15=111,16=1/1,2,10;
 10/6=1,13=1/2;
 6/7=2,8=2,9=2,10=2,28=1/1;
 7/10=1,25=1/1,2,3,16;
 1/6=1000,10=4,18=20,19=15,26=4/3(2);
 2/9=110/2;
 99//99;
 2/9=110/2;
 3/5=16,6=1,11=2,25=1,30=1,71=1,74=-5,75=-5/1,2,3;
 4/5=5,16=3,69=1/1;
 5/5=2,7=1000,17=3,38=5/2;
 7//1,2,3,16;
 1/6=1000,18=20,19=15,26=4/3(-5);
 2/9=110/2;
 6/7=2,8=2,9=2,10=2,19=2,28=1/1;
 99/9=1/99;
 Leave Link    1 at Fri Mar 25 19:57:22 2022, MaxMem=  1073741824 cpu:               0.5 elap:               0.1
 (Enter /home/saurabh/gaussian/g16/l101.exe)
 ------
 Mol_07
 ------
 Symbolic Z-matrix:
 Charge =  0 Multiplicity = 1
 C                     0.        0.        0. 
 C                     1.02529  -1.11405  -0.09618 
 C                     2.48009  -0.70176   0.16777 
 C                     2.81673   0.58358  -0.5936 
 C                     1.96231   1.73017  -0.03667 
 C                     0.47875   1.43492   0.03554 
 H                    -0.18755   2.20978   0.40883 
 O                    -0.04751   0.85053  -1.16371 
 H                     2.1136    2.63736  -0.66855 
 H                     2.30545   1.98718   0.9932 
 H                     2.62231   0.44163  -1.68343 
 H                     3.90034   0.82852  -0.47982 
 H                     3.16896  -1.52524  -0.13965 
 H                     2.63665  -0.5348    1.26051 
 H                     0.93014  -1.59153  -1.10017 
 H                     0.75573  -1.89598   0.6531 
 H                    -1.025    -0.2649    0.25142 
 
 ITRead=  0  0  0  0  0  0  0  0  0  0  0  0  0  0  0  0  0
 MicOpt= -1 -1 -1 -1 -1 -1 -1 -1 -1 -1 -1 -1 -1 -1 -1 -1 -1
 NAtoms=     17 NQM=       17 NQMF=       0 NMMI=      0 NMMIF=      0
                NMic=       0 NMicF=      0.
                    Isotopes and Nuclear Properties:
 (Nuclear quadrupole moments (NQMom) in fm**2, nuclear magnetic moments (NMagM)
  in nuclear magnetons)

  Atom         1           2           3           4           5           6           7           8           9          10
 IAtWgt=          12          12          12          12          12          12           1          16           1           1
 AtmWgt=  12.0000000  12.0000000  12.0000000  12.0000000  12.0000000  12.0000000   1.0078250  15.9949146   1.0078250   1.0078250
 NucSpn=           0           0           0           0           0           0           1           0           1           1
 AtZEff=  -0.0000000  -0.0000000  -0.0000000  -0.0000000  -0.0000000  -0.0000000  -0.0000000  -0.0000000  -0.0000000  -0.0000000
 NQMom=    0.0000000   0.0000000   0.0000000   0.0000000   0.0000000   0.0000000   0.0000000   0.0000000   0.0000000   0.0000000
 NMagM=    0.0000000   0.0000000   0.0000000   0.0000000   0.0000000   0.0000000   2.7928460   0.0000000   2.7928460   2.7928460
 AtZNuc=   6.0000000   6.0000000   6.0000000   6.0000000   6.0000000   6.0000000   1.0000000   8.0000000   1.0000000   1.0000000

  Atom        11          12          13          14          15          16          17
 IAtWgt=           1           1           1           1           1           1           1
 AtmWgt=   1.0078250   1.0078250   1.0078250   1.0078250   1.0078250   1.0078250   1.0078250
 NucSpn=           1           1           1           1           1           1           1
 AtZEff=  -0.0000000  -0.0000000  -0.0000000  -0.0000000  -0.0000000  -0.0000000  -0.0000000
 NQMom=    0.0000000   0.0000000   0.0000000   0.0000000   0.0000000   0.0000000   0.0000000
 NMagM=    2.7928460   2.7928460   2.7928460   2.7928460   2.7928460   2.7928460   2.7928460
 AtZNuc=   1.0000000   1.0000000   1.0000000   1.0000000   1.0000000   1.0000000   1.0000000
 Leave Link  101 at Fri Mar 25 19:57:22 2022, MaxMem=  1073741824 cpu:               1.6 elap:               0.2
 (Enter /home/saurabh/gaussian/g16/l103.exe)

 GradGradGradGradGradGradGradGradGradGradGradGradGradGradGradGradGradGrad
 Berny optimization.
 Initialization pass.
                           ----------------------------
                           !    Initial Parameters    !
                           ! (Angstroms and Degrees)  !
 --------------------------                            --------------------------
 ! Name  Definition              Value          Derivative Info.                !
 --------------------------------------------------------------------------------
 ! R1    R(1,2)                  1.5171         calculate D2E/DX2 analytically  !
 ! R2    R(1,6)                  1.5131         calculate D2E/DX2 analytically  !
 ! R3    R(1,8)                  1.4422         calculate D2E/DX2 analytically  !
 ! R4    R(1,17)                 1.0881         calculate D2E/DX2 analytically  !
 ! R5    R(2,3)                  1.535          calculate D2E/DX2 analytically  !
 ! R6    R(2,15)                 1.1158         calculate D2E/DX2 analytically  !
 ! R7    R(2,16)                 1.116          calculate D2E/DX2 analytically  !
 ! R8    R(3,4)                  1.5314         calculate D2E/DX2 analytically  !
 ! R9    R(3,13)                 1.1168         calculate D2E/DX2 analytically  !
 ! R10   R(3,14)                 1.1165         calculate D2E/DX2 analytically  !
 ! R11   R(4,5)                  1.5346         calculate D2E/DX2 analytically  !
 ! R12   R(4,11)                 1.1161         calculate D2E/DX2 analytically  !
 ! R13   R(4,12)                 1.1168         calculate D2E/DX2 analytically  !
 ! R14   R(5,6)                  1.5144         calculate D2E/DX2 analytically  !
 ! R15   R(5,9)                  1.1159         calculate D2E/DX2 analytically  !
 ! R16   R(5,10)                 1.1155         calculate D2E/DX2 analytically  !
 ! R17   R(6,7)                  1.088          calculate D2E/DX2 analytically  !
 ! R18   R(6,8)                  1.4341         calculate D2E/DX2 analytically  !
 ! A1    A(2,1,6)              118.9502         calculate D2E/DX2 analytically  !
 ! A2    A(2,1,8)              113.8398         calculate D2E/DX2 analytically  !
 ! A3    A(2,1,17)             118.1967         calculate D2E/DX2 analytically  !
 ! A4    A(6,1,17)             121.5664         calculate D2E/DX2 analytically  !
 ! A5    A(8,1,17)             107.3967         calculate D2E/DX2 analytically  !
 ! A6    A(1,2,3)              115.6192         calculate D2E/DX2 analytically  !
 ! A7    A(1,2,15)             108.2793         calculate D2E/DX2 analytically  !
 ! A8    A(1,2,16)             107.981          calculate D2E/DX2 analytically  !
 ! A9    A(3,2,15)             110.5172         calculate D2E/DX2 analytically  !
 ! A10   A(3,2,16)             107.5573         calculate D2E/DX2 analytically  !
 ! A11   A(15,2,16)            106.4808         calculate D2E/DX2 analytically  !
 ! A12   A(2,3,4)              110.3833         calculate D2E/DX2 analytically  !
 ! A13   A(2,3,13)             109.8303         calculate D2E/DX2 analytically  !
 ! A14   A(2,3,14)             109.961          calculate D2E/DX2 analytically  !
 ! A15   A(4,3,13)             110.2704         calculate D2E/DX2 analytically  !
 ! A16   A(4,3,14)             109.2853         calculate D2E/DX2 analytically  !
 ! A17   A(13,3,14)            107.0497         calculate D2E/DX2 analytically  !
 ! A18   A(3,4,5)              108.9231         calculate D2E/DX2 analytically  !
 ! A19   A(3,4,11)             109.9031         calculate D2E/DX2 analytically  !
 ! A20   A(3,4,12)             110.2876         calculate D2E/DX2 analytically  !
 ! A21   A(5,4,11)             110.6361         calculate D2E/DX2 analytically  !
 ! A22   A(5,4,12)             109.8406         calculate D2E/DX2 analytically  !
 ! A23   A(11,4,12)            107.2419         calculate D2E/DX2 analytically  !
 ! A24   A(4,5,6)              114.6509         calculate D2E/DX2 analytically  !
 ! A25   A(4,5,9)              109.0536         calculate D2E/DX2 analytically  !
 ! A26   A(4,5,10)             109.6295         calculate D2E/DX2 analytically  !
 ! A27   A(6,5,9)              108.5615         calculate D2E/DX2 analytically  !
 ! A28   A(6,5,10)             107.5922         calculate D2E/DX2 analytically  !
 ! A29   A(9,5,10)             107.0832         calculate D2E/DX2 analytically  !
 ! A30   A(1,6,5)              119.5862         calculate D2E/DX2 analytically  !
 ! A31   A(1,6,7)              119.3205         calculate D2E/DX2 analytically  !
 ! A32   A(5,6,7)              118.5194         calculate D2E/DX2 analytically  !
 ! A33   A(5,6,8)              113.5197         calculate D2E/DX2 analytically  !
 ! A34   A(7,6,8)              110.6349         calculate D2E/DX2 analytically  !
 ! D1    D(6,1,2,3)             13.273          calculate D2E/DX2 analytically  !
 ! D2    D(6,1,2,15)          -111.3209         calculate D2E/DX2 analytically  !
 ! D3    D(6,1,2,16)           133.7613         calculate D2E/DX2 analytically  !
 ! D4    D(8,1,2,3)             78.5877         calculate D2E/DX2 analytically  !
 ! D5    D(8,1,2,15)           -46.0062         calculate D2E/DX2 analytically  !
 ! D6    D(8,1,2,16)          -160.924          calculate D2E/DX2 analytically  !
 ! D7    D(17,1,2,3)          -153.9825         calculate D2E/DX2 analytically  !
 ! D8    D(17,1,2,15)           81.4236         calculate D2E/DX2 analytically  !
 ! D9    D(17,1,2,16)          -33.4942         calculate D2E/DX2 analytically  !
 ! D10   D(2,1,6,5)              0.4997         calculate D2E/DX2 analytically  !
 ! D11   D(2,1,6,7)           -161.049          calculate D2E/DX2 analytically  !
 ! D12   D(17,1,6,5)           167.3093         calculate D2E/DX2 analytically  !
 ! D13   D(17,1,6,7)             5.7605         calculate D2E/DX2 analytically  !
 ! D14   D(1,2,3,4)            -46.026          calculate D2E/DX2 analytically  !
 ! D15   D(1,2,3,13)          -167.8212         calculate D2E/DX2 analytically  !
 ! D16   D(1,2,3,14)            74.6249         calculate D2E/DX2 analytically  !
 ! D17   D(15,2,3,4)            77.4            calculate D2E/DX2 analytically  !
 ! D18   D(15,2,3,13)          -44.3952         calculate D2E/DX2 analytically  !
 ! D19   D(15,2,3,14)         -161.9491         calculate D2E/DX2 analytically  !
 ! D20   D(16,2,3,4)          -166.7438         calculate D2E/DX2 analytically  !
 ! D21   D(16,2,3,13)           71.4609         calculate D2E/DX2 analytically  !
 ! D22   D(16,2,3,14)          -46.0929         calculate D2E/DX2 analytically  !
 ! D23   D(2,3,4,5)             64.7991         calculate D2E/DX2 analytically  !
 ! D24   D(2,3,4,11)           -56.5571         calculate D2E/DX2 analytically  !
 ! D25   D(2,3,4,12)          -174.5865         calculate D2E/DX2 analytically  !
 ! D26   D(13,3,4,5)          -173.6661         calculate D2E/DX2 analytically  !
 ! D27   D(13,3,4,11)           64.9777         calculate D2E/DX2 analytically  !
 ! D28   D(13,3,4,12)          -53.0517         calculate D2E/DX2 analytically  !
 ! D29   D(14,3,4,5)           -56.2552         calculate D2E/DX2 analytically  !
 ! D30   D(14,3,4,11)         -177.6113         calculate D2E/DX2 analytically  !
 ! D31   D(14,3,4,12)           64.3592         calculate D2E/DX2 analytically  !
 ! D32   D(3,4,5,6)            -51.265          calculate D2E/DX2 analytically  !
 ! D33   D(3,4,5,9)           -173.2055         calculate D2E/DX2 analytically  !
 ! D34   D(3,4,5,10)            69.8489         calculate D2E/DX2 analytically  !
 ! D35   D(11,4,5,6)            69.643          calculate D2E/DX2 analytically  !
 ! D36   D(11,4,5,9)           -52.2975         calculate D2E/DX2 analytically  !
 ! D37   D(11,4,5,10)         -169.2431         calculate D2E/DX2 analytically  !
 ! D38   D(12,4,5,6)          -172.1539         calculate D2E/DX2 analytically  !
 ! D39   D(12,4,5,9)            65.9057         calculate D2E/DX2 analytically  !
 ! D40   D(12,4,5,10)          -51.0399         calculate D2E/DX2 analytically  !
 ! D41   D(4,5,6,1)             19.0982         calculate D2E/DX2 analytically  !
 ! D42   D(4,5,6,7)           -179.206          calculate D2E/DX2 analytically  !
 ! D43   D(4,5,6,8)            -46.8358         calculate D2E/DX2 analytically  !
 ! D44   D(9,5,6,1)            141.3061         calculate D2E/DX2 analytically  !
 ! D45   D(9,5,6,7)            -56.9981         calculate D2E/DX2 analytically  !
 ! D46   D(9,5,6,8)             75.3721         calculate D2E/DX2 analytically  !
 ! D47   D(10,5,6,1)          -103.128          calculate D2E/DX2 analytically  !
 ! D48   D(10,5,6,7)            58.5678         calculate D2E/DX2 analytically  !
 ! D49   D(10,5,6,8)          -169.062          calculate D2E/DX2 analytically  !
 --------------------------------------------------------------------------------
 Trust Radius=3.00D-01 FncErr=1.00D-07 GrdErr=1.00D-06 EigMax=2.50D+02 EigMin=1.00D-04
 Number of steps in this run=    102 maximum allowed number of steps=    102.
 GradGradGradGradGradGradGradGradGradGradGradGradGradGradGradGradGradGrad

 Leave Link  103 at Fri Mar 25 19:57:22 2022, MaxMem=  1073741824 cpu:               0.1 elap:               0.0
 (Enter /home/saurabh/gaussian/g16/l202.exe)
                          Input orientation:                          
 ---------------------------------------------------------------------
 Center     Atomic      Atomic             Coordinates (Angstroms)
 Number     Number       Type             X           Y           Z
 ---------------------------------------------------------------------
      1          6           0        0.000000    0.000000    0.000000
      2          6           0        1.025289   -1.114053   -0.096182
      3          6           0        2.480089   -0.701764    0.167769
      4          6           0        2.816727    0.583582   -0.593601
      5          6           0        1.962312    1.730165   -0.036671
      6          6           0        0.478745    1.434918    0.035535
      7          1           0       -0.187549    2.209781    0.408834
      8          8           0       -0.047507    0.850526   -1.163706
      9          1           0        2.113599    2.637359   -0.668546
     10          1           0        2.305450    1.987184    0.993197
     11          1           0        2.622313    0.441626   -1.683428
     12          1           0        3.900341    0.828517   -0.479816
     13          1           0        3.168958   -1.525241   -0.139647
     14          1           0        2.636648   -0.534802    1.260511
     15          1           0        0.930137   -1.591530   -1.100170
     16          1           0        0.755732   -1.895979    0.653104
     17          1           0       -1.025004   -0.264897    0.251421
 ---------------------------------------------------------------------
                    Distance matrix (angstroms):
                    1          2          3          4          5
     1  C    0.000000
     2  C    1.517097   0.000000
     3  C    2.582917   1.534958   0.000000
     4  C    2.937155   2.517666   1.531380   0.000000
     5  C    2.616388   2.995184   2.494828   1.534552   0.000000
     6  C    1.513093   2.610232   2.930576   2.566465   1.514383
     7  H    2.255095   3.574058   3.956198   3.560207   2.247311
     8  O    1.442173   2.479933   3.251334   2.932595   2.466444
     9  H    3.445275   3.947798   3.461716   2.172097   1.115865
    10  H    3.201631   3.527496   2.818204   2.179319   1.115540
    11  H    3.147299   2.736781   2.180481   1.116096   2.192657
    12  H    4.016133   3.490942   2.185919   1.116763   2.182957
    13  H    3.519681   2.183182   1.116763   2.185698   3.473365
    14  H    2.970995   2.184634   1.116455   2.172773   2.695827
    15  H    2.146741   1.115809   2.191279   2.923516   3.637317
    16  H    2.142991   1.116019   2.152930   3.456906   3.883368
    17  H    1.088125   2.246240   3.533204   4.024037   3.603793
                    6          7          8          9         10
     6  C    0.000000
     7  H    1.087986   0.000000
     8  O    1.434097   2.083283   0.000000
     9  H    2.148102   2.576597   2.847514   0.000000
    10  H    2.135173   2.570228   3.388308   1.794693   0.000000
    11  H    2.921703   3.924189   2.750500   2.471845   3.107004
    12  H    3.512923   4.405500   4.006706   2.549505   2.460885
    13  H    4.003808   5.051471   4.127785   4.326749   3.790265
    14  H    3.168108   4.029166   3.873067   3.749326   2.557648
    15  H    3.263888   4.239844   2.631247   4.412526   4.368165
    16  H    3.398969   4.219800   3.389584   4.913422   4.194788
    17  H    2.279745   2.617277   2.049940   4.372672   4.088279
                   11         12         13         14         15
    11  H    0.000000
    12  H    1.797699   0.000000
    13  H    2.559423   2.488134   0.000000
    14  H    3.101676   2.546428   1.795763   0.000000
    15  H    2.708759   3.881183   2.437072   3.098656   0.000000
    16  H    3.795774   4.312186   2.567014   2.399915   1.788037
    17  H    4.188763   5.097969   4.396671   3.807730   2.722008
                   16         17
    16  H    0.000000
    17  H    2.448019   0.000000
 Stoichiometry    C6H10O
 Framework group  C1[X(C6H10O)]
 Deg. of freedom    45
 Full point group                 C1      NOp   1
 Largest Abelian subgroup         C1      NOp   1
 Largest concise Abelian subgroup C1      NOp   1
                         Standard orientation:                         
 ---------------------------------------------------------------------
 Center     Atomic      Atomic             Coordinates (Angstroms)
 Number     Number       Type             X           Y           Z
 ---------------------------------------------------------------------
      1          6           0       -1.032623    0.836531   -0.301537
      2          6           0        0.303518    1.495926   -0.016041
      3          6           0        1.537865    0.603062   -0.203854
      4          6           0        1.313117   -0.762502    0.451774
      5          6           0        0.174303   -1.484756   -0.280551
      6          6           0       -1.091627   -0.669059   -0.439977
      7          1           0       -1.944142   -1.125214   -0.938829
      8          8           0       -1.504160   -0.011151    0.765680
      9          1           0       -0.074781   -2.423343    0.269147
     10          1           0        0.514121   -1.782664   -1.300455
     11          1           0        1.064239   -0.629203    1.531571
     12          1           0        2.245512   -1.374984    0.400144
     13          1           0        2.435713    1.100446    0.236187
     14          1           0        1.743047    0.460376   -1.291978
     15          1           0        0.274880    1.910860    1.019353
     16          1           0        0.411179    2.368201   -0.703824
     17          1           0       -1.863802    1.469525   -0.605637
 ---------------------------------------------------------------------
 Rotational constants (GHZ):           3.9026650           3.1157687           2.0984520
 Leave Link  202 at Fri Mar 25 19:57:22 2022, MaxMem=  1073741824 cpu:               0.1 elap:               0.0
 (Enter /home/saurabh/gaussian/g16/l301.exe)
 Standard basis: CC-pVTZ (5D, 7F)
 Ernie: Thresh=  0.10000D-02 Tol=  0.10000D-05 Strict=F.
 Ernie:  21 primitive shells out of 262 were deleted.
 There are   395 symmetry adapted cartesian basis functions of A   symmetry.
 There are   350 symmetry adapted basis functions of A   symmetry.
   350 basis functions,   534 primitive gaussians,   395 cartesian basis functions
    27 alpha electrons       27 beta electrons
       nuclear repulsion energy       319.2011031489 Hartrees.
 IExCor=  402 DFT=T Ex+Corr=B3LYP ExCW=0 ScaHFX=  0.200000
 ScaDFX=  0.800000  0.720000  1.000000  0.810000 ScalE2=  1.000000  1.000000
 IRadAn=      5 IRanWt=     -1 IRanGd=            0 ICorTp=0 IEmpDi=  4
 NAtoms=   17 NActive=   17 NUniq=   17 SFac= 1.00D+00 NAtFMM=   60 NAOKFM=F Big=F
 Integral buffers will be    131072 words long.
 Raffenetti 2 integral format.
 Two-electron integral symmetry is turned on.
 Leave Link  301 at Fri Mar 25 19:57:22 2022, MaxMem=  1073741824 cpu:               0.4 elap:               0.1
 (Enter /home/saurabh/gaussian/g16/l302.exe)
 NPDir=0 NMtPBC=     1 NCelOv=     1 NCel=       1 NClECP=     1 NCelD=      1
         NCelK=      1 NCelE2=     1 NClLst=     1 CellRange=     0.0.
 One-electron integrals computed using PRISM.
 One-electron integral symmetry used in STVInt
 NBasis=   350 RedAO= T EigKep=  1.51D-04  NBF=   350
 NBsUse=   350 1.00D-06 EigRej= -1.00D+00 NBFU=   350
 Precomputing XC quadrature grid using
 IXCGrd= 4 IRadAn=           5 IRanWt=          -1 IRanGd=           0 AccXCQ= 0.00D+00.
 Generated NRdTot=       0 NPtTot=           0 NUsed=           0 NTot=          32
 NSgBfM=   395   395   395   395   395 MxSgAt=    17 MxSgA2=    17.
 Leave Link  302 at Fri Mar 25 19:57:23 2022, MaxMem=  1073741824 cpu:               2.5 elap:               0.3
 (Enter /home/saurabh/gaussian/g16/l303.exe)
 DipDrv:  MaxL=1.
 Leave Link  303 at Fri Mar 25 19:57:23 2022, MaxMem=  1073741824 cpu:               0.3 elap:               0.1
 (Enter /home/saurabh/gaussian/g16/l401.exe)
 ExpMin= 1.03D-01 ExpMax= 1.53D+04 ExpMxC= 5.22D+02 IAcc=3 IRadAn=         5 AccDes= 0.00D+00
 Harris functional with IExCor=  402 and IRadAn=       5 diagonalized for initial guess.
 HarFok:  IExCor=  402 AccDes= 0.00D+00 IRadAn=         5 IDoV= 1 UseB2=F ITyADJ=14
 ICtDFT=  3500011 ScaDFX=  1.000000  1.000000  1.000000  1.000000
 FoFCou: FMM=F IPFlag=           0 FMFlag=      100000 FMFlg1=           0
         NFxFlg=           0 DoJE=T BraDBF=F KetDBF=T FulRan=T
         wScrn=  0.000000 ICntrl=       500 IOpCl=  0 I1Cent=   200000004 NGrid=           0
         NMat0=    1 NMatS0=      1 NMatT0=    0 NMatD0=    1 NMtDS0=    0 NMtDT0=    0
 Petite list used in FoFCou.
 Harris En= -309.979475237940    
 JPrj=0 DoOrth=F DoCkMO=F.
 Leave Link  401 at Fri Mar 25 19:57:24 2022, MaxMem=  1073741824 cpu:              10.6 elap:               1.3
 (Enter /home/saurabh/gaussian/g16/l502.exe)
 Integral symmetry usage will be decided dynamically.
 Closed shell SCF:
 Using DIIS extrapolation, IDIIS=  1040.
 NGot=  1073741824 LenX=  1073422680 LenY=  1073266214
 Requested convergence on RMS density matrix=1.00D-08 within1000 cycles.
 Requested convergence on MAX density matrix=1.00D-06.
 Requested convergence on             energy=1.00D-06.
 No special actions if energy rises.
 Fock matrices will be formed incrementally for  20 cycles.
 Integral accuracy reduced to 1.0D-05 until final iterations.

 Cycle   1  Pass 0  IDiag  1:
 FoFJK:  IHMeth= 1 ICntrl=       0 DoSepK=F KAlg= 0 I1Cent=           0 FoldK=F
 IRaf= 990000000 NMat=       1 IRICut=       1 DoRegI=T DoRafI=F ISym2E= 0 IDoP0=0 IntGTp=1.
 FoFCou: FMM=F IPFlag=           0 FMFlag=      100000 FMFlg1=           0
         NFxFlg=           0 DoJE=F BraDBF=F KetDBF=F FulRan=T
         wScrn=  0.000000 ICntrl=         0 IOpCl=  0 I1Cent=           0 NGrid=           0
         NMat0=    1 NMatS0=      1 NMatT0=    0 NMatD0=    1 NMtDS0=    0 NMtDT0=    0
 Symmetry not used in FoFCou.
 E= -309.749687357195    
 DIIS: error= 1.93D-02 at cycle   1 NSaved=   1.
 NSaved= 1 IEnMin= 1 EnMin= -309.749687357195     IErMin= 1 ErrMin= 1.93D-02
 ErrMax= 1.93D-02  0.00D+00 EMaxC= 1.00D-01 BMatC= 2.17D-01 BMatP= 2.17D-01
 IDIUse=3 WtCom= 8.07D-01 WtEn= 1.93D-01
 Coeff-Com:  0.100D+01
 Coeff-En:   0.100D+01
 Coeff:      0.100D+01
 Gap=     0.286 Goal=   None    Shift=    0.000
 GapD=    0.286 DampG=1.000 DampE=0.500 DampFc=0.5000 IDamp=-1.
 Damping current iteration by 5.00D-01
 RMSDP=2.60D-03 MaxDP=9.47D-02              OVMax= 1.77D-01

 Cycle   2  Pass 0  IDiag  1:
 RMSU=  1.30D-03    CP:  9.91D-01
 E= -309.825498369252     Delta-E=       -0.075811012057 Rises=F Damp=T
 DIIS: error= 5.77D-03 at cycle   2 NSaved=   2.
 NSaved= 2 IEnMin= 2 EnMin= -309.825498369252     IErMin= 2 ErrMin= 5.77D-03
 ErrMax= 5.77D-03  0.00D+00 EMaxC= 1.00D-01 BMatC= 1.99D-02 BMatP= 2.17D-01
 IDIUse=3 WtCom= 9.42D-01 WtEn= 5.77D-02
 Coeff-Com:  0.126D+00 0.874D+00
 Coeff-En:   0.239D+00 0.761D+00
 Coeff:      0.132D+00 0.868D+00
 Gap=     0.313 Goal=   None    Shift=    0.000
 RMSDP=6.70D-04 MaxDP=2.31D-02 DE=-7.58D-02 OVMax= 1.06D-01

 Cycle   3  Pass 0  IDiag  1:
 RMSU=  4.92D-04    CP:  9.95D-01  6.51D-01
 E= -309.949086904934     Delta-E=       -0.123588535682 Rises=F Damp=F
 DIIS: error= 3.77D-03 at cycle   3 NSaved=   3.
 NSaved= 3 IEnMin= 3 EnMin= -309.949086904934     IErMin= 3 ErrMin= 3.77D-03
 ErrMax= 3.77D-03  0.00D+00 EMaxC= 1.00D-01 BMatC= 7.71D-03 BMatP= 1.99D-02
 IDIUse=3 WtCom= 9.62D-01 WtEn= 3.77D-02
 Coeff-Com: -0.153D-01 0.362D+00 0.653D+00
 Coeff-En:   0.000D+00 0.000D+00 0.100D+01
 Coeff:     -0.147D-01 0.349D+00 0.666D+00
 Gap=     0.287 Goal=   None    Shift=    0.000
 RMSDP=2.36D-04 MaxDP=8.60D-03 DE=-1.24D-01 OVMax= 2.20D-02

 Cycle   4  Pass 0  IDiag  1:
 RMSU=  1.56D-04    CP:  9.94D-01  7.43D-01  7.34D-01
 E= -309.953709978408     Delta-E=       -0.004623073473 Rises=F Damp=F
 DIIS: error= 1.70D-03 at cycle   4 NSaved=   4.
 NSaved= 4 IEnMin= 4 EnMin= -309.953709978408     IErMin= 4 ErrMin= 1.70D-03
 ErrMax= 1.70D-03  0.00D+00 EMaxC= 1.00D-01 BMatC= 2.18D-03 BMatP= 7.71D-03
 IDIUse=3 WtCom= 9.83D-01 WtEn= 1.70D-02
 Coeff-Com: -0.172D-01 0.140D+00 0.393D+00 0.485D+00
 Coeff-En:   0.000D+00 0.000D+00 0.167D+00 0.833D+00
 Coeff:     -0.169D-01 0.137D+00 0.389D+00 0.491D+00
 Gap=     0.296 Goal=   None    Shift=    0.000
 RMSDP=1.08D-04 MaxDP=4.36D-03 DE=-4.62D-03 OVMax= 1.05D-02

 Cycle   5  Pass 0  IDiag  1:
 RMSU=  6.97D-05    CP:  9.94D-01  7.24D-01  7.61D-01  5.06D-01
 E= -309.955164389081     Delta-E=       -0.001454410674 Rises=F Damp=F
 DIIS: error= 7.27D-04 at cycle   5 NSaved=   5.
 NSaved= 5 IEnMin= 5 EnMin= -309.955164389081     IErMin= 5 ErrMin= 7.27D-04
 ErrMax= 7.27D-04  0.00D+00 EMaxC= 1.00D-01 BMatC= 2.50D-04 BMatP= 2.18D-03
 IDIUse=3 WtCom= 9.93D-01 WtEn= 7.27D-03
 Coeff-Com: -0.808D-02 0.172D-01 0.109D+00 0.287D+00 0.595D+00
 Coeff-En:   0.000D+00 0.000D+00 0.000D+00 0.898D-01 0.910D+00
 Coeff:     -0.802D-02 0.171D-01 0.108D+00 0.285D+00 0.598D+00
 Gap=     0.294 Goal=   None    Shift=    0.000
 RMSDP=3.35D-05 MaxDP=1.36D-03 DE=-1.45D-03 OVMax= 2.52D-03

 Cycle   6  Pass 0  IDiag  1:
 RMSU=  9.01D-06    CP:  9.94D-01  7.28D-01  7.84D-01  5.96D-01  6.26D-01
 E= -309.955346789793     Delta-E=       -0.000182400712 Rises=F Damp=F
 DIIS: error= 5.10D-05 at cycle   6 NSaved=   6.
 NSaved= 6 IEnMin= 6 EnMin= -309.955346789793     IErMin= 6 ErrMin= 5.10D-05
 ErrMax= 5.10D-05  0.00D+00 EMaxC= 1.00D-01 BMatC= 1.82D-06 BMatP= 2.50D-04
 IDIUse=1 WtCom= 1.00D+00 WtEn= 0.00D+00
 Coeff-Com: -0.219D-02 0.285D-02 0.291D-01 0.897D-01 0.209D+00 0.671D+00
 Coeff:     -0.219D-02 0.285D-02 0.291D-01 0.897D-01 0.209D+00 0.671D+00
 Gap=     0.294 Goal=   None    Shift=    0.000
 RMSDP=3.16D-06 MaxDP=1.08D-04 DE=-1.82D-04 OVMax= 2.92D-04

 Initial convergence to 1.0D-05 achieved.  Increase integral accuracy.
 Cycle   7  Pass 1  IDiag  1:
 E= -309.955330038384     Delta-E=        0.000016751409 Rises=F Damp=F
 DIIS: error= 4.73D-05 at cycle   1 NSaved=   1.
 NSaved= 1 IEnMin= 1 EnMin= -309.955330038384     IErMin= 1 ErrMin= 4.73D-05
 ErrMax= 4.73D-05  0.00D+00 EMaxC= 1.00D-01 BMatC= 5.60D-07 BMatP= 5.60D-07
 IDIUse=1 WtCom= 1.00D+00 WtEn= 0.00D+00
 Coeff-Com:  0.100D+01
 Coeff:      0.100D+01
 Gap=     0.294 Goal=   None    Shift=    0.000
 RMSDP=3.16D-06 MaxDP=1.08D-04 DE= 1.68D-05 OVMax= 1.77D-04

 Cycle   8  Pass 1  IDiag  1:
 RMSU=  7.02D-06    CP:  1.00D+00
 E= -309.955329959168     Delta-E=        0.000000079216 Rises=F Damp=F
 DIIS: error= 2.87D-05 at cycle   2 NSaved=   2.
 NSaved= 2 IEnMin= 1 EnMin= -309.955330038384     IErMin= 2 ErrMin= 2.87D-05
 ErrMax= 2.87D-05  0.00D+00 EMaxC= 1.00D-01 BMatC= 4.66D-07 BMatP= 5.60D-07
 IDIUse=1 WtCom= 1.00D+00 WtEn= 0.00D+00
 Coeff-Com:  0.473D+00 0.527D+00
 Coeff:      0.473D+00 0.527D+00
 Gap=     0.294 Goal=   None    Shift=    0.000
 RMSDP=1.30D-06 MaxDP=5.28D-05 DE= 7.92D-08 OVMax= 1.28D-04

 Cycle   9  Pass 1  IDiag  1:
 RMSU=  1.26D-06    CP:  1.00D+00  9.55D-01
 E= -309.955330358599     Delta-E=       -0.000000399431 Rises=F Damp=F
 DIIS: error= 6.03D-06 at cycle   3 NSaved=   3.
 NSaved= 3 IEnMin= 3 EnMin= -309.955330358599     IErMin= 3 ErrMin= 6.03D-06
 ErrMax= 6.03D-06  0.00D+00 EMaxC= 1.00D-01 BMatC= 2.08D-08 BMatP= 4.66D-07
 IDIUse=1 WtCom= 1.00D+00 WtEn= 0.00D+00
 Coeff-Com:  0.938D-02 0.176D+00 0.815D+00
 Coeff:      0.938D-02 0.176D+00 0.815D+00
 Gap=     0.294 Goal=   None    Shift=    0.000
 RMSDP=2.90D-07 MaxDP=8.55D-06 DE=-3.99D-07 OVMax= 2.58D-05

 Cycle  10  Pass 1  IDiag  1:
 RMSU=  1.98D-07    CP:  1.00D+00  9.72D-01  8.63D-01
 E= -309.955330375576     Delta-E=       -0.000000016977 Rises=F Damp=F
 DIIS: error= 1.71D-06 at cycle   4 NSaved=   4.
 NSaved= 4 IEnMin= 4 EnMin= -309.955330375576     IErMin= 4 ErrMin= 1.71D-06
 ErrMax= 1.71D-06  0.00D+00 EMaxC= 1.00D-01 BMatC= 1.89D-09 BMatP= 2.08D-08
 IDIUse=1 WtCom= 1.00D+00 WtEn= 0.00D+00
 Coeff-Com: -0.736D-03 0.960D-01 0.478D+00 0.427D+00
 Coeff:     -0.736D-03 0.960D-01 0.478D+00 0.427D+00
 Gap=     0.294 Goal=   None    Shift=    0.000
 RMSDP=1.06D-07 MaxDP=4.68D-06 DE=-1.70D-08 OVMax= 9.29D-06

 Cycle  11  Pass 1  IDiag  1:
 RMSU=  5.07D-08    CP:  1.00D+00  9.73D-01  8.50D-01  5.37D-01
 E= -309.955330376959     Delta-E=       -0.000000001383 Rises=F Damp=F
 DIIS: error= 3.47D-07 at cycle   5 NSaved=   5.
 NSaved= 5 IEnMin= 5 EnMin= -309.955330376959     IErMin= 5 ErrMin= 3.47D-07
 ErrMax= 3.47D-07  0.00D+00 EMaxC= 1.00D-01 BMatC= 1.19D-10 BMatP= 1.89D-09
 IDIUse=1 WtCom= 1.00D+00 WtEn= 0.00D+00
 Coeff-Com: -0.129D-02 0.411D-01 0.209D+00 0.252D+00 0.499D+00
 Coeff:     -0.129D-02 0.411D-01 0.209D+00 0.252D+00 0.499D+00
 Gap=     0.294 Goal=   None    Shift=    0.000
 RMSDP=2.02D-08 MaxDP=8.52D-07 DE=-1.38D-09 OVMax= 1.98D-06

 Cycle  12  Pass 1  IDiag  1:
 RMSU=  1.36D-08    CP:  1.00D+00  9.73D-01  8.54D-01  5.58D-01  7.33D-01
 E= -309.955330377044     Delta-E=       -0.000000000085 Rises=F Damp=F
 DIIS: error= 7.16D-08 at cycle   6 NSaved=   6.
 NSaved= 6 IEnMin= 6 EnMin= -309.955330377044     IErMin= 6 ErrMin= 7.16D-08
 ErrMax= 7.16D-08  0.00D+00 EMaxC= 1.00D-01 BMatC= 3.27D-12 BMatP= 1.19D-10
 IDIUse=1 WtCom= 1.00D+00 WtEn= 0.00D+00
 Coeff-Com: -0.560D-03 0.150D-01 0.764D-01 0.991D-01 0.234D+00 0.576D+00
 Coeff:     -0.560D-03 0.150D-01 0.764D-01 0.991D-01 0.234D+00 0.576D+00
 Gap=     0.294 Goal=   None    Shift=    0.000
 RMSDP=4.59D-09 MaxDP=1.26D-07 DE=-8.53D-11 OVMax= 3.71D-07

 SCF Done:  E(RB3LYP) =  -309.955330377     A.U. after   12 cycles
            NFock= 12  Conv=0.46D-08     -V/T= 2.0080
 KE= 3.075038247154D+02 PE=-1.359007686979D+03 EE= 4.223474287379D+02
 Leave Link  502 at Fri Mar 25 19:58:20 2022, MaxMem=  1073741824 cpu:             450.8 elap:              56.4
 (Enter /home/saurabh/gaussian/g16/l801.exe)
 DoSCS=F DFT=T ScalE2(SS,OS)=  1.000000  1.000000
 Range of M.O.s used for correlation:     1   350
 NBasis=   350 NAE=    27 NBE=    27 NFC=     0 NFV=     0
 NROrb=    350 NOA=    27 NOB=    27 NVA=   323 NVB=   323

 **** Warning!!: The largest alpha MO coefficient is  0.15408686D+02

 Leave Link  801 at Fri Mar 25 19:58:20 2022, MaxMem=  1073741824 cpu:               0.2 elap:               0.0
 (Enter /home/saurabh/gaussian/g16/l1101.exe)
 Using compressed storage, NAtomX=    17.
 Will process     18 centers per pass.
 Leave Link 1101 at Fri Mar 25 19:58:21 2022, MaxMem=  1073741824 cpu:               2.6 elap:               0.3
 (Enter /home/saurabh/gaussian/g16/l1102.exe)
 Symmetrizing basis deriv contribution to polar:
 IMax=3 JMax=2 DiffMx= 0.00D+00
 Leave Link 1102 at Fri Mar 25 19:58:21 2022, MaxMem=  1073741824 cpu:               0.3 elap:               0.1
 (Enter /home/saurabh/gaussian/g16/l1110.exe)
 Forming Gx(P) for the SCF density, NAtomX=    17.
 Integral derivatives from FoFJK, PRISM(SPDF).
 Do as many integral derivatives as possible in FoFJK.
 G2DrvN: MDV=    1073739937.
 G2DrvN: will do    18 centers at a time, making    1 passes.
 Calling FoFCou, ICntrl=  3107 FMM=F I1Cent=   0 AccDes= 0.00D+00.
 FoFJK:  IHMeth= 1 ICntrl=    3107 DoSepK=F KAlg= 0 I1Cent=           0 FoldK=F
 IRaf=         0 NMat=       1 IRICut=       1 DoRegI=T DoRafI=F ISym2E= 0 IDoP0=0 IntGTp=1.
 FoFCou: FMM=F IPFlag=           0 FMFlag=      100000 FMFlg1=           0
         NFxFlg=           0 DoJE=F BraDBF=F KetDBF=F FulRan=T
         wScrn=  0.000000 ICntrl=      3107 IOpCl=  0 I1Cent=           0 NGrid=           0
         NMat0=    1 NMatS0=      1 NMatT0=    0 NMatD0=    1 NMtDS0=    0 NMtDT0=    0
 Symmetry not used in FoFCou.
 End of G2Drv F.D. properties file   721 does not exist.
 End of G2Drv F.D. properties file   722 does not exist.
 End of G2Drv F.D. properties file   788 does not exist.
 Leave Link 1110 at Fri Mar 25 19:59:58 2022, MaxMem=  1073741824 cpu:             780.2 elap:              97.5
 (Enter /home/saurabh/gaussian/g16/l1002.exe)
 Minotr:  Closed shell wavefunction.
          IDoAtm=11111111111111111
          Direct CPHF calculation.
          Differentiating once with respect to nuclear coordinates.
          Requested convergence is 1.0D-08 RMS, and 1.0D-07 maximum.
          Secondary convergence is 1.0D-12 RMS, and 1.0D-12 maximum.
          NewPWx=T KeepS1=F KeepF1=F KeepIn=T MapXYZ=F SortEE=F KeepMc=T.
         5032 words used for storage of precomputed grid.
 Two-electron integrals replicated using symmetry.
          MDV=    1073741824 using IRadAn=       1.
          Solving linear equations simultaneously, MaxMat=     384.
 FoF2E skips out because all densities are zero.
 CalDSu exits because no D1Ps are significant.
 FoFJK:  IHMeth= 1 ICntrl=       0 DoSepK=F KAlg= 0 I1Cent=           0 FoldK=F
 IRaf= 970000000 NMat=      51 IRICut=     127 DoRegI=T DoRafI=T ISym2E= 2 IDoP0=3 IntGTp=3.
 FoFCou: FMM=F IPFlag=           0 FMFlag=      100000 FMFlg1=           0
         NFxFlg=           0 DoJE=F BraDBF=F KetDBF=F FulRan=T
         wScrn=  0.000000 ICntrl=         0 IOpCl=  0 I1Cent=           0 NGrid=           0
         NMat0=   51 NMatS0=     51 NMatT0=    0 NMatD0=   51 NMtDS0=    0 NMtDT0=    0
 Integrals replicated using symmetry in FoFCou.
 Raff kept on since  95.77% of shell-pairs survive, threshold=   0.20 IRatSp=96.
          There are    54 degrees of freedom in the 1st order CPHF.  IDoFFX=6 NUNeed=     0.
     48 vectors produced by pass  0 Test12= 1.61D-14 1.85D-09 XBig12= 1.13D-01 7.47D-02.
 AX will form    48 AO Fock derivatives at one time.
     48 vectors produced by pass  1 Test12= 1.61D-14 1.85D-09 XBig12= 1.22D-02 2.34D-02.
     48 vectors produced by pass  2 Test12= 1.61D-14 1.85D-09 XBig12= 2.12D-04 1.92D-03.
     48 vectors produced by pass  3 Test12= 1.61D-14 1.85D-09 XBig12= 1.25D-06 1.26D-04.
     48 vectors produced by pass  4 Test12= 1.61D-14 1.85D-09 XBig12= 3.42D-09 6.02D-06.
     34 vectors produced by pass  5 Test12= 1.61D-14 1.85D-09 XBig12= 4.93D-12 2.65D-07.
     11 vectors produced by pass  6 Test12= 1.61D-14 1.85D-09 XBig12= 5.77D-15 6.99D-09.
 InvSVY:  IOpt=1 It=  1 EMax= 4.44D-16
 Solved reduced A of dimension   285 with    54 vectors.
 End of Minotr F.D. properties file   721 does not exist.
 End of Minotr F.D. properties file   722 does not exist.
 End of Minotr F.D. properties file   788 does not exist.
 Leave Link 1002 at Fri Mar 25 20:03:10 2022, MaxMem=  1073741824 cpu:            1533.1 elap:             191.7
 (Enter /home/saurabh/gaussian/g16/l601.exe)
 Copying SCF densities to generalized density rwf, IOpCl= 0 IROHF=0.

 **********************************************************************

            Population analysis using the SCF Density.

 **********************************************************************

 Orbital symmetries:
       Occupied  (A) (A) (A) (A) (A) (A) (A) (A) (A) (A) (A) (A)
                 (A) (A) (A) (A) (A) (A) (A) (A) (A) (A) (A) (A)
                 (A) (A) (A)
       Virtual   (A) (A) (A) (A) (A) (A) (A) (A) (A) (A) (A) (A)
                 (A) (A) (A) (A) (A) (A) (A) (A) (A) (A) (A) (A)
                 (A) (A) (A) (A) (A) (A) (A) (A) (A) (A) (A) (A)
                 (A) (A) (A) (A) (A) (A) (A) (A) (A) (A) (A) (A)
                 (A) (A) (A) (A) (A) (A) (A) (A) (A) (A) (A) (A)
                 (A) (A) (A) (A) (A) (A) (A) (A) (A) (A) (A) (A)
                 (A) (A) (A) (A) (A) (A) (A) (A) (A) (A) (A) (A)
                 (A) (A) (A) (A) (A) (A) (A) (A) (A) (A) (A) (A)
                 (A) (A) (A) (A) (A) (A) (A) (A) (A) (A) (A) (A)
                 (A) (A) (A) (A) (A) (A) (A) (A) (A) (A) (A) (A)
                 (A) (A) (A) (A) (A) (A) (A) (A) (A) (A) (A) (A)
                 (A) (A) (A) (A) (A) (A) (A) (A) (A) (A) (A) (A)
                 (A) (A) (A) (A) (A) (A) (A) (A) (A) (A) (A) (A)
                 (A) (A) (A) (A) (A) (A) (A) (A) (A) (A) (A) (A)
                 (A) (A) (A) (A) (A) (A) (A) (A) (A) (A) (A) (A)
                 (A) (A) (A) (A) (A) (A) (A) (A) (A) (A) (A) (A)
                 (A) (A) (A) (A) (A) (A) (A) (A) (A) (A) (A) (A)
                 (A) (A) (A) (A) (A) (A) (A) (A) (A) (A) (A) (A)
                 (A) (A) (A) (A) (A) (A) (A) (A) (A) (A) (A) (A)
                 (A) (A) (A) (A) (A) (A) (A) (A) (A) (A) (A) (A)
                 (A) (A) (A) (A) (A) (A) (A) (A) (A) (A) (A) (A)
                 (A) (A) (A) (A) (A) (A) (A) (A) (A) (A) (A) (A)
                 (A) (A) (A) (A) (A) (A) (A) (A) (A) (A) (A) (A)
                 (A) (A) (A) (A) (A) (A) (A) (A) (A) (A) (A) (A)
                 (A) (A) (A) (A) (A) (A) (A) (A) (A) (A) (A) (A)
                 (A) (A) (A) (A) (A) (A) (A) (A) (A) (A) (A) (A)
                 (A) (A) (A) (A) (A) (A) (A) (A) (A) (A) (A)
 The electronic state is 1-A.
 Alpha  occ. eigenvalues --  -19.12571 -10.23072 -10.22877 -10.18153 -10.18000
 Alpha  occ. eigenvalues --  -10.17840 -10.17612  -1.06244  -0.81214  -0.75309
 Alpha  occ. eigenvalues --   -0.69152  -0.62299  -0.60300  -0.53880  -0.51844
 Alpha  occ. eigenvalues --   -0.45711  -0.45127  -0.44116  -0.41729  -0.39378
 Alpha  occ. eigenvalues --   -0.38242  -0.36792  -0.33542  -0.32784  -0.32343
 Alpha  occ. eigenvalues --   -0.28568  -0.26297
 Alpha virt. eigenvalues --    0.03086   0.05516   0.06181   0.06361   0.07397
 Alpha virt. eigenvalues --    0.08929   0.09810   0.10547   0.11248   0.12121
 Alpha virt. eigenvalues --    0.13237   0.14044   0.17599   0.18556   0.21062
 Alpha virt. eigenvalues --    0.21934   0.22375   0.25448   0.25662   0.27861
 Alpha virt. eigenvalues --    0.30149   0.31449   0.32027   0.34531   0.35469
 Alpha virt. eigenvalues --    0.37403   0.38481   0.39595   0.40076   0.41644
 Alpha virt. eigenvalues --    0.41920   0.42052   0.43884   0.44419   0.45213
 Alpha virt. eigenvalues --    0.45999   0.46428   0.47099   0.48003   0.48533
 Alpha virt. eigenvalues --    0.48956   0.49662   0.50501   0.51595   0.52956
 Alpha virt. eigenvalues --    0.56613   0.57796   0.60308   0.63739   0.66839
 Alpha virt. eigenvalues --    0.69071   0.72125   0.75234   0.76255   0.77804
 Alpha virt. eigenvalues --    0.78886   0.80917   0.82895   0.83777   0.88109
 Alpha virt. eigenvalues --    0.90463   0.91391   0.92112   0.96470   0.97069
 Alpha virt. eigenvalues --    0.98128   0.99158   1.01397   1.01927   1.03115
 Alpha virt. eigenvalues --    1.04299   1.05613   1.06411   1.08091   1.09255
 Alpha virt. eigenvalues --    1.10727   1.11047   1.12918   1.13406   1.14458
 Alpha virt. eigenvalues --    1.16754   1.17738   1.18867   1.20083   1.21745
 Alpha virt. eigenvalues --    1.21841   1.23393   1.26556   1.28176   1.30147
 Alpha virt. eigenvalues --    1.30551   1.31146   1.33017   1.36832   1.37549
 Alpha virt. eigenvalues --    1.38286   1.38796   1.41671   1.43055   1.43407
 Alpha virt. eigenvalues --    1.44438   1.45257   1.45445   1.47624   1.52119
 Alpha virt. eigenvalues --    1.52692   1.55299   1.56071   1.57230   1.62587
 Alpha virt. eigenvalues --    1.66210   1.71445   1.73730   1.77015   1.82512
 Alpha virt. eigenvalues --    1.84020   1.89113   1.99538   2.02220   2.07021
 Alpha virt. eigenvalues --    2.12869   2.23145   2.23454   2.26978   2.31198
 Alpha virt. eigenvalues --    2.34724   2.36715   2.38814   2.40382   2.41244
 Alpha virt. eigenvalues --    2.43509   2.45014   2.47787   2.49967   2.51078
 Alpha virt. eigenvalues --    2.53741   2.55137   2.57190   2.58387   2.59666
 Alpha virt. eigenvalues --    2.61840   2.63547   2.64698   2.66522   2.67932
 Alpha virt. eigenvalues --    2.69446   2.70714   2.72072   2.75959   2.78256
 Alpha virt. eigenvalues --    2.80859   2.81309   2.84246   2.85209   2.87683
 Alpha virt. eigenvalues --    2.88744   2.91303   2.91726   2.93849   2.95435
 Alpha virt. eigenvalues --    2.96091   2.98544   3.01799   3.02888   3.03706
 Alpha virt. eigenvalues --    3.05185   3.06859   3.07381   3.07887   3.10303
 Alpha virt. eigenvalues --    3.11391   3.12219   3.13804   3.14627   3.15692
 Alpha virt. eigenvalues --    3.17181   3.18463   3.20445   3.21039   3.22416
 Alpha virt. eigenvalues --    3.24516   3.25221   3.26529   3.26978   3.31997
 Alpha virt. eigenvalues --    3.32334   3.35328   3.36653   3.37779   3.38539
 Alpha virt. eigenvalues --    3.40714   3.43952   3.45774   3.47964   3.49551
 Alpha virt. eigenvalues --    3.50591   3.52892   3.54547   3.56421   3.57368
 Alpha virt. eigenvalues --    3.60531   3.62628   3.63531   3.64097   3.65448
 Alpha virt. eigenvalues --    3.67324   3.67631   3.69352   3.70727   3.71973
 Alpha virt. eigenvalues --    3.74150   3.74509   3.76674   3.77697   3.80520
 Alpha virt. eigenvalues --    3.82309   3.85133   3.87908   3.89842   3.90946
 Alpha virt. eigenvalues --    3.92041   3.94194   3.95518   3.97045   3.97566
 Alpha virt. eigenvalues --    3.98231   3.98774   4.00377   4.01807   4.02858
 Alpha virt. eigenvalues --    4.05200   4.07157   4.09770   4.10561   4.11017
 Alpha virt. eigenvalues --    4.11729   4.15213   4.17099   4.18182   4.18945
 Alpha virt. eigenvalues --    4.20619   4.21414   4.23092   4.25312   4.25841
 Alpha virt. eigenvalues --    4.27843   4.30994   4.33703   4.36004   4.37306
 Alpha virt. eigenvalues --    4.39388   4.43233   4.45085   4.46118   4.47588
 Alpha virt. eigenvalues --    4.50300   4.58402   4.59084   4.62090   4.67019
 Alpha virt. eigenvalues --    4.67928   4.72182   4.73235   4.73780   4.77924
 Alpha virt. eigenvalues --    4.80599   4.81027   4.83894   4.85655   4.88326
 Alpha virt. eigenvalues --    4.90521   4.92093   4.93416   4.94943   4.97430
 Alpha virt. eigenvalues --    4.98200   5.01540   5.03305   5.05394   5.09410
 Alpha virt. eigenvalues --    5.13478   5.14290   5.15925   5.20997   5.22622
 Alpha virt. eigenvalues --    5.25352   5.27846   5.29352   5.32185   5.36087
 Alpha virt. eigenvalues --    5.37022   5.41120   5.42535   5.45024   5.45732
 Alpha virt. eigenvalues --    5.50271   5.51153   5.59954   5.60769   5.63212
 Alpha virt. eigenvalues --    5.70216   5.73528   5.85762   5.87264   5.91242
 Alpha virt. eigenvalues --    5.95897   5.99827   6.02628   6.05559   6.05837
 Alpha virt. eigenvalues --    6.43607   6.68907   6.86016   6.90726   7.01469
 Alpha virt. eigenvalues --    7.28981  10.54970  11.02521  11.78913  12.22479
 Alpha virt. eigenvalues --   12.30793  12.53440  12.79450
          Condensed to atoms (all electrons):
               1          2          3          4          5          6
     1  C    4.794679   0.366911  -0.025382  -0.020612  -0.016849   0.349844
     2  C    0.366911   4.867838   0.346578  -0.041790  -0.003455  -0.049706
     3  C   -0.025382   0.346578   4.873205   0.332801  -0.031005  -0.015707
     4  C   -0.020612  -0.041790   0.332801   4.904846   0.310866  -0.026541
     5  C   -0.016849  -0.003455  -0.031005   0.310866   4.929487   0.331849
     6  C    0.349844  -0.049706  -0.015707  -0.026541   0.331849   4.757421
     7  H   -0.034124   0.002671  -0.001648   0.007955  -0.057000   0.445173
     8  O    0.187499  -0.020613  -0.006231   0.010759  -0.050832   0.236334
     9  H    0.008209  -0.000625   0.007451  -0.036454   0.402124  -0.034584
    10  H   -0.002115  -0.000379  -0.006880  -0.030083   0.386071  -0.035220
    11  H   -0.003575  -0.003136  -0.035617   0.402402  -0.034251  -0.003513
    12  H   -0.000228   0.007702  -0.035491   0.405861  -0.033727   0.006510
    13  H    0.006338  -0.032939   0.410052  -0.035474   0.008016  -0.000061
    14  H   -0.000064  -0.037275   0.409155  -0.044674  -0.001857  -0.000472
    15  H   -0.036501   0.391370  -0.031846  -0.007364   0.000346   0.009309
    16  H   -0.038797   0.392414  -0.041663   0.011560  -0.003082   0.005166
    17  H    0.436070  -0.045213   0.003950   0.000054   0.000573  -0.022340
               7          8          9         10         11         12
     1  C   -0.034124   0.187499   0.008209  -0.002115  -0.003575  -0.000228
     2  C    0.002671  -0.020613  -0.000625  -0.000379  -0.003136   0.007702
     3  C   -0.001648  -0.006231   0.007451  -0.006880  -0.035617  -0.035491
     4  C    0.007955   0.010759  -0.036454  -0.030083   0.402402   0.405861
     5  C   -0.057000  -0.050832   0.402124   0.386071  -0.034251  -0.033727
     6  C    0.445173   0.236334  -0.034584  -0.035220  -0.003513   0.006510
     7  H    0.574805  -0.025601  -0.005026   0.000150   0.000168  -0.000243
     8  O   -0.025601   8.022002  -0.003626   0.005786   0.012023   0.000197
     9  H   -0.005026  -0.003626   0.621723  -0.035305  -0.004094  -0.003120
    10  H    0.000150   0.005786  -0.035305   0.641219   0.008193  -0.007253
    11  H    0.000168   0.012023  -0.004094   0.008193   0.604334  -0.035647
    12  H   -0.000243   0.000197  -0.003120  -0.007253  -0.035647   0.623467
    13  H    0.000038  -0.000555  -0.000445  -0.000215  -0.004379  -0.006311
    14  H   -0.000408  -0.000676   0.000398   0.004416   0.008236  -0.004697
    15  H   -0.000397  -0.006161   0.000438  -0.000091   0.004474  -0.000026
    16  H    0.000369   0.005192   0.000041   0.000108   0.000238  -0.000505
    17  H   -0.003420  -0.027446  -0.000244   0.000360   0.000173   0.000075
              13         14         15         16         17
     1  C    0.006338  -0.000064  -0.036501  -0.038797   0.436070
     2  C   -0.032939  -0.037275   0.391370   0.392414  -0.045213
     3  C    0.410052   0.409155  -0.031846  -0.041663   0.003950
     4  C   -0.035474  -0.044674  -0.007364   0.011560   0.000054
     5  C    0.008016  -0.001857   0.000346  -0.003082   0.000573
     6  C   -0.000061  -0.000472   0.009309   0.005166  -0.022340
     7  H    0.000038  -0.000408  -0.000397   0.000369  -0.003420
     8  O   -0.000555  -0.000676  -0.006161   0.005192  -0.027446
     9  H   -0.000445   0.000398   0.000438   0.000041  -0.000244
    10  H   -0.000215   0.004416  -0.000091   0.000108   0.000360
    11  H   -0.004379   0.008236   0.004474   0.000238   0.000173
    12  H   -0.006311  -0.004697  -0.000026  -0.000505   0.000075
    13  H    0.618906  -0.036743  -0.008172  -0.002734  -0.000359
    14  H   -0.036743   0.635831   0.007936  -0.010156  -0.000004
    15  H   -0.008172   0.007936   0.622378  -0.033356   0.000670
    16  H   -0.002734  -0.010156  -0.033356   0.647644  -0.004810
    17  H   -0.000359  -0.000004   0.000670  -0.004810   0.559402
 Mulliken charges:
               1
     1  C    0.028697
     2  C   -0.140354
     3  C   -0.151724
     4  C   -0.144111
     5  C   -0.137274
     6  C    0.046537
     7  H    0.096538
     8  O   -0.338051
     9  H    0.083139
    10  H    0.071238
    11  H    0.083969
    12  H    0.083435
    13  H    0.085038
    14  H    0.071053
    15  H    0.086992
    16  H    0.072370
    17  H    0.102507
 Sum of Mulliken charges =  -0.00000
 Mulliken charges with hydrogens summed into heavy atoms:
               1
     1  C    0.131205
     2  C    0.019009
     3  C    0.004367
     4  C    0.023293
     5  C    0.017103
     6  C    0.143075
     8  O   -0.338051
 APT charges:
               1
     1  C   -0.441075
     2  C   -0.755667
     3  C   -0.752088
     4  C   -0.706893
     5  C   -0.733839
     6  C   -0.460285
     7  H    0.498225
     8  O   -0.153458
     9  H    0.412212
    10  H    0.335131
    11  H    0.267352
    12  H    0.469695
    13  H    0.462357
    14  H    0.309881
    15  H    0.333946
    16  H    0.404566
    17  H    0.509942
 Sum of APT charges =  -0.00000
 APT charges with hydrogens summed into heavy atoms:
               1
     1  C    0.068866
     2  C   -0.017155
     3  C    0.020150
     4  C    0.030154
     5  C    0.013504
     6  C    0.037940
     8  O   -0.153458
 Electronic spatial extent (au):  <R**2>=            674.9586
 Charge=             -0.0000 electrons
 Dipole moment (field-independent basis, Debye):
    X=              0.9742    Y=              0.0963    Z=             -1.4104  Tot=              1.7169
 Quadrupole moment (field-independent basis, Debye-Ang):
   XX=            -44.8225   YY=            -41.6560   ZZ=            -45.1203
   XY=             -0.2039   XZ=              2.9421   YZ=              0.3290
 Traceless Quadrupole moment (field-independent basis, Debye-Ang):
   XX=             -0.9562   YY=              2.2102   ZZ=             -1.2540
   XY=             -0.2039   XZ=              2.9421   YZ=              0.3290
 Octapole moment (field-independent basis, Debye-Ang**2):
  XXX=             -4.9554  YYY=              0.2322  ZZZ=              2.5767  XYY=             -5.0764
  XXY=              0.1847  XXZ=             -4.2289  XZZ=              0.5354  YZZ=              0.1358
  YYZ=              1.1153  XYZ=              0.1346
 Hexadecapole moment (field-independent basis, Debye-Ang**3):
 XXXX=           -425.3803 YYYY=           -367.9818 ZZZZ=           -126.0831 XXXY=             -1.7336
 XXXZ=              8.2983 YYYX=             -0.8914 YYYZ=             -3.1676 ZZZX=             -3.9524
 ZZZY=              1.9796 XXYY=           -126.0891 XXZZ=            -95.7922 YYZZ=            -80.1072
 XXYZ=              1.9656 YYXZ=             -0.5111 ZZXY=              0.8055
 N-N= 3.192011031489D+02 E-N=-1.359007715488D+03  KE= 3.075038247154D+02
  Exact polarizability:       0.000       0.000       0.000       0.000       0.000       0.000
 Approx polarizability:      95.412       0.598     106.623      -1.785       0.785      98.302
 No NMR shielding tensors so no spin-rotation constants.
 Leave Link  601 at Fri Mar 25 20:03:10 2022, MaxMem=  1073741824 cpu:               1.6 elap:               0.2
 (Enter /home/saurabh/gaussian/g16/l701.exe)
 ... and contract with generalized density number  0.
 Compute integral second derivatives.
 Leave Link  701 at Fri Mar 25 20:03:11 2022, MaxMem=  1073741824 cpu:               2.0 elap:               0.3
 (Enter /home/saurabh/gaussian/g16/l702.exe)
 L702 exits ... SP integral derivatives will be done elsewhere.
 Leave Link  702 at Fri Mar 25 20:03:11 2022, MaxMem=  1073741824 cpu:               0.2 elap:               0.0
 (Enter /home/saurabh/gaussian/g16/l703.exe)
 Integral derivatives from FoFJK, PRISM(SPDF).
 Compute integral second derivatives, UseDBF=F ICtDFT=           0.
 Calling FoFJK, ICntrl=    100127 FMM=F ISym2X=0 I1Cent= 0 IOpClX= 0 NMat=1 NMatS=1 NMatT=0.
 FoFJK:  IHMeth= 1 ICntrl=  100127 DoSepK=F KAlg= 0 I1Cent=           0 FoldK=F
 IRaf=         0 NMat=       1 IRICut=       1 DoRegI=T DoRafI=F ISym2E= 0 IDoP0=0 IntGTp=1.
 FoFCou: FMM=F IPFlag=           0 FMFlag=      100000 FMFlg1=         800
         NFxFlg=           0 DoJE=F BraDBF=F KetDBF=F FulRan=T
         wScrn=  0.000000 ICntrl=    100127 IOpCl=  0 I1Cent=           0 NGrid=           0
         NMat0=    1 NMatS0=      1 NMatT0=    0 NMatD0=    1 NMtDS0=    0 NMtDT0=    0
 Symmetry not used in FoFCou.
 Leave Link  703 at Fri Mar 25 20:07:15 2022, MaxMem=  1073741824 cpu:            1951.7 elap:             244.0
 (Enter /home/saurabh/gaussian/g16/l716.exe)
 Dipole        = 3.83272958D-01 3.78731035D-02-5.54912131D-01
 Polarizability= 0.00000000D+00 0.00000000D+00 0.00000000D+00
                 0.00000000D+00 0.00000000D+00 0.00000000D+00
 ***** Axes restored to original set *****
 -------------------------------------------------------------------
 Center     Atomic                   Forces (Hartrees/Bohr)
 Number     Number              X              Y              Z
 -------------------------------------------------------------------
      1        6           0.008283893    0.017782479   -0.015509694
      2        6          -0.006898754   -0.023135404    0.009347229
      3        6           0.008530425   -0.004542242   -0.001098290
      4        6           0.007932925   -0.001384345   -0.003087389
      5        6           0.005799761    0.018630947    0.005262847
      6        6          -0.009887147   -0.020006678   -0.012612024
      7        1           0.005000254   -0.001170241    0.006073815
      8        8           0.003787556    0.002067806   -0.004447165
      9        1          -0.003270648   -0.008845241    0.009387654
     10        1          -0.002108324   -0.001700008   -0.011705587
     11        1           0.002122715    0.002687101    0.014647890
     12        1          -0.015042434   -0.001576623   -0.001941207
     13        1          -0.010177475    0.009831881    0.005358035
     14        1          -0.001784467   -0.002233620   -0.013136372
     15        1           0.000843452    0.006422419    0.011961423
     16        1           0.001218525    0.007335047   -0.010400726
     17        1           0.005649745   -0.000163278    0.011899562
 -------------------------------------------------------------------
 Cartesian Forces:  Max     0.023135404 RMS     0.009228847
 FormGI is forming the generalized inverse of G from B-inverse, IUseBI=4.
 Leave Link  716 at Fri Mar 25 20:07:15 2022, MaxMem=  1073741824 cpu:               0.2 elap:               0.0
 (Enter /home/saurabh/gaussian/g16/l103.exe)

 GradGradGradGradGradGradGradGradGradGradGradGradGradGradGradGradGradGrad
 Berny optimization.
 Red2BG is reusing G-inverse.
 Internal  Forces:  Max     0.015985867 RMS     0.004997015
 Search for a local minimum.
 Step number   1 out of a maximum of  102
 All quantities printed in internal units (Hartrees-Bohrs-Radians)
 RMS Force = .49970D-02 SwitMx=.10000D-02 MixMth= 1
 Mixed Optimization -- RFO/linear search
 Second derivative matrix not updated -- analytic derivatives used.
 ITU=  0
     Eigenvalues ---    0.00234   0.00459   0.00832   0.01677   0.01728
     Eigenvalues ---    0.02932   0.03059   0.03540   0.03690   0.03780
     Eigenvalues ---    0.03896   0.04035   0.05367   0.05708   0.06529
     Eigenvalues ---    0.06983   0.07264   0.07476   0.08074   0.08994
     Eigenvalues ---    0.09470   0.10009   0.10247   0.12387   0.14622
     Eigenvalues ---    0.18665   0.18911   0.20932   0.24097   0.24448
     Eigenvalues ---    0.25127   0.25292   0.26180   0.27971   0.28102
     Eigenvalues ---    0.28213   0.28279   0.28355   0.28661   0.29108
     Eigenvalues ---    0.29497   0.29556   0.30758   0.33868   0.34053
 RFO step:  Lambda=-1.35580256D-02 EMin= 2.34045910D-03
 Linear search not attempted -- first point.
 Iteration  1 RMS(Cart)=  0.03559940 RMS(Int)=  0.00162772
 Iteration  2 RMS(Cart)=  0.00145423 RMS(Int)=  0.00069980
 Iteration  3 RMS(Cart)=  0.00000263 RMS(Int)=  0.00069980
 Iteration  4 RMS(Cart)=  0.00000000 RMS(Int)=  0.00069980
 ITry= 1 IFail=0 DXMaxC= 1.40D-01 DCOld= 1.00D+10 DXMaxT= 3.00D-01 DXLimC= 3.00D+00 Rises=F
 Variable       Old X    -DE/DX   Delta X   Delta X   Delta X     New X
                                 (Linear)    (Quad)   (Total)
    R1        2.86690  -0.00336   0.00000  -0.00443  -0.00390   2.86300
    R2        2.85933  -0.01599   0.00000  -0.08462  -0.08331   2.77602
    R3        2.72531   0.00316   0.00000   0.00076   0.00045   2.72576
    R4        2.05626  -0.00253   0.00000  -0.00442  -0.00442   2.05183
    R5        2.90065  -0.00194   0.00000  -0.00008  -0.00043   2.90022
    R6        2.10857  -0.01358   0.00000  -0.04399  -0.04399   2.06458
    R7        2.10897  -0.01242   0.00000  -0.04532  -0.04532   2.06365
    R8        2.89389  -0.00085   0.00000  -0.00227  -0.00298   2.89091
    R9        2.11038  -0.01500   0.00000  -0.04941  -0.04941   2.06097
   R10        2.10979  -0.01344   0.00000  -0.04200  -0.04200   2.06780
   R11        2.89988  -0.00180   0.00000  -0.00320  -0.00374   2.89614
   R12        2.10912  -0.01502   0.00000  -0.04810  -0.04810   2.06101
   R13        2.11038  -0.01514   0.00000  -0.04953  -0.04953   2.06085
   R14        2.86177  -0.00396   0.00000  -0.00859  -0.00828   2.85349
   R15        2.10868  -0.01295   0.00000  -0.04409  -0.04409   2.06459
   R16        2.10807  -0.01185   0.00000  -0.03897  -0.03897   2.06909
   R17        2.05599  -0.00181   0.00000  -0.00171  -0.00171   2.05428
   R18        2.71005  -0.00093   0.00000  -0.00348  -0.00369   2.70636
    A1        2.07607   0.00728   0.00000   0.04545   0.04463   2.12070
    A2        1.98688  -0.00241   0.00000   0.02811   0.02761   2.01449
    A3        2.06292  -0.00359   0.00000  -0.02780  -0.03106   2.03186
    A4        2.12173  -0.00469   0.00000  -0.04436  -0.04766   2.07408
    A5        1.87443   0.00526   0.00000   0.06258   0.06372   1.93815
    A6        2.01793  -0.00825   0.00000  -0.04167  -0.04165   1.97628
    A7        1.88983   0.00004   0.00000  -0.01111  -0.01122   1.87861
    A8        1.88462   0.00408   0.00000   0.02067   0.02080   1.90542
    A9        1.92889   0.00332   0.00000   0.00694   0.00611   1.93500
   A10        1.87723   0.00307   0.00000   0.02959   0.02970   1.90693
   A11        1.85844  -0.00181   0.00000  -0.00073  -0.00083   1.85761
   A12        1.92655   0.00352   0.00000   0.02958   0.02908   1.95563
   A13        1.91690  -0.00283   0.00000  -0.00229  -0.00225   1.91465
   A14        1.91918  -0.00019   0.00000  -0.01651  -0.01669   1.90249
   A15        1.92458   0.00244   0.00000   0.01139   0.01093   1.93551
   A16        1.90739  -0.00332   0.00000  -0.01701  -0.01636   1.89103
   A17        1.86837   0.00025   0.00000  -0.00658  -0.00666   1.86171
   A18        1.90107   0.00198   0.00000   0.02163   0.02161   1.92268
   A19        1.91817  -0.00088   0.00000   0.00167   0.00191   1.92008
   A20        1.92488   0.00121   0.00000  -0.00042  -0.00052   1.92436
   A21        1.93096  -0.00038   0.00000  -0.01690  -0.01739   1.91358
   A22        1.91708  -0.00233   0.00000  -0.00658  -0.00626   1.91082
   A23        1.87172   0.00035   0.00000   0.00002  -0.00009   1.87164
   A24        2.00104  -0.00698   0.00000  -0.04069  -0.04105   1.95998
   A25        1.90334   0.00475   0.00000   0.02937   0.02924   1.93258
   A26        1.91340   0.00047   0.00000   0.00205   0.00237   1.91577
   A27        1.89476   0.00077   0.00000   0.00510   0.00544   1.90020
   A28        1.87784   0.00316   0.00000   0.01358   0.01365   1.89149
   A29        1.86895  -0.00198   0.00000  -0.00804  -0.00826   1.86070
   A30        2.08717   0.00432   0.00000   0.02223   0.02208   2.10926
   A31        2.08253  -0.00113   0.00000  -0.00664  -0.00888   2.07366
   A32        2.06855  -0.00456   0.00000  -0.04161  -0.04274   2.02582
   A33        1.98129  -0.00348   0.00000   0.02420   0.02454   2.00584
   A34        1.93094   0.00543   0.00000   0.04498   0.04489   1.97583
    D1        0.23166  -0.00314   0.00000  -0.04429  -0.04428   0.18738
    D2       -1.94292  -0.00155   0.00000  -0.01401  -0.01478  -1.95770
    D3        2.33458  -0.00157   0.00000  -0.01811  -0.01865   2.31593
    D4        1.37161   0.00044   0.00000  -0.00303  -0.00216   1.36946
    D5       -0.80296   0.00203   0.00000   0.02725   0.02734  -0.77562
    D6       -2.80865   0.00202   0.00000   0.02314   0.02348  -2.78518
    D7       -2.68750   0.00236   0.00000   0.09186   0.09251  -2.59499
    D8        1.42111   0.00395   0.00000   0.12214   0.12201   1.54312
    D9       -0.58458   0.00394   0.00000   0.11803   0.11814  -0.46644
   D10        0.00872  -0.00146   0.00000  -0.00927  -0.00908  -0.00035
   D11       -2.81084   0.00414   0.00000   0.08889   0.08961  -2.72122
   D12        2.92010  -0.00694   0.00000  -0.14746  -0.14649   2.77361
   D13        0.10054  -0.00134   0.00000  -0.04930  -0.04780   0.05274
   D14       -0.80331   0.00525   0.00000   0.06990   0.06922  -0.73409
   D15       -2.92903   0.00177   0.00000   0.03780   0.03724  -2.89180
   D16        1.30245   0.00326   0.00000   0.05704   0.05635   1.35881
   D17        1.35088   0.00173   0.00000   0.02877   0.02858   1.37946
   D18       -0.77484  -0.00176   0.00000  -0.00334  -0.00340  -0.77824
   D19       -2.82654  -0.00026   0.00000   0.01590   0.01572  -2.81083
   D20       -2.91023   0.00309   0.00000   0.04843   0.04843  -2.86180
   D21        1.24723  -0.00039   0.00000   0.01633   0.01645   1.26368
   D22       -0.80447   0.00111   0.00000   0.03557   0.03557  -0.76890
   D23        1.13096   0.00072   0.00000  -0.02001  -0.02097   1.10999
   D24       -0.98711   0.00048   0.00000  -0.01391  -0.01446  -1.00156
   D25       -3.04711  -0.00015   0.00000  -0.01470  -0.01520  -3.06231
   D26       -3.03105   0.00111   0.00000   0.00422   0.00380  -3.02725
   D27        1.13408   0.00087   0.00000   0.01032   0.01031   1.14439
   D28       -0.92593   0.00024   0.00000   0.00952   0.00957  -0.91636
   D29       -0.98184   0.00086   0.00000  -0.00728  -0.00775  -0.98959
   D30       -3.09990   0.00062   0.00000  -0.00118  -0.00124  -3.10114
   D31        1.12328  -0.00001   0.00000  -0.00197  -0.00199   1.12129
   D32       -0.89474   0.00085   0.00000   0.00252   0.00218  -0.89257
   D33       -3.02301   0.00109   0.00000   0.00188   0.00219  -3.02082
   D34        1.21909   0.00048   0.00000  -0.00650  -0.00638   1.21271
   D35        1.21550   0.00080   0.00000   0.00795   0.00737   1.22287
   D36       -0.91276   0.00104   0.00000   0.00731   0.00739  -0.90537
   D37       -2.95385   0.00043   0.00000  -0.00107  -0.00118  -2.95503
   D38       -3.00465  -0.00045   0.00000  -0.00644  -0.00689  -3.01154
   D39        1.15027  -0.00021   0.00000  -0.00708  -0.00688   1.14339
   D40       -0.89082  -0.00082   0.00000  -0.01546  -0.01545  -0.90626
   D41        0.33333   0.00188   0.00000   0.02346   0.02385   0.35718
   D42       -3.12773  -0.00306   0.00000  -0.06762  -0.06645   3.08900
   D43       -0.81744  -0.00341   0.00000  -0.01463  -0.01485  -0.83229
   D44        2.46626   0.00384   0.00000   0.03746   0.03750   2.50375
   D45       -0.99480  -0.00110   0.00000  -0.05361  -0.05281  -1.04761
   D46        1.31549  -0.00145   0.00000  -0.00062  -0.00121   1.31428
   D47       -1.79992   0.00357   0.00000   0.03776   0.03786  -1.76206
   D48        1.02220  -0.00138   0.00000  -0.05331  -0.05244   0.96976
   D49       -2.95069  -0.00173   0.00000  -0.00032  -0.00084  -2.95153
         Item               Value     Threshold  Converged?
 Maximum Force            0.015986     0.000450     NO 
 RMS     Force            0.004997     0.000300     NO 
 Maximum Displacement     0.140250     0.001800     NO 
 RMS     Displacement     0.035965     0.001200     NO 
 Predicted change in Energy=-7.792984D-03
 Lowest energy point so far.  Saving SCF results.
 GradGradGradGradGradGradGradGradGradGradGradGradGradGradGradGradGradGrad

 Leave Link  103 at Fri Mar 25 20:07:15 2022, MaxMem=  1073741824 cpu:               0.2 elap:               0.1
 (Enter /home/saurabh/gaussian/g16/l202.exe)
                          Input orientation:                          
 ---------------------------------------------------------------------
 Center     Atomic      Atomic             Coordinates (Angstroms)
 Number     Number       Type             X           Y           Z
 ---------------------------------------------------------------------
      1          6           0        0.034948    0.012507   -0.035217
      2          6           0        1.017847   -1.139135   -0.089594
      3          6           0        2.471002   -0.706561    0.148344
      4          6           0        2.810783    0.592611   -0.584458
      5          6           0        1.961368    1.745146   -0.037715
      6          6           0        0.489465    1.409207   -0.010258
      7          1           0       -0.165393    2.165742    0.414661
      8          8           0       -0.021227    0.835028   -1.218793
      9          1           0        2.106490    2.649117   -0.633877
     10          1           0        2.279010    1.988083    0.981563
     11          1           0        2.627476    0.477141   -1.653366
     12          1           0        3.868090    0.829967   -0.461691
     13          1           0        3.146915   -1.509148   -0.149048
     14          1           0        2.624605   -0.547829    1.220048
     15          1           0        0.909801   -1.620784   -1.064255
     16          1           0        0.737429   -1.885509    0.656620
     17          1           0       -0.962329   -0.220191    0.325638
 ---------------------------------------------------------------------
                    Distance matrix (angstroms):
                    1          2          3          4          5
     1  C    0.000000
     2  C    1.515034   0.000000
     3  C    2.546588   1.534729   0.000000
     4  C    2.888503   2.541349   1.529804   0.000000
     5  C    2.590973   3.035128   2.511019   1.532570   0.000000
     6  C    1.469006   2.603753   2.903122   2.526865   1.510002
     7  H    2.208834   3.546342   3.907893   3.511495   2.214645
     8  O    1.442411   2.500418   3.233693   2.912289   2.480714
     9  H    3.406082   3.978976   3.464869   2.174325   1.092536
    10  H    3.157936   3.537994   2.827052   2.163920   1.094916
    11  H    3.091196   2.765617   2.161433   1.090641   2.159136
    12  H    3.942474   3.484208   2.164467   1.090554   2.157058
    13  H    3.465939   2.161799   1.090617   2.172546   3.465306
    14  H    2.931892   2.155569   1.094230   2.142781   2.698071
    15  H    2.119417   1.092531   2.177969   2.956866   3.672746
    16  H    2.138827   1.092036   2.157206   3.461235   3.893813
    17  H    1.085784   2.222155   3.472139   3.965514   3.541551
                    6          7          8          9         10
     6  C    0.000000
     7  H    1.087079   0.000000
     8  O    1.432147   2.111812   0.000000
     9  H    2.130973   2.548438   2.856611   0.000000
    10  H    2.126329   2.515561   3.385586   1.753961   0.000000
    11  H    2.853005   3.863706   2.707871   2.455253   3.057323
    12  H    3.457516   4.338349   3.962325   2.538148   2.439138
    13  H    3.949442   4.979354   4.083704   4.313782   3.776528
    14  H    3.146818   3.974444   3.854954   3.731749   2.570440
    15  H    3.235496   4.204879   2.630914   4.455261   4.368527
    16  H    3.370662   4.157675   3.390288   4.909434   4.181719
    17  H    2.208047   2.517083   2.093903   4.309438   3.976555
                   11         12         13         14         15
    11  H    0.000000
    12  H    1.756046   0.000000
    13  H    2.545217   2.467649   0.000000
    14  H    3.050750   2.504560   1.752532   0.000000
    15  H    2.774661   3.888539   2.419658   3.051201   0.000000
    16  H    3.806629   4.292489   2.568341   2.380814   1.749629
    17  H    4.158056   5.005564   4.332739   3.711255   2.719988
                   16         17
    16  H    0.000000
    17  H    2.402501   0.000000
 Stoichiometry    C6H10O
 Framework group  C1[X(C6H10O)]
 Deg. of freedom    45
 Full point group                 C1      NOp   1
 RotChk:  IX=0 Diff= 4.28D-02
 Largest Abelian subgroup         C1      NOp   1
 Largest concise Abelian subgroup C1      NOp   1
                         Standard orientation:                         
 ---------------------------------------------------------------------
 Center     Atomic      Atomic             Coordinates (Angstroms)
 Number     Number       Type             X           Y           Z
 ---------------------------------------------------------------------
      1          6           0       -0.987471    0.834957   -0.297272
      2          6           0        0.340796    1.513562   -0.031700
      3          6           0        1.542359    0.569721   -0.175934
      4          6           0        1.273473   -0.801551    0.446653
      5          6           0        0.129624   -1.502826   -0.294018
      6          6           0       -1.091934   -0.624809   -0.424359
      7          1           0       -1.923744   -1.043687   -0.985048
      8          8           0       -1.497690    0.028073    0.784008
      9          1           0       -0.152186   -2.426975    0.216045
     10          1           0        0.458721   -1.787679   -1.298706
     11          1           0        1.013530   -0.688807    1.499846
     12          1           0        2.170442   -1.420049    0.399602
     13          1           0        2.426918    1.030555    0.265238
     14          1           0        1.759129    0.428749   -1.239173
     15          1           0        0.299465    1.940175    0.973246
     16          1           0        0.458131    2.353717   -0.719388
     17          1           0       -1.769976    1.455090   -0.723941
 ---------------------------------------------------------------------
 Rotational constants (GHZ):           3.8782500           3.1755986           2.1197305
 Leave Link  202 at Fri Mar 25 20:07:15 2022, MaxMem=  1073741824 cpu:               0.1 elap:               0.0
 (Enter /home/saurabh/gaussian/g16/l301.exe)
 Standard basis: CC-pVTZ (5D, 7F)
 Ernie: Thresh=  0.10000D-02 Tol=  0.10000D-05 Strict=F.
 Ernie:  21 primitive shells out of 262 were deleted.
 There are   395 symmetry adapted cartesian basis functions of A   symmetry.
 There are   350 symmetry adapted basis functions of A   symmetry.
   350 basis functions,   534 primitive gaussians,   395 cartesian basis functions
    27 alpha electrons       27 beta electrons
       nuclear repulsion energy       320.9771180956 Hartrees.
 IExCor=  402 DFT=T Ex+Corr=B3LYP ExCW=0 ScaHFX=  0.200000
 ScaDFX=  0.800000  0.720000  1.000000  0.810000 ScalE2=  1.000000  1.000000
 IRadAn=      5 IRanWt=     -1 IRanGd=            0 ICorTp=0 IEmpDi=  4
 NAtoms=   17 NActive=   17 NUniq=   17 SFac= 1.00D+00 NAtFMM=   60 NAOKFM=F Big=F
 Integral buffers will be    131072 words long.
 Raffenetti 2 integral format.
 Two-electron integral symmetry is turned on.
 Leave Link  301 at Fri Mar 25 20:07:15 2022, MaxMem=  1073741824 cpu:               0.4 elap:               0.1
 (Enter /home/saurabh/gaussian/g16/l302.exe)
 NPDir=0 NMtPBC=     1 NCelOv=     1 NCel=       1 NClECP=     1 NCelD=      1
         NCelK=      1 NCelE2=     1 NClLst=     1 CellRange=     0.0.
 One-electron integrals computed using PRISM.
 One-electron integral symmetry used in STVInt
 NBasis=   350 RedAO= T EigKep=  1.43D-04  NBF=   350
 NBsUse=   350 1.00D-06 EigRej= -1.00D+00 NBFU=   350
 Precomputing XC quadrature grid using
 IXCGrd= 4 IRadAn=           5 IRanWt=          -1 IRanGd=           0 AccXCQ= 0.00D+00.
 Generated NRdTot=       0 NPtTot=           0 NUsed=           0 NTot=          32
 NSgBfM=   395   395   395   395   395 MxSgAt=    17 MxSgA2=    17.
 Leave Link  302 at Fri Mar 25 20:07:15 2022, MaxMem=  1073741824 cpu:               2.4 elap:               0.3
 (Enter /home/saurabh/gaussian/g16/l303.exe)
 DipDrv:  MaxL=1.
 Leave Link  303 at Fri Mar 25 20:07:15 2022, MaxMem=  1073741824 cpu:               0.3 elap:               0.1
 (Enter /home/saurabh/gaussian/g16/l401.exe)
 Initial guess from the checkpoint file:  "Mol_07.chk"
 B after Tr=     0.000000   -0.000000    0.000000
         Rot=    0.999913   -0.000207    0.002581    0.012971 Ang=  -1.52 deg.
 Guess basis will be translated and rotated to current coordinates.
 JPrj=2 DoOrth=T DoCkMO=T.
 Generating alternative initial guess.
 ExpMin= 1.03D-01 ExpMax= 1.53D+04 ExpMxC= 5.22D+02 IAcc=3 IRadAn=         5 AccDes= 0.00D+00
 Harris functional with IExCor=  402 and IRadAn=       5 diagonalized for initial guess.
 HarFok:  IExCor=  402 AccDes= 0.00D+00 IRadAn=         5 IDoV= 1 UseB2=F ITyADJ=14
 ICtDFT=  3500011 ScaDFX=  1.000000  1.000000  1.000000  1.000000
 FoFCou: FMM=F IPFlag=           0 FMFlag=      100000 FMFlg1=           0
         NFxFlg=           0 DoJE=T BraDBF=F KetDBF=T FulRan=T
         wScrn=  0.000000 ICntrl=       500 IOpCl=  0 I1Cent=   200000004 NGrid=           0
         NMat0=    1 NMatS0=      1 NMatT0=    0 NMatD0=    1 NMtDS0=    0 NMtDT0=    0
 Petite list used in FoFCou.
 Harris En= -310.001770984081    
 Leave Link  401 at Fri Mar 25 20:07:17 2022, MaxMem=  1073741824 cpu:              10.2 elap:               1.3
 (Enter /home/saurabh/gaussian/g16/l502.exe)
 Integral symmetry usage will be decided dynamically.
 Closed shell SCF:
 Using DIIS extrapolation, IDIIS=  1040.
 NGot=  1073741824 LenX=  1073422680 LenY=  1073266214
 Requested convergence on RMS density matrix=1.00D-08 within1000 cycles.
 Requested convergence on MAX density matrix=1.00D-06.
 Requested convergence on             energy=1.00D-06.
 No special actions if energy rises.
 Fock matrices will be formed incrementally for  20 cycles.
 Integral accuracy reduced to 1.0D-05 until final iterations.

 Cycle   1  Pass 0  IDiag  1:
 FoFJK:  IHMeth= 1 ICntrl=       0 DoSepK=F KAlg= 0 I1Cent=           0 FoldK=F
 IRaf= 990000000 NMat=       1 IRICut=       1 DoRegI=T DoRafI=F ISym2E= 0 IDoP0=0 IntGTp=1.
 FoFCou: FMM=F IPFlag=           0 FMFlag=      100000 FMFlg1=           0
         NFxFlg=           0 DoJE=F BraDBF=F KetDBF=F FulRan=T
         wScrn=  0.000000 ICntrl=         0 IOpCl=  0 I1Cent=           0 NGrid=           0
         NMat0=    1 NMatS0=      1 NMatT0=    0 NMatD0=    1 NMtDS0=    0 NMtDT0=    0
 Symmetry not used in FoFCou.
 E= -309.958903827127    
 DIIS: error= 3.15D-03 at cycle   1 NSaved=   1.
 NSaved= 1 IEnMin= 1 EnMin= -309.958903827127     IErMin= 1 ErrMin= 3.15D-03
 ErrMax= 3.15D-03  0.00D+00 EMaxC= 1.00D-01 BMatC= 4.06D-03 BMatP= 4.06D-03
 IDIUse=3 WtCom= 9.68D-01 WtEn= 3.15D-02
 Coeff-Com:  0.100D+01
 Coeff-En:   0.100D+01
 Coeff:      0.100D+01
 Gap=     0.779 Goal=   None    Shift=    0.000
 GapD=    0.779 DampG=2.000 DampE=1.000 DampFc=2.0000 IDamp=-1.
 RMSDP=2.02D-04 MaxDP=4.52D-03              OVMax= 2.20D-02

 Cycle   2  Pass 0  IDiag  1:
 RMSU=  2.02D-04    CP:  1.00D+00
 E= -309.962663269907     Delta-E=       -0.003759442780 Rises=F Damp=F
 DIIS: error= 5.59D-04 at cycle   2 NSaved=   2.
 NSaved= 2 IEnMin= 2 EnMin= -309.962663269907     IErMin= 2 ErrMin= 5.59D-04
 ErrMax= 5.59D-04  0.00D+00 EMaxC= 1.00D-01 BMatC= 1.97D-04 BMatP= 4.06D-03
 IDIUse=3 WtCom= 9.94D-01 WtEn= 5.59D-03
 Coeff-Com:  0.524D-01 0.948D+00
 Coeff-En:   0.000D+00 0.100D+01
 Coeff:      0.521D-01 0.948D+00
 Gap=     0.297 Goal=   None    Shift=    0.000
 RMSDP=6.29D-05 MaxDP=1.54D-03 DE=-3.76D-03 OVMax= 4.83D-03

 Cycle   3  Pass 0  IDiag  1:
 RMSU=  6.28D-05    CP:  1.00D+00  9.96D-01
 E= -309.962659044575     Delta-E=        0.000004225332 Rises=F Damp=F
 DIIS: error= 7.53D-04 at cycle   3 NSaved=   3.
 NSaved= 3 IEnMin= 2 EnMin= -309.962663269907     IErMin= 2 ErrMin= 5.59D-04
 ErrMax= 7.53D-04  0.00D+00 EMaxC= 1.00D-01 BMatC= 2.09D-04 BMatP= 1.97D-04
 IDIUse=3 WtCom= 9.92D-01 WtEn= 7.53D-03
 Coeff-Com: -0.103D-01 0.511D+00 0.499D+00
 Coeff-En:   0.000D+00 0.505D+00 0.495D+00
 Coeff:     -0.102D-01 0.511D+00 0.499D+00
[...]
   zx         0.333970D+01      0.494892D+00      0.550642D+00
   zy        -0.190167D+01     -0.281799D+00     -0.313543D+00
   zz         0.613066D+02      0.908470D+01      0.101081D+02

 ----------------------------------------------------------------------
 Unable to Open any file for archive entry.
 1\1\GINC-MEDIAWIKI\Freq\RB3LYP\CC-pVTZ\C6H10O1\SAURABH\25-Mar-2022\0\\
 #P Geom=AllCheck Guess=TCheck SCRF=Check GenChk RB3LYP/CC-pVTZ Freq\\M
 ol_07\\0,1\C,0.0327051124,0.0135106348,-0.0450210217\C,1.0155954387,-1
 .1389875987,-0.0932504163\C,2.4705036084,-0.7111777042,0.1481288157\C,
 2.8163863575,0.5935520077,-0.5721037189\C,1.9567354071,1.7496416282,-0
 .0500039795\C,0.4865213119,1.4120445109,-0.0309146824\H,-0.1613367856,
 2.1584540658,0.4225955288\O,-0.0498107673,0.8322178833,-1.2254290327\H
 ,2.1111411182,2.6490384464,-0.6518345063\H,2.2560862702,2.0030024967,0
 .9725906567\H,2.6548179742,0.4767734485,-1.6456159474\H,3.871842688,0.
 833598286,-0.4330001357\H,3.1443947333,-1.5109724113,-0.1640055069\H,2
 .6314764398,-0.5723242266,1.2219848826\H,0.9197535617,-1.6154288259,-1
 .0726316857\H,0.7204720779,-1.8877383514,0.6449996358\H,-0.9410045462,
 -0.2098122902,0.382115114\\Version=ES64L-G16RevC.01\State=1-A\HF=-309.
 9632809\RMSD=1.312e-09\RMSF=1.803e-05\ZeroPoint=0.1511365\Thermal=0.15
 71305\ETot=-309.8061504\HTot=-309.8052063\GTot=-309.8417169\Dipole=0.3
 325142,-0.1200938,0.663015\DipoleDeriv=0.3188805,-0.1040191,-0.033572,
 -0.042213,0.3085664,-0.0852329,-0.0553041,-0.1466598,0.2825255,0.00403
 09,0.0338108,0.009916,0.0457017,0.0556046,0.0212409,0.024288,-0.032895
 2,0.1587377,0.1104599,-0.0158695,0.0123269,-0.0181099,0.0609391,0.0309
 81,0.026484,0.0088033,0.152164,0.0974955,-0.0036478,0.0245183,-0.00649
 04,0.0604323,0.0092123,-0.0029195,0.0043542,0.0948904,-0.0227507,0.027
 4535,0.001018,0.0010429,0.0696438,-0.0520616,0.051848,-0.0064305,0.165
 4509,0.401,0.0351984,0.0447637,0.0030054,0.2779117,0.0792567,0.0712642
 ,0.132549,0.3184086,-0.0836508,0.0831834,0.0564501,0.0609994,-0.088584
 2,-0.0942697,0.026942,-0.0739691,0.0184244,-0.499998,0.0209548,-0.1410
 136,0.0091091,-0.4603211,0.0423289,-0.191616,0.0799206,-0.7584425,0.00
 8562,-0.0281116,0.0007644,-0.0238987,-0.133994,0.0726349,0.0390642,0.1
 179865,0.0052046,-0.0024458,-0.02471,-0.0401823,0.006845,0.0321952,-0.
 0276017,-0.0446855,-0.0852476,-0.139923,0.0663033,0.0077588,-0.043638,
 0.0126382,-0.0023633,-0.0221228,0.0083234,-0.0128334,-0.1325185,-0.188
 8622,-0.0513173,0.0051353,-0.0507058,0.0057294,0.0016258,-0.0252482,-0
 .0025757,0.060698,-0.070518,0.103833,0.0190462,0.1063979,-0.1059685,-0
 .0239067,0.045406,-0.0437816,0.0449974,0.0070216,-0.0259729,-0.0174257
 ,-0.0364475,0.0247976,-0.0436443,-0.0528768,0.0026072,-0.175594,0.0111
 054,0.0260146,-0.0269631,-0.0089782,-0.008332,-0.0388823,-0.0350858,-0
 .1138783,-0.0915444,-0.0068554,-0.0532206,0.0391394,-0.0421458,-0.0701
 405,0.0838903,0.0487306,0.1312205,-0.0303828,-0.1497783,-0.0313384,0.0
 897163,-0.0167503,-0.0261165,0.0465511,0.0653853,0.04083,0.0269038\Pol
 ar=70.2454731,1.5219479,74.7831459,-0.8972649,-0.3059063,59.6817832\Qu
 adrupole=-0.2941667,1.5643901,-1.2702234,0.7016157,-2.1587444,0.761902
 7\PG=C01 [X(C6H10O1)]\NImag=0\\0.57739302,0.03165440,0.56822013,-0.120
 74105,-0.06586740,0.30556667,-0.13687253,0.05338325,0.01188905,0.44882
 656,0.05690640,-0.13915654,-0.00760190,0.02227512,0.52293460,0.0107664
 2,-0.01589514,-0.07211506,-0.01631107,-0.01889559,0.57671559,-0.027545
 62,0.00207722,-0.00084366,-0.16051692,-0.02585914,-0.01837033,0.483719
 19,0.02484060,0.01135999,0.00264803,-0.02448002,-0.08923924,-0.0028984
 6,-0.06194737,0.51416993,0.00399146,0.00067744,-0.00039336,-0.01834295
 ,-0.00545656,-0.08299320,-0.00577596,0.04231566,0.55243738,0.00179238,
 0.00093299,0.00175234,-0.01027994,-0.03010496,0.01776257,-0.08556852,-
 0.01747070,0.00900949,0.56829387,0.00029595,-0.00012336,-0.00003274,-0
 .01016064,-0.00884324,0.00445666,-0.01793317,-0.14809312,0.04157214,0.
 03356639,0.43682043,0.00030001,-0.00054612,0.00182719,0.00254825,-0.00
 369921,0.00346214,0.01034189,0.03871973,-0.10542092,0.03066879,0.01505
 372,0.55649258,-0.00392072,-0.00723802,-0.00371560,-0.00108406,0.00008
 707,-0.00055433,0.00613741,0.00018575,-0.00453650,-0.10913134,0.036874
 03,0.01835300,0.46079542,-0.02941108,-0.00481979,0.00034648,0.00118228
 ,0.00216793,0.00041175,0.01737517,-0.03213896,-0.00747483,0.03761947,-
 0.13336943,-0.02517582,0.02426145,0.53215107,0.01531722,0.00270210,-0.
 00595512,-0.00053323,-0.00203799,0.00032983,-0.01042547,0.01250779,0.0
 0626802,0.01887119,-0.02754054,-0.09218428,0.01458669,-0.02580535,0.56
 585593,-0.07941676,-0.07172635,0.02247792,0.01214494,0.01656995,0.0125
 9892,0.00171859,-0.00143970,0.00001667,-0.02828721,0.00449114,0.003021
 12,-0.19481223,-0.02094637,0.01845283,0.54981550,-0.05752426,-0.253044
 50,0.01570185,-0.00245799,-0.02031759,-0.00785491,-0.00161984,0.001381
 38,0.00049894,0.02656885,0.01019181,0.00044683,-0.01867263,-0.09088584
 ,0.00433122,-0.00789738,0.60138747,0.00646322,-0.03518829,0.00927375,-
 0.00204706,0.00318584,-0.00708553,-0.00011430,-0.00007064,0.00129967,0
 .01323778,0.00365707,0.00057481,0.01346994,-0.00189738,-0.07288294,-0.
 05383417,0.13887627,0.32194058,0.00248458,-0.00621425,-0.00449571,-0.0
 0044928,-0.00057749,-0.00106985,-0.00003563,-0.00068268,0.00025113,-0.
 00474634,-0.00379904,-0.00099950,-0.01470034,0.02225639,0.01156113,-0.
 15696649,0.11432823,0.06664138,0.16186789,0.01598236,-0.01425994,-0.01
 246709,-0.00213335,-0.00086974,-0.00286486,-0.00038520,0.00006619,-0.0
 0000248,-0.00174639,-0.00050546,-0.00013190,-0.00626779,0.00699937,0.0
 0405937,0.11223225,-0.17143678,-0.07137847,-0.11416900,0.18432980,-0.0
 1294708,0.00825533,0.00088746,0.00159637,0.00105819,0.00194697,0.00012
 756,-0.00020440,0.00003982,-0.00021795,0.00018835,0.00091935,0.0005100
 2,0.00002781,0.00285410,0.06696893,-0.06599036,-0.08119751,-0.06749372
 ,0.08689867,0.09321309,-0.05682965,0.02101725,-0.00503656,0.00169353,0
 .00389196,-0.01998696,0.00048930,0.00012529,0.00017793,0.00110663,-0.0
 0047829,0.00103827,-0.01003636,-0.00562860,-0.04075642,-0.07850298,-0.
 01955768,-0.03839134,0.01066844,-0.00607882,0.01156831,0.12332647,0.00
 875135,-0.07580126,0.05424177,0.00379358,-0.01758991,0.03339650,-0.001
 30933,-0.00111944,-0.00046102,0.00121323,-0.00046119,0.00041935,-0.008
 98699,-0.00252286,-0.01751529,-0.00878915,-0.05532333,-0.04156881,-0.0
 1195457,-0.00511646,-0.03006632,0.01612614,0.16402385,0.00902022,0.100
 99223,-0.16057579,-0.00261830,0.00498169,-0.00020928,-0.00020215,0.001
 68028,0.00023085,0.00071601,-0.00011712,-0.00138794,-0.00782861,-0.004
 66305,-0.00554808,-0.05255104,-0.08568071,-0.16831258,-0.00574958,-0.0
 0585978,-0.01897581,0.06443268,-0.01992572,0.36192807,-0.00583399,0.00
 088192,0.00302837,-0.00023678,0.00051599,-0.00003889,-0.00250481,0.002
 60050,0.00207380,0.00340464,0.01556741,-0.01161860,-0.05221382,-0.0280
 1868,0.01943137,-0.00807268,-0.03238284,0.01924684,0.00075007,0.000818
 54,-0.00022533,0.00339374,0.00280655,-0.00166707,0.05887955,-0.0010373
 8,0.00104038,0.00131102,0.00027110,0.00063067,0.00006685,0.00419370,-0
 .00229180,-0.00302160,-0.00343932,-0.02040642,0.01350202,-0.02751903,-
 0.21474390,0.11481382,-0.00367828,-0.00717291,0.00403197,-0.00060256,0
 .00039820,-0.00020042,0.00042198,0.00053351,-0.00101100,0.03083615,0.2
 3550898,-0.00091206,-0.00221400,-0.00018496,-0.00004219,0.00020240,0.0
 0019262,0.00159371,-0.00150797,-0.00072863,-0.00214490,-0.01174384,0.0
 0677649,0.01975076,0.11652328,-0.12726730,-0.00010117,-0.00019022,-0.0
 0040620,0.00043592,0.00002001,-0.00014819,0.00125129,0.00061247,0.0021
 2431,-0.02330288,-0.12632669,0.13545075,0.00117385,0.00021614,-0.00125
 158,-0.00044144,-0.00012280,0.00021198,0.00013505,-0.00103099,0.000046
 34,0.00426069,0.00560262,0.02004844,-0.06693986,-0.01585617,-0.0644683
 8,-0.00671062,-0.00673758,-0.03214664,0.00071665,0.00097481,0.00088303
 ,-0.00796182,-0.00313882,0.00014136,0.00111701,0.00157865,0.00446203,0
 .07532706,0.00083236,0.00051131,-0.00071276,0.00002824,-0.00025755,0.0
 0005860,-0.00072535,0.00129874,-0.00155544,-0.00622969,-0.00668347,-0.
 02370300,-0.01530319,-0.05939027,-0.04938337,-0.00253903,-0.00320579,-
 0.00800586,-0.00001539,0.00025686,0.00026741,-0.00263026,-0.00002603,0
 .00010060,0.00814246,0.00620503,0.02450127,0.01596500,0.06335489,-0.00
 081019,-0.00044356,-0.00039471,0.00003219,0.00004258,0.00007215,-0.000
 15684,0.00071554,0.00061554,-0.00168224,-0.00293702,-0.01179409,-0.065
 03242,-0.05010958,-0.26229445,0.00025245,-0.00006877,-0.00093259,-0.00
 078110,0.00001183,0.00034380,0.00040196,0.00063274,0.00232446,-0.00522
 813,-0.00328958,-0.01776394,0.07091760,0.05790548,0.28766712,-0.000214
 80,-0.00008681,0.00058232,0.00068713,0.00060672,0.00076124,0.00071628,
 0.00059286,0.00804550,-0.05600037,-0.00530821,-0.04096416,0.00302930,0
 .00257742,0.01905261,0.00078494,-0.00013027,0.00118232,-0.00002144,0.0
 0000806,-0.00031328,-0.00079058,0.00001481,-0.00108017,0.00085014,-0.0
 0062094,-0.00051912,-0.00178597,0.00259143,0.00160665,0.05683356,-0.00
 016942,-0.00024657,-0.00008870,0.00062919,0.00162038,-0.00031949,0.004
 45735,0.00227397,0.03084921,-0.00523682,-0.05071111,-0.02667913,-0.003
 73670,-0.00512895,-0.02662820,-0.00105043,-0.00005723,-0.00041101,0.00
 002736,-0.00003267,0.00012194,0.00003706,0.00054916,0.00087358,-0.0007
 4709,0.00080319,0.00022698,0.00382027,-0.00333739,-0.00185292,0.004156
 18,0.05960578,0.00024116,0.00029242,-0.00070935,-0.00020767,-0.0006736
 0,0.00071818,-0.00222241,0.00004888,-0.01657470,-0.03783869,-0.0275495
 9,-0.29256906,-0.00084991,-0.00239741,-0.01097751,-0.00107189,-0.00056
 934,-0.00114653,0.00018670,0.00008532,0.00013212,-0.00108294,0.0006020
 1,0.00177497,0.00013088,-0.00027924,0.00087957,0.00124999,-0.00150557,
 0.00067385,0.04223577,0.02890332,0.32042731,0.00077564,0.00016131,-0.0
 0009112,0.00120941,-0.00115391,0.00131024,-0.00565845,-0.00141789,-0.0
 0110358,-0.28631263,-0.05429051,-0.03476306,-0.01781935,-0.00361740,-0
 .00228754,-0.00015372,0.00382561,0.00135435,-0.00104950,-0.00040606,-0
 .00004394,0.00020641,0.00014890,0.00013724,0.00026254,0.00031550,-0.00
 039911,0.00091813,-0.00036087,0.00051303,-0.00472972,-0.00103944,-0.00
 175884,0.31179280,0.00045471,-0.00057949,0.00003071,0.00034394,-0.0047
 2515,0.00447188,-0.02903853,-0.00757072,-0.00528442,-0.05442702,-0.058
 58607,-0.00742713,0.02690502,0.00537629,0.00301345,0.00170529,-0.00486
 224,-0.00237908,0.00152541,0.00046755,-0.00008876,-0.00032525,0.000516
 51,0.00007668,-0.00058466,0.00068076,0.00065313,-0.00069103,0.00121574
 ,0.00018998,-0.00320818,-0.00126581,-0.00060934,0.05831016,0.06758320,
 -0.00033701,0.00030148,-0.00064707,0.00026998,0.00243286,-0.00121543,0
 .01662197,0.00398394,0.00185953,-0.03681771,-0.00757239,-0.05378165,0.
 01383484,0.00167735,0.00024400,0.00052570,-0.00288715,-0.00122822,0.00
 075064,0.00017322,-0.00002446,-0.00072304,0.00048309,0.00117766,-0.000
 55782,0.00017471,0.00013218,0.00005374,0.00067758,0.00058605,-0.031109
 26,-0.00697300,-0.00375464,0.03685999,0.00847035,0.05514904,-0.0047914
 9,-0.00432881,0.00020748,-0.02106757,0.02339428,0.00793334,-0.14276488
 ,0.11482261,0.04653373,0.00537918,-0.00693368,-0.00337373,-0.00003120,
 -0.00172325,0.00104483,0.00018392,-0.00077488,0.00011195,0.00009464,0.
 00010379,0.00002888,-0.00006044,0.00066298,-0.00077517,0.00043155,-0.0
 0063134,-0.00000576,-0.00007529,0.00016539,0.00012508,-0.00001937,0.00
 047054,-0.00022366,0.00074826,0.00031623,-0.00043391,0.15820645,-0.001
 94287,-0.00040275,-0.00012346,-0.00699367,0.00806276,0.00250374,0.1152
 1409,-0.18374591,-0.05552278,0.01683018,-0.02107365,-0.00972776,-0.002
 41293,-0.00384891,0.00450281,-0.00107364,-0.00006725,-0.00003084,0.000
 12089,0.00007744,-0.00003633,0.00019350,0.00046840,0.00001172,0.001260
 96,-0.00143687,-0.00054556,-0.00019285,0.00026780,-0.00000966,0.000181
 07,0.00101885,0.00031334,-0.00044784,0.00085503,-0.00069417,-0.1235327
 9,0.20156665,-0.00180388,-0.00068887,0.00077946,-0.00563870,0.00476666
 ,0.00078947,0.04836910,-0.05711322,-0.07222276,-0.01090716,0.01328675,
 0.00503729,0.00120119,0.00225734,-0.00149817,0.00005964,0.00023209,-0.
 00007944,-0.00002982,-0.00003250,-0.00001764,0.00036722,-0.00012064,0.
 00014638,-0.00032582,0.00070589,0.00052264,-0.00000404,0.00038253,0.00
 028648,-0.00045419,-0.00069530,0.00050222,-0.00007780,-0.00092280,0.00
 056785,-0.05067923,0.06068917,0.07439592,0.00110411,-0.00149149,-0.000
 35359,-0.00745793,-0.00691163,-0.03200179,-0.05323716,-0.00185228,-0.0
 3220926,0.00103537,0.00079177,0.00842026,0.00013854,0.00050183,-0.0007
 9357,-0.00018415,0.00041146,-0.00002322,0.00005325,0.00012222,-0.00001
 516,0.00039538,0.00032659,0.00054969,-0.00006814,0.00008404,0.00001346
 ,0.00017032,0.00005118,-0.00017896,0.00049154,-0.00170752,0.00052962,0
 .00018796,0.00049997,0.00011420,0.00283530,0.00204008,0.01988135,0.058
 72145,0.00038432,0.00002031,0.00059076,-0.00300241,-0.00310591,-0.0097
 1163,-0.00193410,-0.05262291,-0.03327556,0.00386521,0.00154299,0.03065
 226,0.00010215,0.00187808,0.00095986,0.00002782,-0.00002137,0.00016687
 ,0.00006807,0.00010162,-0.00003976,-0.00001949,-0.00002138,-0.00033391
 ,-0.00030645,0.00034776,-0.00023818,-0.00009027,-0.00021435,-0.0006006
 4,-0.00130428,-0.00492016,0.00299548,0.00006891,0.00112200,-0.00078744
 ,-0.00347649,-0.00317411,-0.02360951,0.00814732,0.05837495,0.00002095,
 -0.00030922,-0.00002491,-0.00098797,-0.00118715,-0.00454785,-0.0338767
 8,-0.03316070,-0.28461163,-0.00150526,-0.00013920,-0.01865094,0.000198
 75,-0.00126548,0.00078165,-0.00045721,0.00037169,-0.00006405,-0.000101
 56,0.00013522,-0.00006058,0.00011823,0.00004085,0.00043209,0.00020155,
 -0.00001279,0.00042140,-0.00035523,0.00087203,0.00058779,0.00141897,0.
 00322117,0.00001396,0.00050237,0.00005181,0.00046794,-0.00050637,-0.00
 204667,-0.01002306,0.03667993,0.03366519,0.31251187,0.00117454,0.01299
 557,0.01888228,-0.04737731,-0.00865876,-0.01573724,-0.00578414,-0.0130
 9695,-0.03072501,0.00089808,0.00132620,-0.00076409,-0.00006696,-0.0002
 2739,-0.00009287,-0.00263037,0.00072726,0.00220190,0.00030430,0.000848
 97,-0.00051326,0.00150418,-0.00334883,-0.00115216,0.00016996,-0.000017
 69,0.00002818,-0.00000683,0.00010377,0.00010384,0.00011940,-0.00026167
 ,0.00073815,0.00015723,0.00014969,0.00022958,0.00173544,0.00043903,0.0
 0004284,-0.00587525,-0.00257656,-0.00090475,0.05609816,0.00074914,-0.0
 1877655,-0.02299735,-0.01066810,-0.09197597,-0.09666241,-0.00086529,-0
 .00372316,-0.00818539,0.00016610,0.00024844,-0.00091827,0.00040923,0.0
 0020428,0.00002097,0.00352114,-0.00182818,-0.00317919,-0.00031882,-0.0
 0113222,0.00094460,-0.00129482,0.00491610,0.00153327,-0.00009491,0.000
 00612,0.00005888,-0.00000117,0.00001680,0.00006532,-0.00015725,-0.0002
 2616,0.00032787,0.00001835,0.00008621,0.00024814,0.00046511,0.00096592
 ,0.00061218,-0.00132553,0.00033101,-0.00002994,0.00719490,0.10091871,0
 .00079176,-0.00094160,-0.00186034,-0.01735354,-0.09807427,-0.25172287,
 -0.00162469,-0.00109020,-0.00446428,0.00014203,-0.00004813,0.00045055,
 -0.00008875,0.00008064,0.00009940,0.00044804,0.00206092,-0.00049104,0.
 00007428,0.00027621,0.00027511,-0.00021908,-0.00023883,0.00265392,-0.0
 0002262,-0.00003699,0.00002574,-0.00003879,0.00008610,0.00001490,-0.00
 011286,-0.00040753,0.00020271,-0.00002621,-0.00009171,0.00009184,-0.00
 048830,0.00040134,0.00083843,-0.00104135,-0.00016521,0.00143004,0.0203
 4728,0.10789692,0.27285676,0.00568987,0.01246550,-0.01527312,-0.065227
 17,-0.04544066,0.04792787,-0.00857515,-0.02326194,0.02131139,-0.006407
 49,0.00010404,-0.00200407,-0.00011479,0.00053271,0.00028714,-0.0010151
 5,0.00024178,-0.00132357,0.00017011,0.00010151,0.00009270,-0.00201534,
 0.00574728,-0.00036622,0.00010738,-0.00008755,-0.00005076,0.00015296,-
 0.00005636,-0.00002714,0.00006553,0.00035663,-0.00009616,-0.00053143,-
 0.00189140,0.00074508,0.00028886,0.00068728,0.00027048,0.00174385,0.00
 010538,-0.00028451,0.00028931,0.00159109,-0.00105735,0.07466322,-0.008
 63520,-0.01539094,0.01796577,-0.04352784,-0.16529593,0.11682091,-0.003
 14201,-0.00641984,0.00559936,-0.00211663,0.00058612,-0.00083405,-0.000
 03346,0.00049430,-0.00011089,0.00134312,-0.00086808,0.00136515,0.00005
 378,-0.00016750,0.00007022,0.00258735,-0.00429943,-0.00098530,0.000026
 83,0.00003005,0.00003070,-0.00015116,-0.00007959,-0.00007270,0.0000763
 8,0.00001692,0.00006025,-0.00006159,-0.00052559,0.00037284,-0.00033227
 ,0.00008738,-0.00011456,0.00027823,0.00032338,-0.00033886,0.00417033,0
 .01065547,-0.00895839,0.04916181,0.17948144,0.00067865,-0.00277490,0.0
 0011030,0.04646583,0.11937729,-0.16678482,-0.00277801,-0.00595919,0.00
 417563,-0.00112934,-0.00058036,0.00054039,-0.00003735,0.00005973,0.000
 00310,-0.00042474,-0.00059924,-0.00046656,0.00006637,0.00004985,0.0001
 7712,-0.00072663,0.00098575,0.00067739,0.00001673,0.00002499,-0.000022
 39,0.00000325,0.00000357,0.00001101,-0.00020029,-0.00025232,0.00027539
 ,-0.00017740,-0.00016285,0.00028830,0.00047270,0.00020501,-0.00008505,
 0.00033374,-0.00024858,0.00132891,0.00777141,0.02021163,-0.02029649,-0
 .04976049,-0.13053284,0.17921982,-0.27616243,-0.04469982,0.09298223,-0
 .01355063,-0.00541815,0.00479786,-0.00072454,0.00351290,0.00123583,0.0
 0056300,0.00028397,-0.00025281,0.00077033,-0.00087777,0.00075248,-0.00
 789553,0.00165215,0.00397060,0.00085912,-0.00000590,-0.00000609,0.0134
 1310,-0.00206373,-0.00100672,-0.00043637,-0.00006703,-0.00005741,-0.00
 004990,-0.00001969,-0.00005576,-0.00001559,-0.00000552,0.00003992,-0.0
 0000358,-0.00004435,-0.00002696,-0.00109336,-0.00037049,-0.00027118,-0
 .00005444,-0.00005912,-0.00016113,-0.00070974,0.00061083,0.00027015,0.
 00071543,0.00030231,-0.00057445,0.28437511,-0.04213139,-0.05855044,0.0
 1705501,0.02151731,0.00596045,-0.00708442,0.00144179,-0.00358510,-0.00
 127266,0.00000911,-0.00053326,0.00004847,0.00134601,-0.00242244,0.0021
 1022,-0.02075040,-0.00386958,0.01282636,-0.00004633,0.00082372,-0.0012
 0617,-0.00838730,-0.00872627,0.00832656,-0.00132268,-0.00013276,-0.000
 06265,-0.00014465,0.00006726,-0.00017902,0.00001100,0.00003779,-0.0000
 4479,-0.00005322,0.00021178,-0.00008141,0.00133256,0.00037920,0.000364
 79,0.00003375,0.00003810,0.00013204,0.00023214,-0.00068684,-0.00074928
 ,-0.00035712,0.00137183,0.00019245,0.04726942,0.06961657,0.08996020,0.
 01164810,-0.07558415,0.00128101,0.00157875,0.00244709,-0.00066364,-0.0
 0061507,0.00048303,0.00008305,0.00004623,-0.00029192,0.00073829,-0.002
 59549,0.00217183,-0.01638200,0.00132090,0.00120438,0.00075327,0.001027
 37,-0.00036473,0.02756708,0.01848211,-0.01846061,-0.00114238,-0.000452
 96,-0.00000410,0.00024690,0.00001083,-0.00000339,-0.00013204,0.0001113
 9,0.00013150,0.00005138,0.00000812,0.00008708,0.00002813,0.00011010,0.
 00005997,0.00009467,-0.00002002,0.00000738,-0.00045609,0.00005276,-0.0
 0010439,-0.00039126,-0.00033762,0.00084796,-0.10163657,-0.03037550,0.0
 8737307\\0.00003226,0.00004229,0.00002514,0.00001547,-0.00001677,-0.00
 001735,0.00001532,-0.00000007,0.00000149,0.00000757,-0.00000851,-0.000
 02540,0.00001099,-0.00001352,0.00000437,-0.00006941,0.00000355,-0.0000
 1981,0.00001399,-0.00001053,0.00003126,0.00001959,-0.00001749,-0.00002
 657,-0.00000946,-0.00001566,0.00001508,-0.00000298,-0.00000678,-0.0000
 0475,0.00000512,0.00000433,0.00001821,-0.00002193,-0.00000326,-0.00001
 066,-0.00001200,0.00001598,0.00001223,0.00000104,0.00000165,-0.0000122
 1,-0.00000036,0.00000924,0.00002038,0.00000081,0.00000875,-0.00000825,
 -0.00000602,0.00000679,-0.00000316\\\@
 The archive entry for this job was punched.


 THERE ARE TWO THINGS THAT EVERYBODY THINKS THEY CAN DO BETTER THAN
 ANYONE ELSE - PUNCH THE FIRE, AND EDIT A DAILY PAPER.
 -- UNCLE ESEK, "CENTURY MAGAZINE", 1885
 Job cpu time:       0 days  1 hours 15 minutes 18.3 seconds.
 Elapsed time:       0 days  0 hours  9 minutes 25.2 seconds.
 File lengths (MBytes):  RWF=    162 Int=      0 D2E=      0 Chk=     11 Scr=      1
 Normal termination of Gaussian 16 at Fri Mar 25 20:20:26 2022.
