 Entering Gaussian System, Link 0=g16
 Input=Mol_03.com
 Output=Mol_03.log
 Initial command:
 /home/saurabh/gaussian/g16/l1.exe "/home/saurabh/gaussian/gauss_scr/Gau-31619.inp" -scrdir="/home/saurabh/gaussian/gauss_scr/"
 Entering Link 1 = /home/saurabh/gaussian/g16/l1.exe PID=     31620.
  
 Copyright (c) 1988-2019, Gaussian, Inc.  All Rights Reserved.
  
 This is part of the Gaussian(R) 16 program.  It is based on
 the Gaussian(R) 09 system (copyright 2009, Gaussian, Inc.),
 the Gaussian(R) 03 system (copyright 2003, Gaussian, Inc.),
 the Gaussian(R) 98 system (copyright 1998, Gaussian, Inc.),
 the Gaussian(R) 94 system (copyright 1995, Gaussian, Inc.),
 the Gaussian 92(TM) system (copyright 1992, Gaussian, Inc.),
 the Gaussian 90(TM) system (copyright 1990, Gaussian, Inc.),
 the Gaussian 88(TM) system (copyright 1988, Gaussian, Inc.),
 the Gaussian 86(TM) system (copyright 1986, Carnegie Mellon
 University), and the Gaussian 82(TM) system (copyright 1983,
 Carnegie Mellon University). Gaussian is a federally registered
 trademark of Gaussian, Inc.
  
 This software contains proprietary and confidential information,
 including trade secrets, belonging to Gaussian, Inc.
  
 This software is provided under written license and may be
 used, copied, transmitted, or stored only in accord with that
 written license.
  
 The following legend is applicable only to US Government
 contracts under FAR:
  
                    RESTRICTED RIGHTS LEGEND
  
 Use, reproduction and disclosure by the US Government is
 subject to restrictions as set forth in subparagraphs (a)
 and (c) of the Commercial Computer Software - Restricted
 Rights clause in FAR 52.227-19.
  
 Gaussian, Inc.
 340 Quinnipiac St., Bldg. 40, Wallingford CT 06492
  
  
 ---------------------------------------------------------------
 Warning -- This program may not be used in any manner that
 competes with the business of Gaussian, Inc. or will provide
 assistance to any competitor of Gaussian, Inc.  The licensee
 of this program is prohibited from giving any competitor of
 Gaussian, Inc. access to this program.  By using this program,
 the user acknowledges that Gaussian, Inc. is engaged in the
 business of creating and licensing software in the field of
 computational chemistry and represents and warrants to the
 licensee that it is not a competitor of Gaussian, Inc. and that
 it will not use this program in any manner prohibited above.
 ---------------------------------------------------------------
  

 Cite this work as:
 Gaussian 16, Revision C.01,
 M. J. Frisch, G. W. Trucks, H. B. Schlegel, G. E. Scuseria, 
 M. A. Robb, J. R. Cheeseman, G. Scalmani, V. Barone, 
 G. A. Petersson, H. Nakatsuji, X. Li, M. Caricato, A. V. Marenich, 
 J. Bloino, B. G. Janesko, R. Gomperts, B. Mennucci, H. P. Hratchian, 
 J. V. Ortiz, A. F. Izmaylov, J. L. Sonnenberg, D. Williams-Young, 
 F. Ding, F. Lipparini, F. Egidi, J. Goings, B. Peng, A. Petrone, 
 T. Henderson, D. Ranasinghe, V. G. Zakrzewski, J. Gao, N. Rega, 
 G. Zheng, W. Liang, M. Hada, M. Ehara, K. Toyota, R. Fukuda, 
 J. Hasegawa, M. Ishida, T. Nakajima, Y. Honda, O. Kitao, H. Nakai, 
 T. Vreven, K. Throssell, J. A. Montgomery, Jr., J. E. Peralta, 
 F. Ogliaro, M. J. Bearpark, J. J. Heyd, E. N. Brothers, K. N. Kudin, 
 V. N. Staroverov, T. A. Keith, R. Kobayashi, J. Normand, 
 K. Raghavachari, A. P. Rendell, J. C. Burant, S. S. Iyengar, 
 J. Tomasi, M. Cossi, J. M. Millam, M. Klene, C. Adamo, R. Cammi, 
 J. W. Ochterski, R. L. Martin, K. Morokuma, O. Farkas, 
 J. B. Foresman, and D. J. Fox, Gaussian, Inc., Wallingford CT, 2019.
 
 ******************************************
 Gaussian 16:  ES64L-G16RevC.01  3-Jul-2019
                25-Mar-2022 
 ******************************************
 %mem=8gb
 %nproc=8
 Will use up to    8 processors via shared memory.
 %chk=Mol_03.chk
 ----------------------------------------------------------------------
 #p B3LYP/cc-pVTZ scf(verytight, maxcycles=1000) opt(calcfc, maxcyc=100
 0) freq(hpmodes) int(grid=ultrafine)
 ----------------------------------------------------------------------
 1/6=1000,10=4,18=20,19=15,26=4,38=1/1,3;
 2/9=110,12=2,17=6,18=5,40=1/2;
 3/5=16,6=1,11=2,25=1,30=1,71=2,74=-5,75=-5,140=1/1,2,3;
 4//1;
 5/5=2,7=1000,17=3,38=5/2;
 8/6=4,10=90,11=11/1;
 11/6=1,8=1,9=11,15=111,16=1/1,2,10;
 10/6=1,13=1/2;
 6/7=2,8=2,9=2,10=2,28=1/1;
 7/10=1,25=1/1,2,3,16;
 1/6=1000,10=4,18=20,19=15,26=4/3(2);
 2/9=110/2;
 99//99;
 2/9=110/2;
 3/5=16,6=1,11=2,25=1,30=1,71=1,74=-5,75=-5/1,2,3;
 4/5=5,16=3,69=1/1;
 5/5=2,7=1000,17=3,38=5/2;
 7//1,2,3,16;
 1/6=1000,18=20,19=15,26=4/3(-5);
 2/9=110/2;
 6/7=2,8=2,9=2,10=2,19=2,28=1/1;
 99/9=1/99;
 Leave Link    1 at Fri Mar 25 17:00:28 2022, MaxMem=  1073741824 cpu:               0.5 elap:               0.1
 (Enter /home/saurabh/gaussian/g16/l101.exe)
 ------
 Mol_03
 ------
 Symbolic Z-matrix:
 Charge =  0 Multiplicity = 2
 C                     0.        0.        0. 
 C                     0.93865  -1.14377  -0.40295 
 C                     2.37335  -0.8565    0.05311 
 C                     2.89146   0.46933  -0.50856 
 C                     1.96823   1.63847  -0.12133 
 C                     0.53753   1.32928  -0.39823 
 H                    -0.16313   2.10781  -0.66201 
 H                     2.26839   2.55326  -0.63515 
 H                     2.10939   1.84197   0.95406 
 H                     2.9442    0.40157  -1.5986 
 H                     3.90557   0.66169  -0.15231 
 H                     3.0229   -1.6775   -0.2564 
 H                     2.41052  -0.82863   1.14732 
 H                     0.90815  -1.24251  -1.49069 
 H                     0.57276  -2.07997   0.02086 
 O                    -1.25431  -0.30667  -0.61945 
 O                    -2.23842   0.6461   -0.13515 
 H                    -2.78995   0.06537   0.4058 
 H                    -0.14709  -0.03964   1.09398 
 
 ITRead=  0  0  0  0  0  0  0  0  0  0  0  0  0  0  0  0  0  0  0
 MicOpt= -1 -1 -1 -1 -1 -1 -1 -1 -1 -1 -1 -1 -1 -1 -1 -1 -1 -1 -1
 NAtoms=     19 NQM=       19 NQMF=       0 NMMI=      0 NMMIF=      0
                NMic=       0 NMicF=      0.
                    Isotopes and Nuclear Properties:
 (Nuclear quadrupole moments (NQMom) in fm**2, nuclear magnetic moments (NMagM)
  in nuclear magnetons)

  Atom         1           2           3           4           5           6           7           8           9          10
 IAtWgt=          12          12          12          12          12          12           1           1           1           1
 AtmWgt=  12.0000000  12.0000000  12.0000000  12.0000000  12.0000000  12.0000000   1.0078250   1.0078250   1.0078250   1.0078250
 NucSpn=           0           0           0           0           0           0           1           1           1           1
 AtZEff=  -0.0000000  -0.0000000  -0.0000000  -0.0000000  -0.0000000  -0.0000000  -0.0000000  -0.0000000  -0.0000000  -0.0000000
 NQMom=    0.0000000   0.0000000   0.0000000   0.0000000   0.0000000   0.0000000   0.0000000   0.0000000   0.0000000   0.0000000
 NMagM=    0.0000000   0.0000000   0.0000000   0.0000000   0.0000000   0.0000000   2.7928460   2.7928460   2.7928460   2.7928460
 AtZNuc=   6.0000000   6.0000000   6.0000000   6.0000000   6.0000000   6.0000000   1.0000000   1.0000000   1.0000000   1.0000000

  Atom        11          12          13          14          15          16          17          18          19
 IAtWgt=           1           1           1           1           1          16          16           1           1
 AtmWgt=   1.0078250   1.0078250   1.0078250   1.0078250   1.0078250  15.9949146  15.9949146   1.0078250   1.0078250
 NucSpn=           1           1           1           1           1           0           0           1           1
 AtZEff=  -0.0000000  -0.0000000  -0.0000000  -0.0000000  -0.0000000  -0.0000000  -0.0000000  -0.0000000  -0.0000000
 NQMom=    0.0000000   0.0000000   0.0000000   0.0000000   0.0000000   0.0000000   0.0000000   0.0000000   0.0000000
 NMagM=    2.7928460   2.7928460   2.7928460   2.7928460   2.7928460   0.0000000   0.0000000   2.7928460   2.7928460
 AtZNuc=   1.0000000   1.0000000   1.0000000   1.0000000   1.0000000   8.0000000   8.0000000   1.0000000   1.0000000
 Leave Link  101 at Fri Mar 25 17:00:29 2022, MaxMem=  1073741824 cpu:               1.6 elap:               0.2
 (Enter /home/saurabh/gaussian/g16/l103.exe)

 GradGradGradGradGradGradGradGradGradGradGradGradGradGradGradGradGradGrad
 Berny optimization.
 Initialization pass.
                           ----------------------------
                           !    Initial Parameters    !
                           ! (Angstroms and Degrees)  !
 --------------------------                            --------------------------
 ! Name  Definition              Value          Derivative Info.                !
 --------------------------------------------------------------------------------
 ! R1    R(1,2)                  1.5335         calculate D2E/DX2 analytically  !
 ! R2    R(1,6)                  1.4881         calculate D2E/DX2 analytically  !
 ! R3    R(1,16)                 1.4322         calculate D2E/DX2 analytically  !
 ! R4    R(1,19)                 1.1045         calculate D2E/DX2 analytically  !
 ! R5    R(2,3)                  1.5326         calculate D2E/DX2 analytically  !
 ! R6    R(2,14)                 1.0926         calculate D2E/DX2 analytically  !
 ! R7    R(2,15)                 1.0908         calculate D2E/DX2 analytically  !
 ! R8    R(3,4)                  1.5303         calculate D2E/DX2 analytically  !
 ! R9    R(3,12)                 1.0917         calculate D2E/DX2 analytically  !
 ! R10   R(3,13)                 1.0952         calculate D2E/DX2 analytically  !
 ! R11   R(4,5)                  1.5392         calculate D2E/DX2 analytically  !
 ! R12   R(4,10)                 1.0934         calculate D2E/DX2 analytically  !
 ! R13   R(4,11)                 1.0919         calculate D2E/DX2 analytically  !
 ! R14   R(5,6)                  1.4897         calculate D2E/DX2 analytically  !
 ! R15   R(5,8)                  1.0913         calculate D2E/DX2 analytically  !
 ! R16   R(5,9)                  1.1035         calculate D2E/DX2 analytically  !
 ! R17   R(6,7)                  1.0801         calculate D2E/DX2 analytically  !
 ! R18   R(16,17)                1.4529         calculate D2E/DX2 analytically  !
 ! R19   R(17,18)                0.9665         calculate D2E/DX2 analytically  !
 ! A1    A(2,1,6)              112.0138         calculate D2E/DX2 analytically  !
 ! A2    A(2,1,16)             105.2317         calculate D2E/DX2 analytically  !
 ! A3    A(2,1,19)             108.3606         calculate D2E/DX2 analytically  !
 ! A4    A(6,1,16)             113.072          calculate D2E/DX2 analytically  !
 ! A5    A(6,1,19)             110.1945         calculate D2E/DX2 analytically  !
 ! A6    A(16,1,19)            107.7025         calculate D2E/DX2 analytically  !
 ! A7    A(1,2,3)              110.7933         calculate D2E/DX2 analytically  !
 ! A8    A(1,2,14)             108.173          calculate D2E/DX2 analytically  !
 ! A9    A(1,2,15)             109.4342         calculate D2E/DX2 analytically  !
 ! A10   A(3,2,14)             109.8347         calculate D2E/DX2 analytically  !
 ! A11   A(3,2,15)             111.0541         calculate D2E/DX2 analytically  !
 ! A12   A(14,2,15)            107.4487         calculate D2E/DX2 analytically  !
 ! A13   A(2,3,4)              111.7233         calculate D2E/DX2 analytically  !
 ! A14   A(2,3,12)             109.3694         calculate D2E/DX2 analytically  !
 ! A15   A(2,3,13)             109.5023         calculate D2E/DX2 analytically  !
 ! A16   A(4,3,12)             110.2469         calculate D2E/DX2 analytically  !
 ! A17   A(4,3,13)             109.4612         calculate D2E/DX2 analytically  !
 ! A18   A(12,3,13)            106.3922         calculate D2E/DX2 analytically  !
 ! A19   A(3,4,5)              111.2646         calculate D2E/DX2 analytically  !
 ! A20   A(3,4,10)             109.1807         calculate D2E/DX2 analytically  !
 ! A21   A(3,4,11)             110.3237         calculate D2E/DX2 analytically  !
 ! A22   A(5,4,10)             109.0745         calculate D2E/DX2 analytically  !
 ! A23   A(5,4,11)             109.9477         calculate D2E/DX2 analytically  !
 ! A24   A(10,4,11)            106.9399         calculate D2E/DX2 analytically  !
 ! A25   A(4,5,6)              111.817          calculate D2E/DX2 analytically  !
 ! A26   A(4,5,8)              110.6886         calculate D2E/DX2 analytically  !
 ! A27   A(4,5,9)              107.969          calculate D2E/DX2 analytically  !
 ! A28   A(6,5,8)              110.5253         calculate D2E/DX2 analytically  !
 ! A29   A(6,5,9)              110.0145         calculate D2E/DX2 analytically  !
 ! A30   A(8,5,9)              105.6081         calculate D2E/DX2 analytically  !
 ! A31   A(1,6,5)              118.853          calculate D2E/DX2 analytically  !
 ! A32   A(1,6,7)              118.3525         calculate D2E/DX2 analytically  !
 ! A33   A(5,6,7)              121.2521         calculate D2E/DX2 analytically  !
 ! A34   A(1,16,17)            107.9775         calculate D2E/DX2 analytically  !
 ! A35   A(16,17,18)           100.3153         calculate D2E/DX2 analytically  !
 ! D1    D(6,1,2,3)             49.8363         calculate D2E/DX2 analytically  !
 ! D2    D(6,1,2,14)           -70.6049         calculate D2E/DX2 analytically  !
 ! D3    D(6,1,2,15)           172.6205         calculate D2E/DX2 analytically  !
 ! D4    D(16,1,2,3)           173.0788         calculate D2E/DX2 analytically  !
 ! D5    D(16,1,2,14)           52.6375         calculate D2E/DX2 analytically  !
 ! D6    D(16,1,2,15)          -64.1371         calculate D2E/DX2 analytically  !
 ! D7    D(19,1,2,3)           -71.9339         calculate D2E/DX2 analytically  !
 ! D8    D(19,1,2,14)          167.6249         calculate D2E/DX2 analytically  !
 ! D9    D(19,1,2,15)           50.8503         calculate D2E/DX2 analytically  !
 ! D10   D(2,1,6,5)            -45.8993         calculate D2E/DX2 analytically  !
 ! D11   D(2,1,6,7)            148.0785         calculate D2E/DX2 analytically  !
 ! D12   D(16,1,6,5)          -164.6003         calculate D2E/DX2 analytically  !
 ! D13   D(16,1,6,7)            29.3775         calculate D2E/DX2 analytically  !
 ! D14   D(19,1,6,5)            74.8135         calculate D2E/DX2 analytically  !
 ! D15   D(19,1,6,7)           -91.2088         calculate D2E/DX2 analytically  !
 ! D16   D(2,1,16,17)          172.6564         calculate D2E/DX2 analytically  !
 ! D17   D(6,1,16,17)          -64.7802         calculate D2E/DX2 analytically  !
 ! D18   D(19,1,16,17)          57.214          calculate D2E/DX2 analytically  !
 ! D19   D(1,2,3,4)            -56.9279         calculate D2E/DX2 analytically  !
 ! D20   D(1,2,3,12)          -179.2677         calculate D2E/DX2 analytically  !
 ! D21   D(1,2,3,13)            64.5098         calculate D2E/DX2 analytically  !
 ! D22   D(14,2,3,4)            62.5198         calculate D2E/DX2 analytically  !
 ! D23   D(14,2,3,12)          -59.82           calculate D2E/DX2 analytically  !
 ! D24   D(14,2,3,13)         -176.0424         calculate D2E/DX2 analytically  !
 ! D25   D(15,2,3,4)          -178.7674         calculate D2E/DX2 analytically  !
 ! D26   D(15,2,3,12)           58.8928         calculate D2E/DX2 analytically  !
 ! D27   D(15,2,3,13)          -57.3297         calculate D2E/DX2 analytically  !
 ! D28   D(2,3,4,5)             56.4478         calculate D2E/DX2 analytically  !
 ! D29   D(2,3,4,10)           -63.9938         calculate D2E/DX2 analytically  !
 ! D30   D(2,3,4,11)           178.76           calculate D2E/DX2 analytically  !
 ! D31   D(12,3,4,5)           178.2835         calculate D2E/DX2 analytically  !
 ! D32   D(12,3,4,10)           57.8418         calculate D2E/DX2 analytically  !
 ! D33   D(12,3,4,11)          -59.4043         calculate D2E/DX2 analytically  !
 ! D34   D(13,3,4,5)           -65.0138         calculate D2E/DX2 analytically  !
 ! D35   D(13,3,4,10)          174.5446         calculate D2E/DX2 analytically  !
 ! D36   D(13,3,4,11)           57.2985         calculate D2E/DX2 analytically  !
 ! D37   D(3,4,5,6)            -48.6525         calculate D2E/DX2 analytically  !
 ! D38   D(3,4,5,8)           -172.355          calculate D2E/DX2 analytically  !
 ! D39   D(3,4,5,9)             72.5053         calculate D2E/DX2 analytically  !
 ! D40   D(10,4,5,6)            71.8517         calculate D2E/DX2 analytically  !
 ! D41   D(10,4,5,8)           -51.8507         calculate D2E/DX2 analytically  !
 ! D42   D(10,4,5,9)          -166.9904         calculate D2E/DX2 analytically  !
 ! D43   D(11,4,5,6)          -171.1818         calculate D2E/DX2 analytically  !
 ! D44   D(11,4,5,8)            65.1158         calculate D2E/DX2 analytically  !
 ! D45   D(11,4,5,9)           -50.024          calculate D2E/DX2 analytically  !
 ! D46   D(4,5,6,1)             45.111          calculate D2E/DX2 analytically  !
 ! D47   D(4,5,6,7)           -149.2867         calculate D2E/DX2 analytically  !
 ! D48   D(8,5,6,1)            168.9054         calculate D2E/DX2 analytically  !
 ! D49   D(8,5,6,7)            -25.4924         calculate D2E/DX2 analytically  !
 ! D50   D(9,5,6,1)            -74.8546         calculate D2E/DX2 analytically  !
 ! D51   D(9,5,6,7)             90.7477         calculate D2E/DX2 analytically  !
 ! D52   D(1,16,17,18)        -110.7207         calculate D2E/DX2 analytically  !
 --------------------------------------------------------------------------------
 Trust Radius=3.00D-01 FncErr=1.00D-07 GrdErr=1.00D-06 EigMax=2.50D+02 EigMin=1.00D-04
 Number of steps in this run=    114 maximum allowed number of steps=    114.
 GradGradGradGradGradGradGradGradGradGradGradGradGradGradGradGradGradGrad

 Leave Link  103 at Fri Mar 25 17:00:29 2022, MaxMem=  1073741824 cpu:               0.1 elap:               0.0
 (Enter /home/saurabh/gaussian/g16/l202.exe)
                          Input orientation:                          
 ---------------------------------------------------------------------
 Center     Atomic      Atomic             Coordinates (Angstroms)
 Number     Number       Type             X           Y           Z
 ---------------------------------------------------------------------
      1          6           0        0.000000    0.000000    0.000000
      2          6           0        0.938652   -1.143775   -0.402945
      3          6           0        2.373351   -0.856500    0.053112
      4          6           0        2.891460    0.469329   -0.508557
      5          6           0        1.968233    1.638466   -0.121330
      6          6           0        0.537527    1.329278   -0.398230
      7          1           0       -0.163130    2.107807   -0.662008
      8          1           0        2.268395    2.553264   -0.635149
      9          1           0        2.109391    1.841965    0.954062
     10          1           0        2.944201    0.401574   -1.598598
     11          1           0        3.905566    0.661693   -0.152306
     12          1           0        3.022897   -1.677496   -0.256401
     13          1           0        2.410523   -0.828629    1.147317
     14          1           0        0.908147   -1.242505   -1.490691
     15          1           0        0.572764   -2.079974    0.020857
     16          8           0       -1.254313   -0.306672   -0.619447
     17          8           0       -2.238424    0.646101   -0.135153
     18          1           0       -2.789946    0.065366    0.405803
     19          1           0       -0.147094   -0.039638    1.093977
 ---------------------------------------------------------------------
                    Distance matrix (angstroms):
                    1          2          3          4          5
     1  C    0.000000
     2  C    1.533510   0.000000
     3  C    2.523729   1.532604   0.000000
     4  C    2.973120   2.535097   1.530272   0.000000
     5  C    2.563832   2.979968   2.533655   1.539212   0.000000
     6  C    1.488120   2.505377   2.889911   2.508522   1.489695
     7  H    2.215337   3.442938   3.966390   3.469680   2.248404
     8  H    3.473930   3.935763   3.480116   2.178766   1.091312
     9  H    2.958479   3.482347   2.857114   2.152909   1.103542
    10  H    3.374181   2.799985   2.153315   1.093417   2.159800
    11  H    3.964149   3.482113   2.166746   1.091938   2.169863
    12  H    3.466647   2.156481   1.091670   2.165575   3.482264
    13  H    2.795279   2.160795   1.095191   2.158220   2.809207
    14  H    2.142594   1.092643   2.163134   2.797944   3.361387
    15  H    2.157495   1.090849   2.177164   3.486485   3.974210
    16  O    1.432153   2.357267   3.730227   4.219231   3.796905
    17  O    2.333721   3.656389   4.854042   5.146493   4.322146
    18  H    2.820062   4.002317   5.256792   5.768675   5.039125
    19  H    1.104533   2.153773   2.846631   3.472747   2.961015
                    6          7          8          9         10
     6  C    0.000000
     7  H    1.080096   0.000000
     8  H    2.133114   2.472138   0.000000
     9  H    2.135954   2.801197   1.748376   0.000000
    10  H    2.844925   3.666598   2.452492   3.047574   0.000000
    11  H    3.442359   4.348026   2.547844   2.417299   1.756031
    12  H    3.903571   4.964253   4.314169   3.832273   2.475928
    13  H    3.248598   4.303487   3.825518   2.694457   3.055857
    14  H    2.818670   3.613716   4.121904   4.115065   2.619190
    15  H    3.435095   4.306432   4.977188   4.314360   3.795317
    16  O    2.436383   2.649944   4.537505   4.290347   4.368967
    17  O    2.870861   2.592490   4.919216   4.638963   5.390832
    18  H    3.649112   3.494560   5.732367   5.240267   6.083675
    19  H    2.137596   2.774033   3.943045   2.941382   4.123195
                   11         12         13         14         15
    11  H    0.000000
    12  H    2.502348   0.000000
    13  H    2.478958   1.751000   0.000000
    14  H    3.794966   2.486937   3.063905   0.000000
    15  H    4.319062   2.498402   2.492415   1.760288   0.000000
    16  O    5.270702   4.506161   4.101819   2.512187   2.625414
    17  O    6.144034   5.752852   5.043041   3.912189   3.919005
    18  H    6.745144   6.104525   5.328597   4.356961   4.007304
    19  H    4.297574   3.815094   2.677080   3.039890   2.415109
                   16         17         18         19
    16  O    0.000000
    17  O    1.452856   0.000000
    18  H    1.883539   0.966469   0.000000
    19  H    2.057441   2.520845   2.732998   0.000000
 Stoichiometry    C6H11O2(2)
 Framework group  C1[X(C6H11O2)]
 Deg. of freedom    51
 Full point group                 C1      NOp   1
 Largest Abelian subgroup         C1      NOp   1
 Largest concise Abelian subgroup C1      NOp   1
                         Standard orientation:                         
 ---------------------------------------------------------------------
 Center     Atomic      Atomic             Coordinates (Angstroms)
 Number     Number       Type             X           Y           Z
 ---------------------------------------------------------------------
      1          6           0       -0.624685   -0.207931    0.245677
      2          6           0        0.313967   -1.351706   -0.157268
      3          6           0        1.748666   -1.064431    0.298789
      4          6           0        2.266775    0.261398   -0.262880
      5          6           0        1.343548    1.430535    0.124347
      6          6           0       -0.087158    1.121347   -0.152553
      7          1           0       -0.787815    1.899876   -0.416331
      8          1           0        1.643710    2.345333   -0.389472
      9          1           0        1.484706    1.634034    1.199739
     10          1           0        2.319516    0.193643   -1.352921
     11          1           0        3.280881    0.453762    0.093371
     12          1           0        2.398212   -1.885427   -0.010724
     13          1           0        1.785838   -1.036560    1.392994
     14          1           0        0.283462   -1.450436   -1.245014
     15          1           0       -0.051921   -2.287905    0.266534
     16          8           0       -1.878998   -0.514603   -0.373770
     17          8           0       -2.863109    0.438170    0.110524
     18          1           0       -3.414631   -0.142565    0.651480
     19          1           0       -0.771779   -0.247569    1.339654
 ---------------------------------------------------------------------
 Rotational constants (GHZ):           4.0985226           1.3602615           1.0883079
 Leave Link  202 at Fri Mar 25 17:00:29 2022, MaxMem=  1073741824 cpu:               0.1 elap:               0.0
 (Enter /home/saurabh/gaussian/g16/l301.exe)
 Standard basis: CC-pVTZ (5D, 7F)
 Ernie: Thresh=  0.10000D-02 Tol=  0.10000D-05 Strict=F.
 Ernie:  24 primitive shells out of 296 were deleted.
 There are   445 symmetry adapted cartesian basis functions of A   symmetry.
 There are   394 symmetry adapted basis functions of A   symmetry.
   394 basis functions,   603 primitive gaussians,   445 cartesian basis functions
    32 alpha electrons       31 beta electrons
       nuclear repulsion energy       395.0031349395 Hartrees.
 IExCor=  402 DFT=T Ex+Corr=B3LYP ExCW=0 ScaHFX=  0.200000
 ScaDFX=  0.800000  0.720000  1.000000  0.810000 ScalE2=  1.000000  1.000000
 IRadAn=      5 IRanWt=     -1 IRanGd=            0 ICorTp=0 IEmpDi=  4
 NAtoms=   19 NActive=   19 NUniq=   19 SFac= 1.00D+00 NAtFMM=   60 NAOKFM=F Big=F
 Integral buffers will be    131072 words long.
 Raffenetti 2 integral format.
 Two-electron integral symmetry is turned on.
 Leave Link  301 at Fri Mar 25 17:00:29 2022, MaxMem=  1073741824 cpu:               0.4 elap:               0.1
 (Enter /home/saurabh/gaussian/g16/l302.exe)
 NPDir=0 NMtPBC=     1 NCelOv=     1 NCel=       1 NClECP=     1 NCelD=      1
         NCelK=      1 NCelE2=     1 NClLst=     1 CellRange=     0.0.
 One-electron integrals computed using PRISM.
 One-electron integral symmetry used in STVInt
 NBasis=   394 RedAO= T EigKep=  3.06D-04  NBF=   394
 NBsUse=   394 1.00D-06 EigRej= -1.00D+00 NBFU=   394
 Precomputing XC quadrature grid using
 IXCGrd= 4 IRadAn=           5 IRanWt=          -1 IRanGd=           0 AccXCQ= 0.00D+00.
 Generated NRdTot=       0 NPtTot=           0 NUsed=           0 NTot=          32
 NSgBfM=   445   445   445   445   445 MxSgAt=    19 MxSgA2=    19.
 Leave Link  302 at Fri Mar 25 17:00:29 2022, MaxMem=  1073741824 cpu:               2.7 elap:               0.4
 (Enter /home/saurabh/gaussian/g16/l303.exe)
 DipDrv:  MaxL=1.
 Leave Link  303 at Fri Mar 25 17:00:29 2022, MaxMem=  1073741824 cpu:               0.4 elap:               0.1
 (Enter /home/saurabh/gaussian/g16/l401.exe)
 ExpMin= 1.03D-01 ExpMax= 1.53D+04 ExpMxC= 5.22D+02 IAcc=3 IRadAn=         5 AccDes= 0.00D+00
 Harris functional with IExCor=  402 and IRadAn=       5 diagonalized for initial guess.
 HarFok:  IExCor=  402 AccDes= 0.00D+00 IRadAn=         5 IDoV= 1 UseB2=F ITyADJ=14
 ICtDFT=  3500011 ScaDFX=  1.000000  1.000000  1.000000  1.000000
 FoFCou: FMM=F IPFlag=           0 FMFlag=      100000 FMFlg1=           0
         NFxFlg=           0 DoJE=T BraDBF=F KetDBF=T FulRan=T
         wScrn=  0.000000 ICntrl=       500 IOpCl=  0 I1Cent=   200000004 NGrid=           0
         NMat0=    1 NMatS0=      1 NMatT0=    0 NMatD0=    1 NMtDS0=    0 NMtDT0=    0
 Petite list used in FoFCou.
 Harris En= -385.734929366892    
 JPrj=0 DoOrth=F DoCkMO=F.
 Initial guess <Sx>= 0.0000 <Sy>= 0.0000 <Sz>= 0.5000 <S**2>= 0.7500 S= 0.5000
 Leave Link  401 at Fri Mar 25 17:00:31 2022, MaxMem=  1073741824 cpu:              11.1 elap:               1.4
 (Enter /home/saurabh/gaussian/g16/l502.exe)
 Integral symmetry usage will be decided dynamically.
 UHF open shell SCF:
 Using DIIS extrapolation, IDIIS=  1040.
 NGot=  1073741824 LenX=  1073337812 LenY=  1073139342
 Requested convergence on RMS density matrix=1.00D-08 within1000 cycles.
 Requested convergence on MAX density matrix=1.00D-06.
 Requested convergence on             energy=1.00D-06.
 No special actions if energy rises.
 Fock matrices will be formed incrementally for  20 cycles.
 Integral accuracy reduced to 1.0D-05 until final iterations.

 Cycle   1  Pass 0  IDiag  1:
 FoFJK:  IHMeth= 1 ICntrl=       0 DoSepK=F KAlg= 0 I1Cent=           0 FoldK=F
 IRaf= 950000000 NMat=       1 IRICut=       1 DoRegI=T DoRafI=F ISym2E= 0 IDoP0=0 IntGTp=1.
 FoFCou: FMM=F IPFlag=           0 FMFlag=      100000 FMFlg1=           0
         NFxFlg=           0 DoJE=F BraDBF=F KetDBF=F FulRan=T
         wScrn=  0.000000 ICntrl=         0 IOpCl=  1 I1Cent=           0 NGrid=           0
         NMat0=    1 NMatS0=      1 NMatT0=    0 NMatD0=    1 NMtDS0=    0 NMtDT0=    0
 Symmetry not used in FoFCou.
 E= -385.470885219564    
 DIIS: error= 2.07D-02 at cycle   1 NSaved=   1.
 NSaved= 1 IEnMin= 1 EnMin= -385.470885219564     IErMin= 1 ErrMin= 2.07D-02
 ErrMax= 2.07D-02  0.00D+00 EMaxC= 1.00D-01 BMatC= 1.00D+00 BMatP= 1.00D+00
 IDIUse=3 WtCom= 7.93D-01 WtEn= 2.07D-01
 Coeff-Com:  0.100D+01
 Coeff-En:   0.100D+01
 Coeff:      0.100D+01
 Gap=     0.162 Goal=   None    Shift=    0.000
 Gap=     0.281 Goal=   None    Shift=    0.000
 GapD=    0.162 DampG=1.000 DampE=0.500 DampFc=0.5000 IDamp=-1.
 Damping current iteration by 5.00D-01
 RMSDP=2.31D-03 MaxDP=1.41D-01              OVMax= 1.85D-01

 Cycle   2  Pass 0  IDiag  1:
 RMSU=  1.15D-03    CP:  9.96D-01
 E= -385.562941842654     Delta-E=       -0.092056623090 Rises=F Damp=T
 DIIS: error= 6.74D-03 at cycle   2 NSaved=   2.
 NSaved= 2 IEnMin= 2 EnMin= -385.562941842654     IErMin= 2 ErrMin= 6.74D-03
 ErrMax= 6.74D-03  0.00D+00 EMaxC= 1.00D-01 BMatC= 8.27D-02 BMatP= 1.00D+00
 IDIUse=3 WtCom= 9.33D-01 WtEn= 6.74D-02
 Coeff-Com:  0.857D-01 0.914D+00
 Coeff-En:   0.193D+00 0.807D+00
 Coeff:      0.929D-01 0.907D+00
 Gap=     0.223 Goal=   None    Shift=    0.000
 Gap=     0.281 Goal=   None    Shift=    0.000
 RMSDP=6.16D-04 MaxDP=3.69D-02 DE=-9.21D-02 OVMax= 1.14D-01

 Cycle   3  Pass 0  IDiag  1:
 RMSU=  5.35D-04    CP:  1.00D+00  7.37D-01
 E= -385.695646140230     Delta-E=       -0.132704297577 Rises=F Damp=F
 DIIS: error= 4.71D-03 at cycle   3 NSaved=   3.
 NSaved= 3 IEnMin= 3 EnMin= -385.695646140230     IErMin= 3 ErrMin= 4.71D-03
 ErrMax= 4.71D-03  0.00D+00 EMaxC= 1.00D-01 BMatC= 4.21D-02 BMatP= 8.27D-02
 IDIUse=3 WtCom= 9.53D-01 WtEn= 4.71D-02
 Coeff-Com: -0.284D-01 0.402D+00 0.627D+00
 Coeff-En:   0.000D+00 0.000D+00 0.100D+01
 Coeff:     -0.270D-01 0.383D+00 0.644D+00
 Gap=     0.201 Goal=   None    Shift=    0.000
 Gap=     0.222 Goal=   None    Shift=    0.000
 RMSDP=2.73D-04 MaxDP=1.62D-02 DE=-1.33D-01 OVMax= 2.26D-02

 Cycle   4  Pass 0  IDiag  1:
 RMSU=  1.86D-04    CP:  9.99D-01  7.61D-01  6.30D-01
 E= -385.701981080931     Delta-E=       -0.006334940700 Rises=F Damp=F
 DIIS: error= 1.87D-03 at cycle   4 NSaved=   4.
 NSaved= 4 IEnMin= 4 EnMin= -385.701981080931     IErMin= 4 ErrMin= 1.87D-03
 ErrMax= 1.87D-03  0.00D+00 EMaxC= 1.00D-01 BMatC= 1.37D-02 BMatP= 4.21D-02
 IDIUse=3 WtCom= 9.81D-01 WtEn= 1.87D-02
 Coeff-Com: -0.257D-01 0.151D+00 0.401D+00 0.473D+00
 Coeff-En:   0.000D+00 0.000D+00 0.187D+00 0.813D+00
 Coeff:     -0.252D-01 0.148D+00 0.397D+00 0.480D+00
 Gap=     0.207 Goal=   None    Shift=    0.000
 Gap=     0.212 Goal=   None    Shift=    0.000
 RMSDP=1.31D-04 MaxDP=6.50D-03 DE=-6.33D-03 OVMax= 1.30D-02

 Cycle   5  Pass 0  IDiag  1:
 RMSU=  6.98D-05    CP:  9.99D-01  7.85D-01  7.37D-01  5.08D-01
 E= -385.704048614064     Delta-E=       -0.002067533133 Rises=F Damp=F
 DIIS: error= 6.18D-04 at cycle   5 NSaved=   5.
 NSaved= 5 IEnMin= 5 EnMin= -385.704048614064     IErMin= 5 ErrMin= 6.18D-04
 ErrMax= 6.18D-04  0.00D+00 EMaxC= 1.00D-01 BMatC= 1.51D-03 BMatP= 1.37D-02
 IDIUse=3 WtCom= 9.94D-01 WtEn= 6.18D-03
 Coeff-Com: -0.111D-01 0.251D-01 0.130D+00 0.288D+00 0.568D+00
 Coeff-En:   0.000D+00 0.000D+00 0.000D+00 0.872D-01 0.913D+00
 Coeff:     -0.110D-01 0.249D-01 0.129D+00 0.287D+00 0.570D+00
 Gap=     0.209 Goal=   None    Shift=    0.000
 Gap=     0.211 Goal=   None    Shift=    0.000
 RMSDP=3.82D-05 MaxDP=1.80D-03 DE=-2.07D-03 OVMax= 4.05D-03

 Cycle   6  Pass 0  IDiag  1:
 RMSU=  2.16D-05    CP:  9.99D-01  7.82D-01  7.50D-01  6.05D-01  6.49D-01
 E= -385.704301888122     Delta-E=       -0.000253274058 Rises=F Damp=F
 DIIS: error= 2.37D-04 at cycle   6 NSaved=   6.
 NSaved= 6 IEnMin= 6 EnMin= -385.704301888122     IErMin= 6 ErrMin= 2.37D-04
 ErrMax= 2.37D-04  0.00D+00 EMaxC= 1.00D-01 BMatC= 1.26D-04 BMatP= 1.51D-03
 IDIUse=3 WtCom= 9.98D-01 WtEn= 2.37D-03
 Coeff-Com: -0.417D-02 0.259D-02 0.439D-01 0.129D+00 0.323D+00 0.506D+00
 Coeff-En:   0.000D+00 0.000D+00 0.000D+00 0.000D+00 0.000D+00 0.100D+01
 Coeff:     -0.416D-02 0.258D-02 0.438D-01 0.129D+00 0.322D+00 0.507D+00
 Gap=     0.207 Goal=   None    Shift=    0.000
 Gap=     0.213 Goal=   None    Shift=    0.000
 RMSDP=1.21D-05 MaxDP=5.64D-04 DE=-2.53D-04 OVMax= 1.12D-03

 Cycle   7  Pass 0  IDiag  1:
 RMSU=  7.51D-06    CP:  9.99D-01  7.80D-01  7.47D-01  6.15D-01  6.95D-01
                    CP:  6.22D-01
 E= -385.704324770334     Delta-E=       -0.000022882213 Rises=F Damp=F
 DIIS: error= 3.80D-05 at cycle   7 NSaved=   7.
 NSaved= 7 IEnMin= 7 EnMin= -385.704324770334     IErMin= 7 ErrMin= 3.80D-05
 ErrMax= 3.80D-05  0.00D+00 EMaxC= 1.00D-01 BMatC= 5.37D-06 BMatP= 1.26D-04
 IDIUse=1 WtCom= 1.00D+00 WtEn= 0.00D+00
 Coeff-Com:  0.705D-03-0.348D-02-0.910D-02-0.126D-01-0.859D-02 0.143D+00
 Coeff-Com:  0.890D+00
 Coeff:      0.705D-03-0.348D-02-0.910D-02-0.126D-01-0.859D-02 0.143D+00
 Coeff:      0.890D+00
 Gap=     0.208 Goal=   None    Shift=    0.000
 Gap=     0.213 Goal=   None    Shift=    0.000
 RMSDP=3.99D-06 MaxDP=3.65D-04 DE=-2.29D-05 OVMax= 5.33D-04

 Initial convergence to 1.0D-05 achieved.  Increase integral accuracy.
 Cycle   8  Pass 1  IDiag  1:
 E= -385.704332210973     Delta-E=       -0.000007440639 Rises=F Damp=F
 DIIS: error= 3.70D-05 at cycle   1 NSaved=   1.
 NSaved= 1 IEnMin= 1 EnMin= -385.704332210973     IErMin= 1 ErrMin= 3.70D-05
 ErrMax= 3.70D-05  0.00D+00 EMaxC= 1.00D-01 BMatC= 2.29D-06 BMatP= 2.29D-06
 IDIUse=1 WtCom= 1.00D+00 WtEn= 0.00D+00
 Coeff-Com:  0.100D+01
 Coeff:      0.100D+01
 Gap=     0.208 Goal=   None    Shift=    0.000
 Gap=     0.213 Goal=   None    Shift=    0.000
 RMSDP=3.99D-06 MaxDP=3.65D-04 DE=-7.44D-06 OVMax= 1.28D-04

 Cycle   9  Pass 1  IDiag  1:
 RMSU=  8.91D-06    CP:  1.00D+00
 E= -385.704332411803     Delta-E=       -0.000000200830 Rises=F Damp=F
 DIIS: error= 1.55D-05 at cycle   2 NSaved=   2.
 NSaved= 2 IEnMin= 2 EnMin= -385.704332411803     IErMin= 2 ErrMin= 1.55D-05
 ErrMax= 1.55D-05  0.00D+00 EMaxC= 1.00D-01 BMatC= 6.51D-07 BMatP= 2.29D-06
 IDIUse=1 WtCom= 1.00D+00 WtEn= 0.00D+00
 Coeff-Com:  0.282D+00 0.718D+00
 Coeff:      0.282D+00 0.718D+00
 Gap=     0.208 Goal=   None    Shift=    0.000
 Gap=     0.213 Goal=   None    Shift=    0.000
 RMSDP=1.22D-06 MaxDP=5.94D-05 DE=-2.01D-07 OVMax= 1.20D-04

 Cycle  10  Pass 1  IDiag  1:
 RMSU=  1.22D-06    CP:  1.00D+00  9.88D-01
 E= -385.704332480126     Delta-E=       -0.000000068324 Rises=F Damp=F
 DIIS: error= 1.11D-05 at cycle   3 NSaved=   3.
 NSaved= 3 IEnMin= 3 EnMin= -385.704332480126     IErMin= 3 ErrMin= 1.11D-05
 ErrMax= 1.11D-05  0.00D+00 EMaxC= 1.00D-01 BMatC= 4.18D-07 BMatP= 6.51D-07
 IDIUse=1 WtCom= 1.00D+00 WtEn= 0.00D+00
 Coeff-Com:  0.596D-02 0.441D+00 0.553D+00
 Coeff:      0.596D-02 0.441D+00 0.553D+00
 Gap=     0.208 Goal=   None    Shift=    0.000
 Gap=     0.213 Goal=   None    Shift=    0.000
 RMSDP=6.33D-07 MaxDP=2.39D-05 DE=-6.83D-08 OVMax= 6.61D-05

 Cycle  11  Pass 1  IDiag  1:
 RMSU=  3.66D-07    CP:  1.00D+00  1.01D+00  5.95D-01
 E= -385.704332565244     Delta-E=       -0.000000085118 Rises=F Damp=F
 DIIS: error= 4.35D-06 at cycle   4 NSaved=   4.
 NSaved= 4 IEnMin= 4 EnMin= -385.704332565244     IErMin= 4 ErrMin= 4.35D-06
 ErrMax= 4.35D-06  0.00D+00 EMaxC= 1.00D-01 BMatC= 4.48D-08 BMatP= 4.18D-07
 IDIUse=1 WtCom= 1.00D+00 WtEn= 0.00D+00
 Coeff-Com: -0.151D-01 0.225D+00 0.337D+00 0.453D+00
 Coeff:     -0.151D-01 0.225D+00 0.337D+00 0.453D+00
 Gap=     0.208 Goal=   None    Shift=    0.000
 Gap=     0.213 Goal=   None    Shift=    0.000
 RMSDP=2.07D-07 MaxDP=8.67D-06 DE=-8.51D-08 OVMax= 2.44D-05

 Cycle  12  Pass 1  IDiag  1:
 RMSU=  1.66D-07    CP:  1.00D+00  1.01D+00  6.39D-01  6.97D-01
 E= -385.704332572777     Delta-E=       -0.000000007533 Rises=F Damp=F
 DIIS: error= 1.16D-06 at cycle   5 NSaved=   5.
 NSaved= 5 IEnMin= 5 EnMin= -385.704332572777     IErMin= 5 ErrMin= 1.16D-06
 ErrMax= 1.16D-06  0.00D+00 EMaxC= 1.00D-01 BMatC= 4.80D-09 BMatP= 4.48D-08
 IDIUse=1 WtCom= 1.00D+00 WtEn= 0.00D+00
 Coeff-Com: -0.851D-02-0.276D-01-0.766D-02 0.215D+00 0.829D+00
 Coeff:     -0.851D-02-0.276D-01-0.766D-02 0.215D+00 0.829D+00
 Gap=     0.208 Goal=   None    Shift=    0.000
 Gap=     0.213 Goal=   None    Shift=    0.000
 RMSDP=1.02D-07 MaxDP=5.71D-06 DE=-7.53D-09 OVMax= 1.03D-05

 Cycle  13  Pass 1  IDiag  1:
 RMSU=  7.96D-08    CP:  1.00D+00  1.01D+00  6.45D-01  8.68D-01  1.04D+00
 E= -385.704332574064     Delta-E=       -0.000000001287 Rises=F Damp=F
 DIIS: error= 5.65D-07 at cycle   6 NSaved=   6.
 NSaved= 6 IEnMin= 6 EnMin= -385.704332574064     IErMin= 6 ErrMin= 5.65D-07
 ErrMax= 5.65D-07  0.00D+00 EMaxC= 1.00D-01 BMatC= 1.07D-09 BMatP= 4.80D-09
 IDIUse=1 WtCom= 1.00D+00 WtEn= 0.00D+00
 Coeff-Com: -0.620D-03-0.693D-01-0.871D-01-0.805D-02 0.423D+00 0.742D+00
 Coeff:     -0.620D-03-0.693D-01-0.871D-01-0.805D-02 0.423D+00 0.742D+00
 Gap=     0.208 Goal=   None    Shift=    0.000
 Gap=     0.213 Goal=   None    Shift=    0.000
 RMSDP=5.56D-08 MaxDP=3.01D-06 DE=-1.29D-09 OVMax= 4.95D-06

 Cycle  14  Pass 1  IDiag  1:
 RMSU=  2.86D-08    CP:  1.00D+00  1.01D+00  6.56D-01  9.37D-01  1.22D+00
                    CP:  7.09D-01
 E= -385.704332574338     Delta-E=       -0.000000000274 Rises=F Damp=F
 DIIS: error= 1.77D-07 at cycle   7 NSaved=   7.
 NSaved= 7 IEnMin= 7 EnMin= -385.704332574338     IErMin= 7 ErrMin= 1.77D-07
 ErrMax= 1.77D-07  0.00D+00 EMaxC= 1.00D-01 BMatC= 1.60D-10 BMatP= 1.07D-09
 IDIUse=1 WtCom= 1.00D+00 WtEn= 0.00D+00
 Coeff-Com:  0.442D-03-0.352D-01-0.470D-01-0.250D-01 0.157D+00 0.405D+00
 Coeff-Com:  0.545D+00
 Coeff:      0.442D-03-0.352D-01-0.470D-01-0.250D-01 0.157D+00 0.405D+00
 Coeff:      0.545D+00
 Gap=     0.208 Goal=   None    Shift=    0.000
 Gap=     0.213 Goal=   None    Shift=    0.000
 RMSDP=1.57D-08 MaxDP=6.47D-07 DE=-2.74D-10 OVMax= 1.29D-06

 Cycle  15  Pass 1  IDiag  1:
 RMSU=  9.57D-09    CP:  1.00D+00  1.01D+00  6.57D-01  9.46D-01  1.24D+00
                    CP:  7.98D-01  6.85D-01
 E= -385.704332574374     Delta-E=       -0.000000000036 Rises=F Damp=F
 DIIS: error= 4.38D-08 at cycle   8 NSaved=   8.
 NSaved= 8 IEnMin= 8 EnMin= -385.704332574374     IErMin= 8 ErrMin= 4.38D-08
 ErrMax= 4.38D-08  0.00D+00 EMaxC= 1.00D-01 BMatC= 5.04D-12 BMatP= 1.60D-10
 IDIUse=1 WtCom= 1.00D+00 WtEn= 0.00D+00
 Coeff-Com:  0.126D-03-0.103D-02-0.184D-02-0.383D-02-0.371D-02 0.134D-01
 Coeff-Com:  0.101D+00 0.896D+00
 Coeff:      0.126D-03-0.103D-02-0.184D-02-0.383D-02-0.371D-02 0.134D-01
 Coeff:      0.101D+00 0.896D+00
 Gap=     0.208 Goal=   None    Shift=    0.000
 Gap=     0.213 Goal=   None    Shift=    0.000
 RMSDP=4.40D-09 MaxDP=2.30D-07 DE=-3.62D-11 OVMax= 6.53D-07

 SCF Done:  E(UB3LYP) =  -385.704332574     A.U. after   15 cycles
            NFock= 15  Conv=0.44D-08     -V/T= 2.0066
 <Sx>= 0.0000 <Sy>= 0.0000 <Sz>= 0.5000 <S**2>= 0.7540 S= 0.5020
 <L.S>=  0.00000000000    
 KE= 3.831633045239D+02 PE=-1.690154581392D+03 EE= 5.262838093545D+02
 Annihilation of the first spin contaminant:
 S**2 before annihilation     0.7540,   after     0.7500
 Leave Link  502 at Fri Mar 25 17:02:31 2022, MaxMem=  1073741824 cpu:             962.4 elap:             120.3
 (Enter /home/saurabh/gaussian/g16/l801.exe)
 DoSCS=F DFT=T ScalE2(SS,OS)=  1.000000  1.000000
 Range of M.O.s used for correlation:     1   394
 NBasis=   394 NAE=    32 NBE=    31 NFC=     0 NFV=     0
 NROrb=    394 NOA=    32 NOB=    31 NVA=   362 NVB=   363

 **** Warning!!: The largest alpha MO coefficient is  0.12433772D+02


 **** Warning!!: The largest beta MO coefficient is  0.13423422D+02

 Leave Link  801 at Fri Mar 25 17:02:31 2022, MaxMem=  1073741824 cpu:               0.2 elap:               0.0
 (Enter /home/saurabh/gaussian/g16/l1101.exe)
 Using compressed storage, NAtomX=    19.
 Will process     20 centers per pass.
 Leave Link 1101 at Fri Mar 25 17:02:32 2022, MaxMem=  1073741824 cpu:               3.4 elap:               0.5
 (Enter /home/saurabh/gaussian/g16/l1102.exe)
 Symmetrizing basis deriv contribution to polar:
 IMax=3 JMax=2 DiffMx= 0.00D+00
 Leave Link 1102 at Fri Mar 25 17:02:32 2022, MaxMem=  1073741824 cpu:               0.3 elap:               0.1
 (Enter /home/saurabh/gaussian/g16/l1110.exe)
 Forming Gx(P) for the SCF density, NAtomX=    19.
 Integral derivatives from FoFJK, PRISM(SPDF).
 Do as many integral derivatives as possible in FoFJK.
 G2DrvN: MDV=    1073739731.
 G2DrvN: will do    20 centers at a time, making    1 passes.
 Calling FoFCou, ICntrl=  3107 FMM=F I1Cent=   0 AccDes= 0.00D+00.
 FoFJK:  IHMeth= 1 ICntrl=    3107 DoSepK=F KAlg= 0 I1Cent=           0 FoldK=F
 IRaf=         0 NMat=       1 IRICut=       1 DoRegI=T DoRafI=F ISym2E= 0 IDoP0=0 IntGTp=1.
 FoFCou: FMM=F IPFlag=           0 FMFlag=      100000 FMFlg1=           0
         NFxFlg=           0 DoJE=F BraDBF=F KetDBF=F FulRan=T
         wScrn=  0.000000 ICntrl=      3107 IOpCl=  1 I1Cent=           0 NGrid=           0
         NMat0=    1 NMatS0=      1 NMatT0=    0 NMatD0=    1 NMtDS0=    0 NMtDT0=    0
 Symmetry not used in FoFCou.
 End of G2Drv F.D. properties file   721 does not exist.
 End of G2Drv F.D. properties file   722 does not exist.
 End of G2Drv F.D. properties file   788 does not exist.
 Leave Link 1110 at Fri Mar 25 17:05:55 2022, MaxMem=  1073741824 cpu:            1624.0 elap:             203.0
 (Enter /home/saurabh/gaussian/g16/l1002.exe)
 Minotr:  UHF open shell wavefunction.
          IDoAtm=1111111111111111111
          Direct CPHF calculation.
          Differentiating once with respect to nuclear coordinates.
          Requested convergence is 1.0D-08 RMS, and 1.0D-07 maximum.
          Secondary convergence is 1.0D-12 RMS, and 1.0D-12 maximum.
          NewPWx=T KeepS1=F KeepF1=F KeepIn=T MapXYZ=F SortEE=F KeepMc=T.
         5691 words used for storage of precomputed grid.
 Two-electron integrals replicated using symmetry.
          MDV=    1073741824 using IRadAn=       1.
          Solving linear equations simultaneously, MaxMat=     384.
 FoF2E skips out because all densities are zero.
 CalDSu exits because no D1Ps are significant.
 FoFJK:  IHMeth= 1 ICntrl=       0 DoSepK=F KAlg= 0 I1Cent=           0 FoldK=F
 IRaf= 940000000 NMat=      57 IRICut=     142 DoRegI=T DoRafI=T ISym2E= 2 IDoP0=3 IntGTp=3.
 FoFCou: FMM=F IPFlag=           0 FMFlag=      100000 FMFlg1=           0
         NFxFlg=           0 DoJE=F BraDBF=F KetDBF=F FulRan=T
         wScrn=  0.000000 ICntrl=         0 IOpCl=  1 I1Cent=           0 NGrid=           0
         NMat0=   57 NMatS0=     57 NMatT0=    0 NMatD0=   57 NMtDS0=    0 NMtDT0=    0
 Integrals replicated using symmetry in FoFCou.
 Raff kept on since  91.12% of shell-pairs survive, threshold=   0.20 IRatSp=91.
          There are    60 degrees of freedom in the 1st order CPHF.  IDoFFX=6 NUNeed=     0.
     54 vectors produced by pass  0 Test12= 3.81D-14 1.67D-09 XBig12= 2.71D-01 1.56D-01.
 AX will form    54 AO Fock derivatives at one time.
     54 vectors produced by pass  1 Test12= 3.81D-14 1.67D-09 XBig12= 1.07D-01 6.33D-02.
     54 vectors produced by pass  2 Test12= 3.81D-14 1.67D-09 XBig12= 1.57D-03 7.45D-03.
     54 vectors produced by pass  3 Test12= 3.81D-14 1.67D-09 XBig12= 1.60D-05 6.17D-04.
     54 vectors produced by pass  4 Test12= 3.81D-14 1.67D-09 XBig12= 1.22D-07 3.81D-05.
     54 vectors produced by pass  5 Test12= 3.81D-14 1.67D-09 XBig12= 7.36D-10 2.80D-06.
     39 vectors produced by pass  6 Test12= 3.81D-14 1.67D-09 XBig12= 2.93D-12 1.66D-07.
      6 vectors produced by pass  7 Test12= 3.81D-14 1.67D-09 XBig12= 9.16D-15 9.69D-09.
 InvSVY:  IOpt=1 It=  1 EMax= 5.55D-16
 Solved reduced A of dimension   369 with    60 vectors.
 End of Minotr F.D. properties file   721 does not exist.
 End of Minotr F.D. properties file   722 does not exist.
 End of Minotr F.D. properties file   788 does not exist.
 Leave Link 1002 at Fri Mar 25 17:15:12 2022, MaxMem=  1073741824 cpu:            4458.5 elap:             557.3
 (Enter /home/saurabh/gaussian/g16/l601.exe)
 Copying SCF densities to generalized density rwf, IOpCl= 1 IROHF=0.

 **********************************************************************

            Population analysis using the SCF Density.

 **********************************************************************

 Orbital symmetries:
 Alpha Orbitals:
       Occupied  (A) (A) (A) (A) (A) (A) (A) (A) (A) (A) (A) (A)
                 (A) (A) (A) (A) (A) (A) (A) (A) (A) (A) (A) (A)
                 (A) (A) (A) (A) (A) (A) (A) (A)
       Virtual   (A) (A) (A) (A) (A) (A) (A) (A) (A) (A) (A) (A)
                 (A) (A) (A) (A) (A) (A) (A) (A) (A) (A) (A) (A)
                 (A) (A) (A) (A) (A) (A) (A) (A) (A) (A) (A) (A)
                 (A) (A) (A) (A) (A) (A) (A) (A) (A) (A) (A) (A)
                 (A) (A) (A) (A) (A) (A) (A) (A) (A) (A) (A) (A)
                 (A) (A) (A) (A) (A) (A) (A) (A) (A) (A) (A) (A)
                 (A) (A) (A) (A) (A) (A) (A) (A) (A) (A) (A) (A)
                 (A) (A) (A) (A) (A) (A) (A) (A) (A) (A) (A) (A)
                 (A) (A) (A) (A) (A) (A) (A) (A) (A) (A) (A) (A)
                 (A) (A) (A) (A) (A) (A) (A) (A) (A) (A) (A) (A)
                 (A) (A) (A) (A) (A) (A) (A) (A) (A) (A) (A) (A)
                 (A) (A) (A) (A) (A) (A) (A) (A) (A) (A) (A) (A)
                 (A) (A) (A) (A) (A) (A) (A) (A) (A) (A) (A) (A)
                 (A) (A) (A) (A) (A) (A) (A) (A) (A) (A) (A) (A)
                 (A) (A) (A) (A) (A) (A) (A) (A) (A) (A) (A) (A)
                 (A) (A) (A) (A) (A) (A) (A) (A) (A) (A) (A) (A)
                 (A) (A) (A) (A) (A) (A) (A) (A) (A) (A) (A) (A)
                 (A) (A) (A) (A) (A) (A) (A) (A) (A) (A) (A) (A)
                 (A) (A) (A) (A) (A) (A) (A) (A) (A) (A) (A) (A)
                 (A) (A) (A) (A) (A) (A) (A) (A) (A) (A) (A) (A)
                 (A) (A) (A) (A) (A) (A) (A) (A) (A) (A) (A) (A)
                 (A) (A) (A) (A) (A) (A) (A) (A) (A) (A) (A) (A)
                 (A) (A) (A) (A) (A) (A) (A) (A) (A) (A) (A) (A)
                 (A) (A) (A) (A) (A) (A) (A) (A) (A) (A) (A) (A)
                 (A) (A) (A) (A) (A) (A) (A) (A) (A) (A) (A) (A)
                 (A) (A) (A) (A) (A) (A) (A) (A) (A) (A) (A) (A)
                 (A) (A) (A) (A) (A) (A) (A) (A) (A) (A) (A) (A)
                 (A) (A) (A) (A) (A) (A) (A) (A) (A) (A) (A) (A)
                 (A) (A) (A) (A) (A) (A) (A) (A) (A) (A) (A) (A)
                 (A) (A) (A) (A) (A) (A) (A) (A) (A) (A) (A) (A)
                 (A) (A)
 Beta  Orbitals:
       Occupied  (A) (A) (A) (A) (A) (A) (A) (A) (A) (A) (A) (A)
                 (A) (A) (A) (A) (A) (A) (A) (A) (A) (A) (A) (A)
                 (A) (A) (A) (A) (A) (A) (A)
       Virtual   (A) (A) (A) (A) (A) (A) (A) (A) (A) (A) (A) (A)
                 (A) (A) (A) (A) (A) (A) (A) (A) (A) (A) (A) (A)
                 (A) (A) (A) (A) (A) (A) (A) (A) (A) (A) (A) (A)
                 (A) (A) (A) (A) (A) (A) (A) (A) (A) (A) (A) (A)
                 (A) (A) (A) (A) (A) (A) (A) (A) (A) (A) (A) (A)
                 (A) (A) (A) (A) (A) (A) (A) (A) (A) (A) (A) (A)
                 (A) (A) (A) (A) (A) (A) (A) (A) (A) (A) (A) (A)
                 (A) (A) (A) (A) (A) (A) (A) (A) (A) (A) (A) (A)
                 (A) (A) (A) (A) (A) (A) (A) (A) (A) (A) (A) (A)
                 (A) (A) (A) (A) (A) (A) (A) (A) (A) (A) (A) (A)
                 (A) (A) (A) (A) (A) (A) (A) (A) (A) (A) (A) (A)
                 (A) (A) (A) (A) (A) (A) (A) (A) (A) (A) (A) (A)
                 (A) (A) (A) (A) (A) (A) (A) (A) (A) (A) (A) (A)
                 (A) (A) (A) (A) (A) (A) (A) (A) (A) (A) (A) (A)
                 (A) (A) (A) (A) (A) (A) (A) (A) (A) (A) (A) (A)
                 (A) (A) (A) (A) (A) (A) (A) (A) (A) (A) (A) (A)
                 (A) (A) (A) (A) (A) (A) (A) (A) (A) (A) (A) (A)
                 (A) (A) (A) (A) (A) (A) (A) (A) (A) (A) (A) (A)
                 (A) (A) (A) (A) (A) (A) (A) (A) (A) (A) (A) (A)
                 (A) (A) (A) (A) (A) (A) (A) (A) (A) (A) (A) (A)
                 (A) (A) (A) (A) (A) (A) (A) (A) (A) (A) (A) (A)
                 (A) (A) (A) (A) (A) (A) (A) (A) (A) (A) (A) (A)
                 (A) (A) (A) (A) (A) (A) (A) (A) (A) (A) (A) (A)
                 (A) (A) (A) (A) (A) (A) (A) (A) (A) (A) (A) (A)
                 (A) (A) (A) (A) (A) (A) (A) (A) (A) (A) (A) (A)
                 (A) (A) (A) (A) (A) (A) (A) (A) (A) (A) (A) (A)
                 (A) (A) (A) (A) (A) (A) (A) (A) (A) (A) (A) (A)
                 (A) (A) (A) (A) (A) (A) (A) (A) (A) (A) (A) (A)
                 (A) (A) (A) (A) (A) (A) (A) (A) (A) (A) (A) (A)
                 (A) (A) (A) (A) (A) (A) (A) (A) (A) (A) (A) (A)
                 (A) (A) (A)
 The electronic state is 2-A.
 Alpha  occ. eigenvalues --  -19.18073 -19.17751 -10.22849 -10.17651 -10.17612
 Alpha  occ. eigenvalues --  -10.17598 -10.17589 -10.17316  -1.11456  -0.91800
 Alpha  occ. eigenvalues --   -0.82975  -0.75065  -0.73167  -0.62119  -0.61009
 Alpha  occ. eigenvalues --   -0.55445  -0.52005  -0.49523  -0.47792  -0.45520
 Alpha  occ. eigenvalues --   -0.43662  -0.41754  -0.40757  -0.39526  -0.38259
 Alpha  occ. eigenvalues --   -0.35475  -0.33793  -0.33591  -0.32255  -0.30119
 Alpha  occ. eigenvalues --   -0.26873  -0.19376
 Alpha virt. eigenvalues --    0.01421   0.03475   0.04251   0.05986   0.06561
 Alpha virt. eigenvalues --    0.08222   0.10065   0.10710   0.11088   0.12059
 Alpha virt. eigenvalues --    0.12686   0.13881   0.15009   0.18402   0.19933
 Alpha virt. eigenvalues --    0.21057   0.22188   0.23962   0.25862   0.26882
 Alpha virt. eigenvalues --    0.27366   0.29989   0.30390   0.31740   0.34233
 Alpha virt. eigenvalues --    0.35194   0.36609   0.38563   0.39730   0.40734
 Alpha virt. eigenvalues --    0.41801   0.42526   0.43568   0.43703   0.44119
 Alpha virt. eigenvalues --    0.44980   0.45743   0.46362   0.46895   0.47596
 Alpha virt. eigenvalues --    0.47893   0.48765   0.49404   0.49939   0.50393
 Alpha virt. eigenvalues --    0.51617   0.53650   0.53798   0.55965   0.60037
 Alpha virt. eigenvalues --    0.62623   0.62737   0.65221   0.67559   0.68418
 Alpha virt. eigenvalues --    0.70739   0.73537   0.75394   0.76007   0.77586
 Alpha virt. eigenvalues --    0.78628   0.81118   0.81749   0.84544   0.86209
 Alpha virt. eigenvalues --    0.87065   0.88959   0.90569   0.91065   0.92388
 Alpha virt. eigenvalues --    0.94971   0.97162   0.98495   1.01555   1.01658
 Alpha virt. eigenvalues --    1.03081   1.05174   1.05446   1.06261   1.07480
 Alpha virt. eigenvalues --    1.08774   1.10080   1.11161   1.12423   1.12506
 Alpha virt. eigenvalues --    1.14974   1.15733   1.17305   1.18859   1.19757
 Alpha virt. eigenvalues --    1.20932   1.21650   1.22700   1.24431   1.25895
 Alpha virt. eigenvalues --    1.26019   1.26467   1.29938   1.30274   1.31924
 Alpha virt. eigenvalues --    1.33131   1.35025   1.35988   1.36581   1.39710
 Alpha virt. eigenvalues --    1.41280   1.43341   1.44140   1.45468   1.45728
 Alpha virt. eigenvalues --    1.46960   1.48468   1.49322   1.51037   1.52575
 Alpha virt. eigenvalues --    1.54405   1.57470   1.59467   1.61262   1.63863
 Alpha virt. eigenvalues --    1.66413   1.69912   1.71234   1.77074   1.78261
 Alpha virt. eigenvalues --    1.80904   1.82173   1.83142   1.93844   2.01517
 Alpha virt. eigenvalues --    2.03340   2.07011   2.09644   2.15999   2.20163
 Alpha virt. eigenvalues --    2.22725   2.26654   2.30239   2.32238   2.35470
 Alpha virt. eigenvalues --    2.36132   2.39697   2.43625   2.44777   2.45465
 Alpha virt. eigenvalues --    2.46348   2.47455   2.51919   2.53703   2.55061
 Alpha virt. eigenvalues --    2.55768   2.56513   2.58614   2.58980   2.61234
 Alpha virt. eigenvalues --    2.63643   2.64284   2.65229   2.66487   2.67237
 Alpha virt. eigenvalues --    2.68629   2.70371   2.72413   2.75271   2.76514
 Alpha virt. eigenvalues --    2.78871   2.79922   2.84136   2.85793   2.87203
 Alpha virt. eigenvalues --    2.88824   2.89530   2.92058   2.94745   2.96974
 Alpha virt. eigenvalues --    2.97420   3.00422   3.00969   3.02481   3.02778
 Alpha virt. eigenvalues --    3.04241   3.06992   3.07676   3.09130   3.09793
 Alpha virt. eigenvalues --    3.11869   3.13811   3.13902   3.14833   3.16009
 Alpha virt. eigenvalues --    3.17890   3.18721   3.20999   3.21163   3.22680
 Alpha virt. eigenvalues --    3.24391   3.24591   3.26351   3.27960   3.29496
 Alpha virt. eigenvalues --    3.32033   3.33314   3.34558   3.35472   3.36144
 Alpha virt. eigenvalues --    3.37544   3.38982   3.41059   3.42065   3.43258
 Alpha virt. eigenvalues --    3.46760   3.47486   3.49415   3.51016   3.53994
 Alpha virt. eigenvalues --    3.54475   3.57720   3.59093   3.61042   3.63031
 Alpha virt. eigenvalues --    3.63590   3.64560   3.66699   3.67833   3.68348
 Alpha virt. eigenvalues --    3.69664   3.71207   3.71933   3.73149   3.73573
 Alpha virt. eigenvalues --    3.74611   3.75839   3.77377   3.79636   3.82429
 Alpha virt. eigenvalues --    3.84035   3.84656   3.85143   3.87269   3.89250
 Alpha virt. eigenvalues --    3.91839   3.93067   3.93440   3.95382   3.96873
 Alpha virt. eigenvalues --    3.99176   3.99648   4.00276   4.01929   4.02568
 Alpha virt. eigenvalues --    4.04449   4.05660   4.06543   4.07371   4.09066
 Alpha virt. eigenvalues --    4.10204   4.12208   4.13663   4.13961   4.15794
 Alpha virt. eigenvalues --    4.17474   4.18342   4.20944   4.22333   4.23229
 Alpha virt. eigenvalues --    4.23990   4.26103   4.30191   4.31601   4.32835
 Alpha virt. eigenvalues --    4.33873   4.34228   4.38477   4.38951   4.41624
 Alpha virt. eigenvalues --    4.42441   4.44759   4.47527   4.51767   4.55258
 Alpha virt. eigenvalues --    4.55855   4.60745   4.63970   4.65504   4.67791
 Alpha virt. eigenvalues --    4.69918   4.71969   4.73670   4.75403   4.78111
 Alpha virt. eigenvalues --    4.80983   4.82620   4.85271   4.86494   4.87934
 Alpha virt. eigenvalues --    4.91294   4.92097   4.94569   4.95065   4.98853
 Alpha virt. eigenvalues --    5.00436   5.01304   5.02527   5.03793   5.04524
 Alpha virt. eigenvalues --    5.07500   5.07685   5.10416   5.12830   5.14871
 Alpha virt. eigenvalues --    5.22347   5.23575   5.24312   5.26327   5.30592
 Alpha virt. eigenvalues --    5.32321   5.36479   5.39725   5.41399   5.43707
 Alpha virt. eigenvalues --    5.45975   5.46915   5.49052   5.49563   5.52513
 Alpha virt. eigenvalues --    5.53733   5.55971   5.59798   5.66466   5.69883
 Alpha virt. eigenvalues --    5.75006   5.77344   5.86142   5.89857   5.96089
 Alpha virt. eigenvalues --    5.98409   6.00246   6.05926   6.07206   6.17196
 Alpha virt. eigenvalues --    6.24550   6.37448   6.39439   6.54477   6.62439
 Alpha virt. eigenvalues --    6.66053   6.77237   6.82264   6.89969   6.95276
 Alpha virt. eigenvalues --    7.07921   7.25276   7.39799   7.69499  10.20080
 Alpha virt. eigenvalues --   10.72615  11.16601  12.20225  12.35127  12.74872
 Alpha virt. eigenvalues --   12.90153  12.95734
  Beta  occ. eigenvalues --  -19.18059 -19.17747 -10.22932 -10.17727 -10.17605
  Beta  occ. eigenvalues --  -10.17544 -10.17259 -10.16233  -1.11429  -0.91688
  Beta  occ. eigenvalues --   -0.82495  -0.74445  -0.72276  -0.61621  -0.60441
  Beta  occ. eigenvalues --   -0.54723  -0.51655  -0.49282  -0.47407  -0.45269
  Beta  occ. eigenvalues --   -0.43129  -0.41635  -0.40321  -0.39192  -0.37726
  Beta  occ. eigenvalues --   -0.35180  -0.33576  -0.33339  -0.32000  -0.29968
  Beta  occ. eigenvalues --   -0.26692
  Beta virt. eigenvalues --   -0.05413   0.01469   0.03733   0.04344   0.06053
  Beta virt. eigenvalues --    0.06602   0.08322   0.10351   0.10822   0.11236
  Beta virt. eigenvalues --    0.12192   0.12892   0.14004   0.15106   0.18488
  Beta virt. eigenvalues --    0.20026   0.21606   0.22425   0.24074   0.26171
  Beta virt. eigenvalues --    0.27059   0.27458   0.30396   0.30919   0.32538
  Beta virt. eigenvalues --    0.36173   0.36688   0.37165   0.38790   0.40442
  Beta virt. eigenvalues --    0.41012   0.42089   0.42780   0.43720   0.44163
  Beta virt. eigenvalues --    0.44343   0.45247   0.46053   0.46548   0.47121
  Beta virt. eigenvalues --    0.47826   0.48066   0.49172   0.49562   0.50232
  Beta virt. eigenvalues --    0.50748   0.51750   0.54110   0.54497   0.56286
  Beta virt. eigenvalues --    0.60321   0.62832   0.62865   0.65356   0.67745
  Beta virt. eigenvalues --    0.68643   0.70984   0.73768   0.75616   0.76274
  Beta virt. eigenvalues --    0.77856   0.78808   0.81246   0.82194   0.84935
  Beta virt. eigenvalues --    0.86806   0.87371   0.89198   0.90767   0.91253
  Beta virt. eigenvalues --    0.92741   0.95375   0.97681   0.98919   1.01728
  Beta virt. eigenvalues --    1.01785   1.03325   1.05285   1.06089   1.06573
  Beta virt. eigenvalues --    1.07719   1.09043   1.10185   1.11295   1.12625
  Beta virt. eigenvalues --    1.12828   1.15320   1.15903   1.17539   1.19188
  Beta virt. eigenvalues --    1.20282   1.21243   1.22277   1.23186   1.24759
  Beta virt. eigenvalues --    1.26067   1.26411   1.26667   1.30237   1.30549
  Beta virt. eigenvalues --    1.32437   1.33356   1.35399   1.36160   1.36981
  Beta virt. eigenvalues --    1.40166   1.41816   1.43608   1.44537   1.45658
  Beta virt. eigenvalues --    1.45936   1.47330   1.49051   1.49602   1.51521
  Beta virt. eigenvalues --    1.52819   1.54669   1.57961   1.59939   1.61581
  Beta virt. eigenvalues --    1.64357   1.66772   1.70238   1.71551   1.77594
  Beta virt. eigenvalues --    1.78523   1.81043   1.82530   1.83351   1.94014
  Beta virt. eigenvalues --    2.01599   2.03930   2.07289   2.09747   2.16261
  Beta virt. eigenvalues --    2.21735   2.23479   2.28471   2.31392   2.32465
  Beta virt. eigenvalues --    2.35632   2.36955   2.40045   2.43849   2.44920
  Beta virt. eigenvalues --    2.45888   2.46718   2.48200   2.52097   2.53957
  Beta virt. eigenvalues --    2.55277   2.56034   2.56891   2.58871   2.59464
  Beta virt. eigenvalues --    2.61785   2.63934   2.64509   2.65675   2.67110
  Beta virt. eigenvalues --    2.67949   2.68931   2.70963   2.73100   2.75838
  Beta virt. eigenvalues --    2.77108   2.79832   2.81246   2.84996   2.86127
  Beta virt. eigenvalues --    2.87746   2.89128   2.90472   2.92928   2.95056
  Beta virt. eigenvalues --    2.97327   2.98303   3.00744   3.02109   3.02870
  Beta virt. eigenvalues --    3.03374   3.04792   3.07524   3.08448   3.09430
  Beta virt. eigenvalues --    3.10258   3.12365   3.14093   3.14596   3.15469
  Beta virt. eigenvalues --    3.16208   3.18279   3.19234   3.21313   3.21744
  Beta virt. eigenvalues --    3.23071   3.24624   3.25391   3.26596   3.28316
  Beta virt. eigenvalues --    3.29830   3.32834   3.34271   3.34991   3.36351
  Beta virt. eigenvalues --    3.36873   3.38094   3.39680   3.41361   3.42360
  Beta virt. eigenvalues --    3.43455   3.46935   3.47653   3.49687   3.51408
  Beta virt. eigenvalues --    3.54640   3.54889   3.58246   3.59419   3.61297
  Beta virt. eigenvalues --    3.63208   3.63828   3.64710   3.66997   3.67976
  Beta virt. eigenvalues --    3.68687   3.69839   3.71344   3.72067   3.73340
  Beta virt. eigenvalues --    3.73936   3.74891   3.76244   3.77759   3.79923
  Beta virt. eigenvalues --    3.83012   3.84451   3.85113   3.85362   3.87644
  Beta virt. eigenvalues --    3.89479   3.92247   3.93370   3.93817   3.95706
  Beta virt. eigenvalues --    3.97140   3.99376   4.00017   4.00555   4.02143
  Beta virt. eigenvalues --    4.02746   4.04652   4.05977   4.06911   4.07626
  Beta virt. eigenvalues --    4.09371   4.10445   4.12310   4.13797   4.14426
  Beta virt. eigenvalues --    4.15957   4.18020   4.18810   4.21150   4.22739
  Beta virt. eigenvalues --    4.23507   4.24424   4.26347   4.30545   4.32044
  Beta virt. eigenvalues --    4.32887   4.34265   4.34523   4.38891   4.39118
  Beta virt. eigenvalues --    4.41729   4.42766   4.45106   4.47786   4.52040
  Beta virt. eigenvalues --    4.55705   4.56189   4.60981   4.64160   4.65603
  Beta virt. eigenvalues --    4.68166   4.70189   4.72296   4.74018   4.75912
  Beta virt. eigenvalues --    4.78423   4.81237   4.82968   4.85525   4.86662
  Beta virt. eigenvalues --    4.88077   4.91794   4.92250   4.94844   4.95268
  Beta virt. eigenvalues --    4.99185   5.00591   5.01677   5.02812   5.04003
  Beta virt. eigenvalues --    5.05012   5.07662   5.07992   5.10829   5.12892
  Beta virt. eigenvalues --    5.15157   5.22595   5.23716   5.24459   5.26480
  Beta virt. eigenvalues --    5.30820   5.32626   5.36689   5.39892   5.41636
  Beta virt. eigenvalues --    5.43825   5.46062   5.47022   5.49190   5.49662
  Beta virt. eigenvalues --    5.52617   5.53983   5.56146   5.59884   5.66660
  Beta virt. eigenvalues --    5.70023   5.75249   5.77647   5.86176   5.89987
  Beta virt. eigenvalues --    5.96218   5.98452   6.00332   6.05957   6.07352
  Beta virt. eigenvalues --    6.17296   6.24570   6.37466   6.39453   6.54492
  Beta virt. eigenvalues --    6.62448   6.66071   6.77263   6.82291   6.90014
  Beta virt. eigenvalues --    6.95311   7.07940   7.25320   7.39821   7.69521
  Beta virt. eigenvalues --   10.20422  10.73431  11.16623  12.20704  12.35298
  Beta virt. eigenvalues --   12.75150  12.90261  12.95857
          Condensed to atoms (all electrons):
               1          2          3          4          5          6
     1  C    4.680833   0.330614  -0.049147   0.006377  -0.038790   0.341323
     2  C    0.330614   4.944629   0.308770  -0.033592  -0.005527  -0.051072
     3  C   -0.049147   0.308770   4.960024   0.329132  -0.039283   0.001356
     4  C    0.006377  -0.033592   0.329132   4.913040   0.335326  -0.058537
     5  C   -0.038790  -0.005527  -0.039283   0.335326   4.885616   0.307641
     6  C    0.341323  -0.051072   0.001356  -0.058537   0.307641   5.454706
     7  H   -0.034937   0.006052   0.000767   0.004130  -0.039649   0.413415
     8  H    0.005305  -0.001157   0.008206  -0.028861   0.411428  -0.033871
     9  H   -0.003794  -0.000116  -0.007715  -0.046974   0.391685  -0.050551
    10  H   -0.002157  -0.003908  -0.038209   0.399171  -0.035768   0.003931
    11  H   -0.000663   0.007142  -0.036577   0.408903  -0.034248   0.007911
    12  H    0.005336  -0.030695   0.409717  -0.033076   0.007146  -0.000519
    13  H   -0.000698  -0.037001   0.396459  -0.038134  -0.001099  -0.004080
    14  H   -0.031907   0.387776  -0.034556  -0.004944   0.002073  -0.005482
    15  H   -0.031375   0.402818  -0.032352   0.006649  -0.001332   0.011658
    16  O    0.320334  -0.025436   0.001563   0.000534   0.004448  -0.044882
    17  O   -0.044261   0.006511  -0.000228  -0.000049  -0.000463  -0.009058
    18  H   -0.003052  -0.001400   0.000034   0.000006  -0.000011  -0.000761
    19  H    0.373512  -0.027263  -0.002396  -0.003082   0.013561  -0.101832
               7          8          9         10         11         12
     1  C   -0.034937   0.005305  -0.003794  -0.002157  -0.000663   0.005336
     2  C    0.006052  -0.001157  -0.000116  -0.003908   0.007142  -0.030695
     3  C    0.000767   0.008206  -0.007715  -0.038209  -0.036577   0.409717
     4  C    0.004130  -0.028861  -0.046974   0.399171   0.408903  -0.033076
     5  C   -0.039649   0.411428   0.391685  -0.035768  -0.034248   0.007146
     6  C    0.413415  -0.033871  -0.050551   0.003931   0.007911  -0.000519
     7  H    0.517317  -0.007405   0.001610   0.000049  -0.000305   0.000098
     8  H   -0.007405   0.601914  -0.038204  -0.007743  -0.003326  -0.000458
     9  H    0.001610  -0.038204   0.655366   0.010067  -0.004904  -0.000381
    10  H    0.000049  -0.007743   0.010067   0.619100  -0.034851  -0.006337
    11  H   -0.000305  -0.003326  -0.004904  -0.034851   0.609830  -0.004986
    12  H    0.000098  -0.000458  -0.000381  -0.006337  -0.004986   0.607163
    13  H   -0.000133  -0.000274   0.005915   0.008926  -0.004867  -0.038512
    14  H   -0.000071  -0.000212   0.000460   0.004648   0.000162  -0.006423
    15  H   -0.000374   0.000096   0.000215   0.000191  -0.000375  -0.005701
    16  O   -0.009563  -0.000181  -0.000206  -0.000115   0.000011  -0.000121
    17  O    0.016343  -0.000026   0.000027   0.000006  -0.000001   0.000010
    18  H   -0.001209   0.000004   0.000004  -0.000001   0.000000  -0.000003
    19  H    0.001364  -0.000474   0.003980   0.000349   0.000164  -0.000160
              13         14         15         16         17         18
     1  C   -0.000698  -0.031907  -0.031375   0.320334  -0.044261  -0.003052
     2  C   -0.037001   0.387776   0.402818  -0.025436   0.006511  -0.001400
     3  C    0.396459  -0.034556  -0.032352   0.001563  -0.000228   0.000034
     4  C   -0.038134  -0.004944   0.006649   0.000534  -0.000049   0.000006
     5  C   -0.001099   0.002073  -0.001332   0.004448  -0.000463  -0.000011
     6  C   -0.004080  -0.005482   0.011658  -0.044882  -0.009058  -0.000761
     7  H   -0.000133  -0.000071  -0.000374  -0.009563   0.016343  -0.001209
     8  H   -0.000274  -0.000212   0.000096  -0.000181  -0.000026   0.000004
     9  H    0.005915   0.000460   0.000215  -0.000206   0.000027   0.000004
    10  H    0.008926   0.004648   0.000191  -0.000115   0.000006  -0.000001
    11  H   -0.004867   0.000162  -0.000375   0.000011  -0.000001   0.000000
    12  H   -0.038512  -0.006423  -0.005701  -0.000121   0.000010  -0.000003
    13  H    0.629581   0.008333  -0.004595   0.000006  -0.000044  -0.000001
    14  H    0.008333   0.610623  -0.034546   0.004528  -0.000304   0.000158
    15  H   -0.004595  -0.034546   0.601770   0.003257  -0.000227   0.000014
    16  O    0.000006   0.004528   0.003257   7.953073   0.071482  -0.017562
    17  O   -0.000044  -0.000304  -0.000227   0.071482   7.860520   0.315416
    18  H   -0.000001   0.000158   0.000014  -0.017562   0.315416   0.481522
    19  H    0.004431   0.013009  -0.010567  -0.056030   0.011458   0.004984
              19
     1  C    0.373512
     2  C   -0.027263
     3  C   -0.002396
     4  C   -0.003082
     5  C    0.013561
     6  C   -0.101832
     7  H    0.001364
     8  H   -0.000474
     9  H    0.003980
    10  H    0.000349
    11  H    0.000164
    12  H   -0.000160
    13  H    0.004431
    14  H    0.013009
    15  H   -0.010567
    16  O   -0.056030
    17  O    0.011458
    18  H    0.004984
    19  H    0.728993
          Atomic-Atomic Spin Densities.
               1          2          3          4          5          6
     1  C   -0.036481   0.014381   0.004534   0.003853   0.003024  -0.028932
     2  C    0.014381   0.036797   0.002057   0.000398   0.000024  -0.015670
     3  C    0.004534   0.002057   0.002471   0.004272   0.002192  -0.002517
     4  C    0.003853   0.000398   0.004272   0.048475   0.014078  -0.022346
     5  C    0.003024   0.000024   0.002192   0.014078  -0.057188  -0.022886
     6  C   -0.028932  -0.015670  -0.002517  -0.022346  -0.022886   1.087310
     7  H    0.001104  -0.000045   0.000126   0.000050   0.003119   0.010936
     8  H    0.000461   0.000054   0.000358   0.005730   0.003118  -0.005022
     9  H   -0.003340  -0.000448  -0.004863  -0.017175   0.007748  -0.033626
    10  H   -0.001423  -0.000694  -0.001411  -0.010215  -0.002609   0.009627
    11  H   -0.000415   0.000126  -0.002151  -0.005853  -0.000427   0.001272
    12  H    0.000513  -0.000034   0.003240   0.000187  -0.000018  -0.000708
    13  H   -0.001242  -0.000120  -0.004016  -0.000791  -0.000027  -0.000169
    14  H   -0.003955  -0.008438  -0.000758  -0.001262  -0.000527   0.009972
    15  H   -0.002018  -0.004084  -0.001549  -0.000109   0.000035   0.001169
    16  O    0.004334   0.002788   0.000095   0.000087  -0.000035  -0.003939
    17  O   -0.000292   0.000174   0.000008  -0.000000  -0.000000  -0.000517
    18  H    0.000109  -0.000073  -0.000004  -0.000001   0.000005  -0.000208
    19  H    0.002428  -0.011183  -0.003611  -0.001521   0.000743  -0.029568
               7          8          9         10         11         12
     1  C    0.001104   0.000461  -0.003340  -0.001423  -0.000415   0.000513
     2  C   -0.000045   0.000054  -0.000448  -0.000694   0.000126  -0.000034
     3  C    0.000126   0.000358  -0.004863  -0.001411  -0.002151   0.003240
     4  C    0.000050   0.005730  -0.017175  -0.010215  -0.005853   0.000187
     5  C    0.003119   0.003118   0.007748  -0.002609  -0.000427  -0.000018
     6  C    0.010936  -0.005022  -0.033626   0.009627   0.001272  -0.000708
     7  H   -0.040843   0.000745  -0.001160  -0.000080  -0.000006   0.000005
     8  H    0.000745   0.009046  -0.007488  -0.001139  -0.000787   0.000035
     9  H   -0.001160  -0.007488   0.103004   0.002470   0.004005  -0.000411
    10  H   -0.000080  -0.001139   0.002470   0.004919   0.002764  -0.000936
    11  H   -0.000006  -0.000787   0.004005   0.002764   0.003980  -0.000760
    12  H    0.000005   0.000035  -0.000411  -0.000936  -0.000760   0.002698
    13  H   -0.000033  -0.000094   0.002351   0.000503   0.000850  -0.001272
    14  H   -0.000088  -0.000098   0.000484   0.001294   0.000238  -0.000895
    15  H   -0.000004  -0.000018   0.000279   0.000246   0.000075  -0.000760
    16  O    0.000477   0.000016  -0.000170  -0.000043  -0.000005   0.000016
    17  O    0.000000  -0.000001   0.000006  -0.000001  -0.000000   0.000000
    18  H   -0.000064  -0.000001   0.000010   0.000001   0.000000  -0.000000
    19  H   -0.001033  -0.000330   0.006699   0.000436   0.000249  -0.000386
              13         14         15         16         17         18
     1  C   -0.001242  -0.003955  -0.002018   0.004334  -0.000292   0.000109
     2  C   -0.000120  -0.008438  -0.004084   0.002788   0.000174  -0.000073
     3  C   -0.004016  -0.000758  -0.001549   0.000095   0.000008  -0.000004
     4  C   -0.000791  -0.001262  -0.000109   0.000087  -0.000000  -0.000001
     5  C   -0.000027  -0.000527   0.000035  -0.000035  -0.000000   0.000005
     6  C   -0.000169   0.009972   0.001169  -0.003939  -0.000517  -0.000208
     7  H   -0.000033  -0.000088  -0.000004   0.000477   0.000000  -0.000064
     8  H   -0.000094  -0.000098  -0.000018   0.000016  -0.000001  -0.000001
     9  H    0.002351   0.000484   0.000279  -0.000170   0.000006   0.000010
    10  H    0.000503   0.001294   0.000246  -0.000043  -0.000001   0.000001
    11  H    0.000850   0.000238   0.000075  -0.000005  -0.000000   0.000000
    12  H   -0.001272  -0.000895  -0.000760   0.000016   0.000000  -0.000000
    13  H    0.002684   0.000486   0.000854  -0.000046  -0.000002   0.000002
    14  H    0.000486   0.003325   0.002797  -0.000590  -0.000053   0.000019
    15  H    0.000854   0.002797   0.002741  -0.000394  -0.000051   0.000022
    16  O   -0.000046  -0.000590  -0.000394   0.006170  -0.000026  -0.000071
    17  O   -0.000002  -0.000053  -0.000051  -0.000026   0.002228   0.000005
    18  H    0.000002   0.000019   0.000022  -0.000071   0.000005  -0.000103
    19  H    0.002158   0.002128   0.003825  -0.004380  -0.000705   0.000550
              19
     1  C    0.002428
     2  C   -0.011183
     3  C   -0.003611
     4  C   -0.001521
     5  C    0.000743
     6  C   -0.029568
     7  H   -0.001033
     8  H   -0.000330
     9  H    0.006699
    10  H    0.000436
    11  H    0.000249
    12  H   -0.000386
    13  H    0.002158
    14  H    0.002128
    15  H    0.003825
    16  O   -0.004380
    17  O   -0.000705
    18  H    0.000550
    19  H    0.081959
 Mulliken charges and spin densities:
               1          2
     1  C    0.177147  -0.043358
     2  C   -0.177146   0.016010
     3  C   -0.175565  -0.001527
     4  C   -0.156017   0.017856
     5  C   -0.162754  -0.049631
     6  C   -0.181297   0.954179
     7  H    0.132499  -0.026793
     8  H    0.095239   0.004585
     9  H    0.083517   0.058376
    10  H    0.082654   0.003709
    11  H    0.090981   0.003156
    12  H    0.097902   0.000513
    13  H    0.075787   0.002075
    14  H    0.086674   0.004080
    15  H    0.094776   0.003058
    16  O   -0.205142   0.004284
    17  O   -0.227113   0.000774
    18  H    0.221857   0.000198
    19  H    0.046000   0.048457
 Sum of Mulliken charges =  -0.00000   1.00000
 Mulliken charges and spin densities with hydrogens summed into heavy atoms:
               1          2
     1  C    0.223147   0.005099
     2  C    0.004304   0.023148
     3  C   -0.001876   0.001061
     4  C    0.017618   0.024721
     5  C    0.016003   0.013330
     6  C   -0.048798   0.927386
    16  O   -0.205142   0.004284
    17  O   -0.005255   0.000971
 APT charges:
               1
     1  C   -0.260035
     2  C   -0.686701
     3  C   -0.781017
     4  C   -0.860697
     5  C   -0.795481
     6  C   -0.381244
     7  H    0.429712
     8  H    0.482053
     9  H    0.314364
    10  H    0.314562
    11  H    0.551659
    12  H    0.512590
    13  H    0.296633
    14  H    0.280957
    15  H    0.405466
    16  O   -0.025947
    17  O   -0.698630
    18  H    0.672585
    19  H    0.229171
 Sum of APT charges =  -0.00000
 APT charges with hydrogens summed into heavy atoms:
               1
     1  C   -0.030864
     2  C   -0.000279
     3  C    0.028206
     4  C    0.005524
     5  C    0.000936
     6  C    0.048468
    16  O   -0.025947
    17  O   -0.026045
 Electronic spatial extent (au):  <R**2>=           1101.7860
 Charge=             -0.0000 electrons
 Dipole moment (field-independent basis, Debye):
    X=              0.9699    Y=             -0.5840    Z=              1.5487  Tot=              1.9184
 Quadrupole moment (field-independent basis, Debye-Ang):
   XX=            -47.3373   YY=            -49.4687   ZZ=            -49.6825
   XY=              1.8773   XZ=             -4.5470   YZ=             -0.8298
 Traceless Quadrupole moment (field-independent basis, Debye-Ang):
   XX=              1.4922   YY=             -0.6392   ZZ=             -0.8530
   XY=              1.8773   XZ=             -4.5470   YZ=             -0.8298
 Octapole moment (field-independent basis, Debye-Ang**2):
  XXX=            -39.0730  YYY=              0.1512  ZZZ=              0.8060  XYY=             -4.5196
  XXY=             -7.4064  XXZ=             14.5628  XZZ=             -8.0763  YZZ=             -1.2064
  YYZ=             -1.4012  XYZ=              2.4903
 Hexadecapole moment (field-independent basis, Debye-Ang**3):
 XXXX=           -838.0777 YYYY=           -368.4784 ZZZZ=           -108.2363 XXXY=             25.8937
 XXXZ=            -49.8127 YYYX=             -2.0338 YYYZ=             -3.7880 ZZZX=             -3.4855
 ZZZY=              2.0352 XXYY=           -222.0156 XXZZ=           -168.7008 YYZZ=            -81.6958
 XXYZ=             -3.7034 YYXZ=             -2.1298 ZZXY=              0.9530
 N-N= 3.950031349395D+02 E-N=-1.690154567869D+03  KE= 3.831633045239D+02
  Exact polarizability:       0.000       0.000       0.000       0.000       0.000       0.000
 Approx polarizability:     117.803      -4.178     108.156      -1.790       0.359     102.006
                          Isotropic Fermi Contact Couplings
        Atom                 a.u.       MegaHertz       Gauss      10(-4) cm-1
     1  C(13)             -0.02583     -29.03902     -10.36185      -9.68638
     2  C(13)              0.02247      25.25581       9.01190       8.42443
     3  C(13)             -0.00125      -1.40679      -0.50198      -0.46926
     4  C(13)              0.02206      24.79466       8.84735       8.27061
     5  C(13)             -0.02347     -26.38793      -9.41587      -8.80206
     6  C(13)              0.05242      58.93235      21.02853      19.65772
     7  H(1)              -0.01180     -52.73167     -18.81597     -17.58939
     8  H(1)               0.00356      15.92913       5.68391       5.31339
     9  H(1)               0.02763     123.50720      44.07044      41.19757
    10  H(1)              -0.00059      -2.64797      -0.94486      -0.88327
    11  H(1)               0.00045       2.03254       0.72526       0.67798
    12  H(1)               0.00088       3.91775       1.39795       1.30682
    13  H(1)               0.00006       0.27427       0.09786       0.09149
    14  H(1)              -0.00051      -2.28967      -0.81701      -0.76375
    15  H(1)               0.00024       1.06273       0.37921       0.35449
    16  O(17)              0.00057      -0.34810      -0.12421      -0.11611
    17  O(17)             -0.00111       0.67345       0.24030       0.22464
    18  H(1)               0.00005       0.21465       0.07659       0.07160
    19  H(1)               0.02186      97.71832      34.86833      32.59532
 --------------------------------------------------------
       Center         ----  Spin Dipole Couplings  ----
                      3XX-RR        3YY-RR        3ZZ-RR
 --------------------------------------------------------
     1   Atom       -0.001006      0.009913     -0.008907
     2   Atom        0.003861      0.016854     -0.020715
     3   Atom        0.001041      0.002657     -0.003698
     4   Atom        0.008570      0.012818     -0.021388
     5   Atom        0.012860     -0.011884     -0.000976
     6   Atom       -0.513320     -0.432353      0.945673
     7   Atom       -0.011946      0.005091      0.006856
     8   Atom        0.008252      0.000277     -0.008529
     9   Atom        0.007254     -0.007990      0.000736
    10   Atom        0.006594     -0.004847     -0.001747
    11   Atom        0.006875     -0.003258     -0.003617
    12   Atom        0.000380      0.001784     -0.002164
    13   Atom        0.000076      0.001285     -0.001361
    14   Atom       -0.007114      0.008921     -0.001807
    15   Atom       -0.003697      0.007133     -0.003436
    16   Atom        0.027208     -0.006355     -0.020853
    17   Atom       -0.000361      0.006664     -0.006303
    18   Atom        0.004122     -0.002218     -0.001904
    19   Atom       -0.006424      0.004813      0.001611
 --------------------------------------------------------
                        XY            XZ            YZ
 --------------------------------------------------------
     1   Atom        0.011695     -0.009658     -0.005975
     2   Atom       -0.025741      0.001045     -0.002041
     3   Atom       -0.006917      0.002373     -0.001985
     4   Atom       -0.027638      0.000717     -0.000101
     5   Atom        0.003991      0.004790      0.005846
     6   Atom       -0.081616     -0.274242      0.442284
     7   Atom       -0.067776      0.014609     -0.008818
     8   Atom        0.012031     -0.001528      0.000364
     9   Atom        0.004277      0.009940      0.003283
    10   Atom       -0.005190     -0.005467      0.003834
    11   Atom       -0.001960      0.001421      0.000419
    12   Atom       -0.003253      0.000193     -0.000128
    13   Atom       -0.003646      0.002497     -0.002921
    14   Atom       -0.002387     -0.002399      0.005881
    15   Atom        0.000001     -0.000535     -0.002025
    16   Atom        0.025701      0.008133      0.006928
    17   Atom        0.007336     -0.000311      0.005021
[...]
 91819,-0.02623380,0.01175325,0.55062135,0.00000442,0.00200945,0.001544
 48,-0.01013324,-0.00783280,0.00130516,-0.02873357,-0.15021953,0.032532
 80,0.02873331,0.42811865,0.00102260,0.00040169,-0.00019873,-0.00195327
 ,-0.00920946,0.00514182,0.01380546,0.03278226,-0.09632311,0.03375617,0
 .01328133,0.56456336,-0.01136357,-0.00797799,-0.00148428,0.00078451,-0
 .00026200,-0.00029640,0.00835973,-0.00350121,-0.00426204,-0.10703430,0
 .03247264,0.01689217,0.44726283,-0.02453290,-0.00176992,-0.00820823,0.
 00080873,0.00232784,-0.00083183,0.01818017,-0.03231042,-0.00653515,0.0
 3812563,-0.12814383,-0.01638558,0.05012049,0.52746861,0.00950866,-0.00
 066984,0.00760652,-0.00119325,-0.00004619,0.00018088,-0.00880706,0.009
 80467,0.00427121,0.02127994,-0.01754290,-0.08135986,-0.00731935,-0.051
 61183,0.49190498,-0.09519555,-0.02500051,0.00722205,0.01218401,0.01651
 703,-0.00651999,0.00170400,-0.00193581,-0.00029453,-0.02964332,0.00702
 665,-0.00533103,-0.20057053,-0.03131760,-0.02605506,0.54089763,-0.0350
 3263,-0.18131227,0.04479105,0.00027766,-0.03166778,0.00797797,-0.00031
 219,0.00157650,0.00068590,0.02490791,0.00748468,0.00552555,-0.02737306
 ,-0.09363947,0.00803410,-0.04737111,0.52673313,0.00784358,0.04510117,-
 0.06852396,-0.00240266,-0.00238540,0.00238764,-0.00050954,0.00071103,0
 .00053274,0.00333822,0.00211391,0.00158056,-0.03027903,0.00680762,-0.0
 5720071,0.08817104,-0.12353280,0.15635299,0.00970836,-0.00948889,0.003
 35152,-0.00104870,-0.00181122,0.00055866,-0.00025579,-0.00043418,0.000
 09325,-0.00370314,-0.00215490,-0.00225487,-0.01080863,0.01904769,-0.00
 397659,-0.17261859,0.13525771,-0.05393383,0.17962067,0.01780012,-0.013
 68340,0.00487092,-0.00260548,-0.00328556,0.00210106,-0.00070444,0.0002
 5233,-0.00005905,-0.00139962,-0.00042505,-0.00060363,-0.00743363,0.009
 37648,-0.00203235,0.13352292,-0.20440885,0.06445788,-0.14167315,0.2104
 4470,-0.00866042,0.00688865,0.00318491,0.00186072,-0.00036315,-0.00077
 627,0.00002693,0.00006423,0.00004093,0.00061996,-0.00199672,-0.0004929
 7,-0.00330704,0.00642870,0.00373374,-0.04841226,0.05901503,-0.03285825
 ,0.05538561,-0.06693254,0.02758413,-0.00381096,0.00237126,-0.00204138,
 -0.00028954,0.00026887,-0.00001373,-0.00292676,0.00265482,0.00157682,0
 .00635663,0.01692811,-0.01080700,-0.06686761,-0.05661700,0.03487174,-0
 .01070085,-0.03003190,0.01461304,0.00139182,0.00072805,0.00006701,0.07
 483386,-0.00079232,0.00196019,0.00019280,0.00046623,0.00056216,0.00001
 206,0.00455356,-0.00250151,-0.00244738,-0.00701683,-0.01962147,0.01159
 423,-0.05669737,-0.22446708,0.10305065,-0.00364550,-0.00624939,0.00195
 228,-0.00001057,0.00086340,-0.00103719,0.06294292,0.24521975,-0.001186
 98,-0.00009569,0.00040142,0.00016673,0.00011923,-0.00005435,0.00110275
 ,-0.00124304,-0.00009333,-0.00338548,-0.00926378,0.00406772,0.03594980
 ,0.10532066,-0.10550486,-0.00376496,-0.00832848,0.00331153,0.00057144,
 0.00005896,0.00006349,-0.03635134,-0.11226607,0.11357270,0.00119939,0.
 00139181,0.00011063,-0.00053680,0.00017129,0.00009509,0.00013682,-0.00
 123764,-0.00022994,0.00051001,0.00652474,0.02163549,-0.04233255,-0.008
 32251,-0.03323965,-0.01304023,-0.00591437,-0.03045609,-0.00112259,-0.0
 0013607,0.00088393,0.00136286,0.00152631,0.00831157,0.05554646,-0.0001
 6737,0.00072936,0.00055394,-0.00003911,-0.00021229,-0.00012768,-0.0006
 0314,0.00152538,-0.00124565,0.00039312,-0.00730599,-0.02647383,-0.0060
 8317,-0.05136163,-0.03673603,-0.00343568,-0.00060301,-0.00630282,0.000
 11452,-0.00038287,-0.00092426,0.00331675,0.00439366,0.02636618,0.00430
 081,0.05549156,0.00028476,0.00108705,-0.00047141,0.00003945,-0.0001165
 2,0.00017525,-0.00041407,0.00055078,0.00050345,0.00053321,-0.00241610,
 -0.01147552,-0.01817641,-0.03542401,-0.25712206,-0.01231580,-0.0022259
 6,-0.00442302,-0.00045482,-0.00069077,-0.00057478,-0.00128720,-0.00152
 121,-0.01750702,0.03079438,0.04412682,0.28801411,-0.00033107,0.0000157
 9,0.00028848,0.00059407,0.00050538,0.00111656,-0.00112038,0.00009102,0
 .01135627,-0.05081343,-0.00036232,0.00782301,-0.00199350,0.00244527,0.
 02002272,0.00141488,-0.00011101,0.00052015,0.00005049,0.00003626,-0.00
 009393,0.00083034,-0.00066055,-0.00057714,-0.00185245,0.00281038,0.001
 33416,0.05102903,-0.00001478,-0.00034108,-0.00014882,0.00113491,0.0012
 7473,0.00035876,-0.00179375,-0.00044391,0.03166489,-0.00052362,-0.0467
 0302,-0.01591038,0.00275966,-0.00430298,-0.02604796,-0.00177214,0.0004
 9782,0.00034712,-0.00000235,-0.00002969,0.00002605,-0.00081669,0.00086
 193,0.00006974,0.00401477,-0.00348619,-0.00176590,-0.00133536,0.056860
 70,-0.00008774,-0.00010144,-0.00011519,-0.00039489,-0.00078841,0.00044
 844,0.00038297,0.00085284,-0.01395520,0.00946437,-0.01566902,-0.296599
 31,0.00084946,-0.00182242,-0.00777727,-0.00064239,0.00046894,0.0008613
 8,0.00017486,0.00001032,-0.00004424,-0.00009070,-0.00052568,0.00074685
 ,0.00110953,-0.00130388,0.00084791,-0.01156172,0.01629926,0.32413936,0
 .00081933,0.00043873,-0.00014157,0.00082453,-0.00220767,0.00152520,-0.
 00937038,-0.00182268,-0.00349192,-0.26449228,-0.04175891,-0.07889432,-
 0.01789653,-0.00314138,-0.00582203,-0.00102521,0.00402725,0.00064764,-
 0.00091151,-0.00036446,0.00013628,0.00035742,0.00031126,-0.00032385,0.
 00090770,-0.00058299,0.00048011,0.00175301,0.00030120,-0.00054858,0.28
 898509,0.00024690,-0.00114983,-0.00012905,-0.00078849,-0.00521963,0.00
 341932,-0.02778260,-0.00546401,-0.01103923,-0.04174406,-0.05452462,-0.
 01487498,0.02556411,0.00400503,0.00724418,0.00179302,-0.00419713,-0.00
 079797,0.00121550,0.00045762,0.00020104,-0.00059992,0.00056146,0.00056
 865,-0.00093757,0.00133258,0.00028025,-0.00162260,-0.00070131,-0.00071
 578,0.04502127,0.06233196,-0.00019554,0.00006584,-0.00005500,0.0004671
 9,0.00201166,-0.00072895,0.01329032,0.00273003,0.00376192,-0.08136109,
 -0.01544757,-0.07888409,0.01028506,0.00117923,0.00213694,0.00053305,-0
 .00140046,0.00052910,0.00046748,0.00016687,0.00025383,-0.00046149,0.00
 025931,-0.00003096,0.00010177,0.00062821,0.00060929,-0.03001977,-0.005
 76558,-0.01073408,0.08633888,0.01659349,0.08144879,-0.00387440,-0.0041
 1603,-0.00352540,-0.02121375,0.02360513,0.00918863,-0.13600397,0.11398
 215,0.04490104,0.00773733,-0.00967481,-0.00429201,-0.00047456,-0.00212
 113,0.00115716,0.00000227,-0.00051563,0.00007248,0.00010022,0.00008945
 ,-0.00003169,0.00050967,-0.00066677,0.00000150,-0.00007380,0.00010919,
 0.00008209,0.00031309,0.00060260,-0.00030859,0.00059575,0.00054644,-0.
 00041946,0.15093604,-0.00174584,0.00026776,-0.00051898,-0.00462752,0.0
 0564558,0.00231388,0.11406024,-0.19028578,-0.05646035,0.01708416,-0.02
 213861,-0.00908226,-0.00375753,-0.00410493,0.00381553,-0.00076577,0.00
 032208,-0.00010938,0.00010859,0.00008499,0.00000515,0.00128157,-0.0014
 4271,-0.00045451,-0.00015273,0.00032307,-0.00006038,0.00027944,0.00122
 582,0.00040457,-0.00038478,0.00077521,-0.00061267,-0.12232454,0.208762
 50,-0.00169962,-0.00067884,-0.00070494,-0.00766308,0.00860234,0.002454
 40,0.04595233,-0.05775240,-0.07110450,-0.00831265,0.01076865,0.0032114
 9,0.00085380,0.00186512,-0.00050545,0.00018430,-0.00020231,-0.00018377
 ,0.00001700,-0.00005012,-0.00005109,-0.00023960,0.00054452,0.00043389,
 -0.00000779,0.00036219,0.00032321,-0.00057859,-0.00045301,0.00059252,-
 0.00005717,-0.00072195,0.00024073,-0.04846430,0.06124371,0.07373392,0.
 00153962,-0.00042651,-0.00164627,-0.00298718,-0.00152435,-0.03329603,-
 0.04839847,0.00153236,-0.00588262,-0.00052040,-0.00012020,0.01301025,0
 .00017340,0.00049740,-0.00063192,-0.00036542,-0.00004798,0.00003361,0.
 00003790,0.00005442,-0.00001870,-0.00011524,0.00006852,-0.00001727,0.0
 0023123,-0.00007194,-0.00026326,0.00000869,-0.00270981,0.00075887,0.00
 022472,0.00054465,0.00007436,0.00048386,0.00024861,0.01943629,0.054195
 11,0.00038267,0.00010392,0.00072973,-0.00064646,-0.00094072,-0.0070623
 2,0.00170034,-0.04950370,-0.00924591,0.00009169,-0.00061370,0.03094700
 ,0.00010085,0.00201323,0.00072212,-0.00002021,-0.00026820,-0.00000330,
 0.00004453,0.00002226,0.00001244,-0.00020246,0.00026353,-0.00034822,0.
 00001718,-0.00018924,-0.00070127,-0.00189996,-0.00491943,0.00252664,0.
 00025986,0.00123217,-0.00074598,-0.00105371,-0.00081551,-0.02455508,0.
 00267501,0.05273683,0.00071467,-0.00031831,-0.00040534,-0.00174739,-0.
 00085980,-0.01035948,-0.00665568,-0.00851824,-0.29202860,0.00081824,0.
 00060747,-0.01368259,-0.00019067,-0.00083228,0.00055396,-0.00020616,0.
 00022691,-0.00013562,-0.00001110,0.00001395,-0.00002937,0.00005154,0.0
 0003745,0.00037810,-0.00034302,0.00070678,0.00050757,0.00107513,0.0023
 5206,0.00063096,0.00046176,0.00015560,0.00064942,0.00047258,-0.0011861
 3,-0.01014356,0.00827800,0.00789311,0.32133017,-0.00136784,0.00335580,
 0.02177477,-0.04552142,-0.00163945,-0.00454975,-0.00284198,-0.00343710
 ,-0.03346584,0.00174486,0.00087036,-0.00070444,-0.00024688,-0.00006424
 ,0.00011149,0.00027450,-0.00149060,-0.00032321,-0.00000356,0.00004947,
 -0.00004837,0.00008162,-0.00003762,0.00001431,-0.00005594,0.00011696,0
 .00010247,-0.00005835,-0.00029939,0.00079324,0.00014606,0.00045054,0.0
 0030597,0.00144725,0.00046242,0.00047412,-0.00580848,-0.00166366,-0.00
 188509,0.05371792,0.00030126,-0.00373992,-0.02699497,-0.00098366,-0.05
 254376,-0.01858237,-0.00044058,-0.00099851,-0.00525110,0.00028289,0.00
 023126,-0.00107580,-0.00000794,-0.00037471,-0.00013138,0.00003595,0.00
 160857,-0.00048065,0.00000683,-0.00002452,0.00014035,-0.00004420,-0.00
 003819,-0.00000945,0.00003637,0.00002903,0.00013196,-0.00021327,0.0000
 6482,0.00013980,0.00005943,0.00006580,0.00015367,0.00010071,0.00020287
 ,0.00051683,-0.00090893,0.00064894,-0.00046700,-0.00076723,0.05373687,
 0.00142275,-0.00243761,-0.01050299,-0.00408953,-0.02031367,-0.29890962
 ,-0.00157256,-0.00072897,-0.01010731,0.00080651,0.00026950,0.00054083,
 -0.00005424,-0.00023768,-0.00000589,-0.00015803,0.00104800,0.00094699,
 -0.00004263,-0.00020500,-0.00006287,-0.00004060,-0.00007528,-0.0000282
 4,-0.00003224,0.00009639,-0.00002951,-0.00024077,-0.00066036,0.0005024
 0,-0.00005296,0.00007844,0.00033108,-0.00030410,0.00037130,0.00053016,
 -0.00177841,-0.00005917,0.00093721,0.00594191,0.02438461,0.32667091,0.
 00574801,0.01943500,-0.00774285,-0.07476852,-0.07375601,0.03471330,-0.
 01036835,-0.02736028,0.01358448,-0.00589593,0.00065593,-0.00339655,-0.
 00018472,0.00028524,0.00016901,-0.00312134,0.00191649,0.00038231,0.000
 47181,0.00091353,-0.00030973,0.00014254,-0.00008289,-0.00002887,0.0001
 2689,-0.00005208,-0.00000677,0.00013124,0.00037188,-0.00005943,-0.0006
 5840,-0.00195420,0.00053893,0.00097831,0.00054107,0.00065480,0.0013472
 0,0.00029525,-0.00030203,0.00004864,0.00088762,-0.00011176,0.08369211,
 -0.00829037,-0.02404340,0.00945483,-0.07207711,-0.23472811,0.08738256,
 -0.00151112,-0.00344993,0.00130630,-0.00093896,0.00121424,-0.00082177,
 0.00040091,0.00040568,0.00011340,0.00458738,-0.00190284,-0.00119820,-0
 .00063917,-0.00115259,0.00006554,-0.00011538,0.00004467,0.00005119,-0.
 00012527,-0.00000729,-0.00005851,0.00003033,0.00002716,0.00009451,0.00
 005849,-0.00023268,0.00024496,-0.00035511,0.00064633,-0.00008256,0.000
 01667,0.00006977,-0.00035728,0.00131994,0.00304888,-0.00045886,0.07877
 289,0.25715173,-0.00326676,-0.01065869,0.00300891,0.03521234,0.0896889
 8,-0.09211738,-0.00418224,-0.01039600,0.00372561,-0.00166706,0.0000821
 4,-0.00034704,0.00002633,0.00004648,-0.00011932,0.00180552,-0.00053173
 ,0.00063056,-0.00025874,-0.00052134,0.00034947,0.00001727,0.00001151,-
 0.00003782,-0.00000296,-0.00000507,-0.00000980,-0.00023134,-0.00029470
 ,0.00036182,-0.00028062,-0.00028096,0.00042846,0.00068667,0.00024847,0
 .00015498,0.00067664,-0.00021183,0.00060966,0.01083415,0.02757107,-0.0
 1222249,-0.03786928,-0.09523225,0.09496916,-0.12703941,-0.05437661,-0.
 06926391,-0.03166983,0.00862139,-0.00563196,-0.00121211,0.00093905,0.0
 0038122,0.00041681,-0.00032453,-0.00015443,0.00207981,-0.00484821,0.00
 083617,-0.03405137,-0.01345193,-0.00941615,0.00099457,0.00193443,0.001
 18601,-0.00160692,-0.00024000,-0.00036252,-0.00049666,-0.00010876,-0.0
 0032610,-0.00005454,0.00005474,0.00018790,-0.00008340,0.00021652,0.000
 01376,-0.00025548,0.00012132,0.00031266,0.00041397,0.00002978,0.000320
 68,0.00042114,-0.00089520,-0.00050644,0.00128576,-0.00121905,-0.000247
 42,0.35310953,-0.01855202,-0.08850083,-0.03614256,0.02445387,0.0024741
 7,0.00983135,0.00298017,-0.00351532,-0.00126333,0.00031583,-0.00068184
 ,-0.00005510,0.00068520,-0.00665662,0.00280435,-0.03829637,-0.00514374
 ,-0.01674019,0.00134148,0.00169840,-0.00036230,-0.00219277,-0.00028886
 ,-0.00016206,-0.00010988,0.00006677,-0.00039883,-0.00000751,0.00010701
 ,0.00003386,-0.00010811,0.00032435,-0.00002128,0.00128573,0.00033881,0
 .00018228,-0.00011220,-0.00005943,-0.00000672,0.00007025,0.00089299,0.
 00056134,0.00050059,0.00136930,0.00057644,-0.03175621,0.21004794,-0.03
 820701,-0.04204985,-0.09975901,0.00714427,0.00374147,0.00475969,0.0018
 7399,-0.00188255,-0.00150465,-0.00001671,-0.00023754,0.00007187,0.0008
 7068,-0.00023894,-0.00014095,-0.00035939,-0.00134501,0.00554644,-0.000
 26445,-0.00112302,0.00002575,-0.00026026,0.00002924,0.00007620,0.00043
 879,0.00016928,0.00029693,-0.00005143,0.00000332,0.00010416,-0.0000399
 5,0.00002763,0.00002779,0.00074671,0.00008581,0.00057615,0.00024218,0.
 00000694,0.00058076,0.00087812,0.00032123,0.00038695,0.00004659,0.0001
 4895,0.00002272,0.02278543,0.11232143,0.17490381,-0.03442209,0.0402553
 3,0.01865915,-0.00826931,-0.00840690,-0.00572726,0.00027284,0.00424737
 ,0.00196494,0.00000122,0.00026309,-0.00026166,0.00045916,0.00080776,-0
 .00009890,0.00189956,-0.00060891,0.00131117,-0.00152557,-0.00054676,0.
 00012703,0.00015244,-0.00011011,0.00004201,-0.00007490,0.00004479,-0.0
 0003286,0.00004539,-0.00004383,0.00008231,-0.00015283,-0.00020859,0.00
 003108,-0.00149324,-0.00043083,-0.00057720,-0.00015235,-0.00008506,-0.
 00025339,0.00026943,-0.00024331,0.00012766,0.00023756,0.00030992,-0.00
 037704,-0.12510615,0.07058519,0.03151498,0.32496324,0.00891834,-0.0017
 2467,0.00693692,0.00117808,0.00437898,0.00253897,-0.00057109,-0.001218
 57,-0.00127160,0.00001598,-0.00006966,0.00011856,0.00017380,0.00034352
 ,-0.00022327,-0.00282406,0.00055890,0.00082870,-0.00077340,0.00078196,
 -0.00021021,0.00007298,0.00007463,-0.00000427,-0.00002057,-0.00005324,
 0.00002946,-0.00002777,0.00004120,0.00000722,0.00003375,0.00019055,-0.
 00003256,0.00054639,0.00019037,0.00022153,0.00007432,0.00001141,0.0001
 1809,-0.00046889,0.00004831,-0.00006208,-0.00052437,0.00042973,-0.0000
 6864,0.05856336,-0.12385287,-0.03504699,0.07572268,0.35079898,-0.00413
 665,0.00990466,0.00155324,-0.00137024,0.00121627,0.00139924,-0.0006770
 1,-0.00038301,0.00055589,0.00001393,-0.00007779,-0.00001583,-0.0001132
 5,0.00012643,-0.00016566,0.00065271,-0.00037947,0.00089827,0.00014104,
 0.00007381,0.00001949,0.00003489,0.00001466,-0.00002335,0.00003001,-0.
 00002692,0.00000764,-0.00003584,0.00002180,0.00001081,0.00001901,0.000
 04289,0.00000112,-0.00000485,0.00005409,0.00004821,0.00034456,0.000003
 64,0.00006266,-0.00096694,0.00064953,0.00057166,0.00012137,-0.00031489
 ,-0.00010206,0.06084566,-0.06376912,-0.05556346,-0.20510128,-0.1348629
 2,0.19852299,-0.00371776,0.00059481,0.00406142,-0.00046532,-0.00015587
 ,-0.00052267,-0.00011582,0.00017835,-0.00009751,0.00000406,0.00007745,
 0.00004314,-0.00002850,0.00009771,0.00005885,0.00012731,0.00034540,-0.
 00011552,0.00009503,0.00004959,-0.00004915,0.00007622,0.00003733,-0.00
 002272,0.00004266,-0.00001507,0.00003551,-0.00001086,-0.00000699,-0.00
 002146,0.00005714,0.00001199,0.00000272,0.00002462,-0.00003642,-0.0000
 3274,-0.00005835,0.00002155,-0.00001670,0.00014808,-0.00015846,-0.0001
 2475,-0.00008476,0.00016385,0.00001588,-0.02224279,-0.00769662,0.01440
 213,-0.16148009,-0.13850446,0.15016502,0.18796152,-0.00074869,-0.00274
 352,-0.00415059,0.00113443,0.00069393,0.00041430,0.00001163,-0.0005303
 4,-0.00000144,-0.00013626,-0.00008859,-0.00004427,-0.00000460,0.000383
 74,-0.00001271,0.00017856,-0.00080145,0.00045050,-0.00005376,0.0004904
 6,-0.00008694,0.00005022,0.00001778,0.00000682,-0.00005303,-0.00000934
 ,-0.00003652,0.00000048,-0.00000156,-0.00001120,-0.00002426,0.00003716
 ,0.00001458,0.00016053,0.00003815,0.00003797,0.00004425,0.00002386,0.0
 0002081,-0.00008258,0.00007830,0.00010276,0.00002887,-0.00013871,0.000
 08373,0.03606346,0.00868212,-0.02375772,-0.18106442,-0.23046259,0.1863
 3925,0.14497278,0.22390557,-0.00046676,-0.00020521,0.00162207,-0.00048
 688,-0.00010087,-0.00044022,-0.00004712,0.00015152,0.00017433,-0.00004
 493,-0.00000561,-0.00004057,0.00002648,-0.00006924,0.00018764,-0.00046
 835,-0.00004501,-0.00048534,0.00006399,0.00015510,-0.00001814,-0.00005
 596,-0.00001296,0.00000285,-0.00003852,-0.00000002,-0.00005301,0.00001
 374,-0.00000351,-0.00001293,-0.00002626,-0.00000225,0.00000568,-0.0000
 8011,-0.00000919,-0.00002216,-0.00001044,-0.00000766,-0.00004927,0.000
 10670,-0.00003130,-0.00004810,0.00003996,0.00000252,0.00007442,0.01080
 664,-0.00103816,-0.00783055,0.15786844,0.16097228,-0.15229621,-0.16709
 714,-0.16012239,0.15996303,-0.04970707,0.00049616,0.04458662,-0.003035
 52,0.00232817,0.02104263,0.00127478,-0.00038151,0.00090254,-0.00022117
 ,-0.00029424,0.00006128,0.00068243,0.00054888,-0.00087192,0.00182824,-
 0.00447112,0.01050280,-0.00047279,-0.00031462,0.00063780,0.00022245,0.
 00005439,-0.00013900,-0.00047812,-0.00004721,-0.00040883,0.00006436,0.
 00007894,-0.00008800,-0.00008020,0.00002709,0.00000678,0.00026078,0.00
 003855,-0.00025256,-0.00024979,-0.00004719,-0.00058136,-0.00239505,0.0
 0295171,0.00081019,0.00087194,-0.00038883,-0.00089134,-0.01490294,-0.0
 0338662,-0.04174466,0.00437570,-0.00158508,0.00003788,-0.00033242,-0.0
 0047761,-0.00010347,0.06229438,-0.00505343,-0.04428271,0.01824859,0.00
 639748,-0.00219572,-0.02525419,-0.00134052,0.00058926,0.00009403,0.000
 17871,-0.00068956,-0.00011356,0.00082084,0.00080747,-0.00053454,-0.007
 27675,-0.00858757,0.02878050,-0.00009526,-0.00108005,-0.00093386,0.000
 00476,-0.00021395,-0.00038587,-0.00097363,-0.00028031,-0.00079035,0.00
 002598,-0.00003199,0.00009988,-0.00011600,0.00017532,-0.00002174,-0.00
 020060,-0.00003599,0.00015113,0.00016570,0.00018403,0.00041352,0.00325
 501,-0.00293700,-0.00167365,-0.00087455,0.00124805,-0.00010762,0.00067
 646,0.00269768,-0.01117368,-0.00048741,-0.00046696,0.00136709,0.000023
 06,0.00042503,0.00037197,0.00487013,0.05467498,0.03472303,0.00471995,-
 0.25469558,0.00252153,-0.00088633,-0.00940552,-0.00025546,0.00028393,-
 0.00015685,0.00004724,0.00015160,0.00024196,-0.00027107,0.00042295,-0.
 00067385,0.00595928,0.01021776,-0.00976753,0.00037216,0.00030896,-0.00
 034776,0.00041694,0.00018705,0.00022517,0.00083902,0.00013638,0.000380
 76,-0.00015968,-0.00009278,-0.00000839,0.00007035,-0.00004932,0.000008
 92,0.00012164,-0.00004865,0.00041581,0.00069015,0.00009912,0.00059337,
 0.00060639,-0.00098503,0.00049883,-0.00042347,-0.00034043,0.00062014,-
 0.01176720,-0.00635139,-0.02258059,0.00070083,0.00001083,0.00451532,-0
 .00068431,0.00075305,-0.00073352,-0.03350737,-0.00853764,0.29086932\\0
 .00000061,-0.00000089,-0.00000149,0.00000033,0.00000078,-0.00000121,0.
 00000049,0.00000005,-0.00000005,-0.00000033,0.00000101,0.00000165,-0.0
 0000005,0.00000045,0.00000257,-0.00000056,-0.00000012,0.00000095,-0.00
 000056,0.00000022,0.00000131,-0.00000069,0.00000085,0.00000371,-0.0000
 0150,-0.00000094,0.00000233,0.00000097,0.00000245,0.00000158,-0.000000
 09,0.00000118,0.00000258,0.00000076,0.00000107,-0.00000069,-0.00000055
 ,-0.00000100,-0.00000057,0.00000147,0.00000140,-0.00000192,0.00000083,
 -0.00000054,-0.00000305,0.00000019,-0.00000023,-0.00000208,0.00000002,
 -0.00000146,-0.00000197,-0.00000044,-0.00000232,-0.00000279,-0.0000008
 8,-0.00000196,-0.00000086\\\@
 The archive entry for this job was punched.


 WHEN ALL ELSE FAILS, TRY THE BOSS'S SUGGESTION.
 Job cpu time:       0 days  2 hours 40 minutes 59.0 seconds.
 Elapsed time:       0 days  0 hours 20 minutes  7.8 seconds.
 File lengths (MBytes):  RWF=    421 Int=      0 D2E=      0 Chk=     17 Scr=      1
 Normal termination of Gaussian 16 at Fri Mar 25 17:41:23 2022.
