 Entering Gaussian System, Link 0=g16
 Input=Mol_02.com
 Output=Mol_02.log
 Initial command:
 /home/saurabh/gaussian/g16/l1.exe "/home/saurabh/gaussian/gauss_scr/Gau-28230.inp" -scrdir="/home/saurabh/gaussian/gauss_scr/"
 Entering Link 1 = /home/saurabh/gaussian/g16/l1.exe PID=     28231.
  
 Copyright (c) 1988-2019, Gaussian, Inc.  All Rights Reserved.
  
 This is part of the Gaussian(R) 16 program.  It is based on
 the Gaussian(R) 09 system (copyright 2009, Gaussian, Inc.),
 the Gaussian(R) 03 system (copyright 2003, Gaussian, Inc.),
 the Gaussian(R) 98 system (copyright 1998, Gaussian, Inc.),
 the Gaussian(R) 94 system (copyright 1995, Gaussian, Inc.),
 the Gaussian 92(TM) system (copyright 1992, Gaussian, Inc.),
 the Gaussian 90(TM) system (copyright 1990, Gaussian, Inc.),
 the Gaussian 88(TM) system (copyright 1988, Gaussian, Inc.),
 the Gaussian 86(TM) system (copyright 1986, Carnegie Mellon
 University), and the Gaussian 82(TM) system (copyright 1983,
 Carnegie Mellon University). Gaussian is a federally registered
 trademark of Gaussian, Inc.
  
 This software contains proprietary and confidential information,
 including trade secrets, belonging to Gaussian, Inc.
  
 This software is provided under written license and may be
 used, copied, transmitted, or stored only in accord with that
 written license.
  
 The following legend is applicable only to US Government
 contracts under FAR:
  
                    RESTRICTED RIGHTS LEGEND
  
 Use, reproduction and disclosure by the US Government is
 subject to restrictions as set forth in subparagraphs (a)
 and (c) of the Commercial Computer Software - Restricted
 Rights clause in FAR 52.227-19.
  
 Gaussian, Inc.
 340 Quinnipiac St., Bldg. 40, Wallingford CT 06492
  
  
 ---------------------------------------------------------------
 Warning -- This program may not be used in any manner that
 competes with the business of Gaussian, Inc. or will provide
 assistance to any competitor of Gaussian, Inc.  The licensee
 of this program is prohibited from giving any competitor of
 Gaussian, Inc. access to this program.  By using this program,
 the user acknowledges that Gaussian, Inc. is engaged in the
 business of creating and licensing software in the field of
 computational chemistry and represents and warrants to the
 licensee that it is not a competitor of Gaussian, Inc. and that
 it will not use this program in any manner prohibited above.
 ---------------------------------------------------------------
  

 Cite this work as:
 Gaussian 16, Revision C.01,
 M. J. Frisch, G. W. Trucks, H. B. Schlegel, G. E. Scuseria, 
 M. A. Robb, J. R. Cheeseman, G. Scalmani, V. Barone, 
 G. A. Petersson, H. Nakatsuji, X. Li, M. Caricato, A. V. Marenich, 
 J. Bloino, B. G. Janesko, R. Gomperts, B. Mennucci, H. P. Hratchian, 
 J. V. Ortiz, A. F. Izmaylov, J. L. Sonnenberg, D. Williams-Young, 
 F. Ding, F. Lipparini, F. Egidi, J. Goings, B. Peng, A. Petrone, 
 T. Henderson, D. Ranasinghe, V. G. Zakrzewski, J. Gao, N. Rega, 
 G. Zheng, W. Liang, M. Hada, M. Ehara, K. Toyota, R. Fukuda, 
 J. Hasegawa, M. Ishida, T. Nakajima, Y. Honda, O. Kitao, H. Nakai, 
 T. Vreven, K. Throssell, J. A. Montgomery, Jr., J. E. Peralta, 
 F. Ogliaro, M. J. Bearpark, J. J. Heyd, E. N. Brothers, K. N. Kudin, 
 V. N. Staroverov, T. A. Keith, R. Kobayashi, J. Normand, 
 K. Raghavachari, A. P. Rendell, J. C. Burant, S. S. Iyengar, 
 J. Tomasi, M. Cossi, J. M. Millam, M. Klene, C. Adamo, R. Cammi, 
 J. W. Ochterski, R. L. Martin, K. Morokuma, O. Farkas, 
 J. B. Foresman, and D. J. Fox, Gaussian, Inc., Wallingford CT, 2019.
 
 ******************************************
 Gaussian 16:  ES64L-G16RevC.01  3-Jul-2019
                25-Mar-2022 
 ******************************************
 %mem=8gb
 %nproc=8
 Will use up to    8 processors via shared memory.
 %chk=Mol_02.chk
 ----------------------------------------------------------------------
 #p B3LYP/cc-pVTZ scf(verytight, maxcycles=1000) opt(calcfc, maxcyc=100
 0) freq(hpmodes) int(grid=ultrafine)
 ----------------------------------------------------------------------
 1/6=1000,10=4,18=20,19=15,26=4,38=1/1,3;
 2/9=110,12=2,17=6,18=5,40=1/2;
 3/5=16,6=1,11=2,25=1,30=1,71=2,74=-5,75=-5,140=1/1,2,3;
 4//1;
 5/5=2,7=1000,17=3,38=5/2;
 8/6=4,10=90,11=11/1;
 11/6=1,8=1,9=11,15=111,16=1/1,2,10;
 10/6=1,13=1/2;
 6/7=2,8=2,9=2,10=2,28=1/1;
 7/10=1,25=1/1,2,3,16;
 1/6=1000,10=4,18=20,19=15,26=4/3(2);
 2/9=110/2;
 99//99;
 2/9=110/2;
 3/5=16,6=1,11=2,25=1,30=1,71=1,74=-5,75=-5/1,2,3;
 4/5=5,16=3,69=1/1;
 5/5=2,7=1000,17=3,38=5/2;
 7//1,2,3,16;
 1/6=1000,18=20,19=15,26=4/3(-5);
 2/9=110/2;
 6/7=2,8=2,9=2,10=2,19=2,28=1/1;
 99/9=1/99;
 Leave Link    1 at Fri Mar 25 15:42:52 2022, MaxMem=  1073741824 cpu:               0.5 elap:               0.1
 (Enter /home/saurabh/gaussian/g16/l101.exe)
 ------
 Mol_02
 ------
 Symbolic Z-matrix:
 Charge =  0 Multiplicity = 2
 C                     0.        0.        0. 
 C                    -1.236    -0.79186   0.43771 
 C                    -1.10097  -2.27442   0.0768 
 C                     0.18009  -2.87539   0.67084 
 C                     1.4161   -2.08297   0.22058 
 C                     1.28166  -0.59952   0.59418 
 H                     2.17131  -0.03194   0.22925 
 H                     1.2591   -0.49655   1.70526 
 H                     1.53654  -2.17849  -0.8849 
 H                     2.33463  -2.51177   0.68893 
 H                     0.27806  -3.94365   0.36091 
 H                     0.11478  -2.86096   1.78491 
 H                    -1.08814  -2.36945  -1.03412 
 H                    -1.99869  -2.82681   0.44264 
 H                    -1.39181  -0.67924   1.53723 
 O                    -2.37884  -0.26136  -0.24281 
 O                    -2.89822   0.8834    0.49972 
 H                    -0.11477   1.06523   0.31118 
 H                     0.05308  -0.01191  -1.11371 
 
 ITRead=  0  0  0  0  0  0  0  0  0  0  0  0  0  0  0  0  0  0  0
 MicOpt= -1 -1 -1 -1 -1 -1 -1 -1 -1 -1 -1 -1 -1 -1 -1 -1 -1 -1 -1
 NAtoms=     19 NQM=       19 NQMF=       0 NMMI=      0 NMMIF=      0
                NMic=       0 NMicF=      0.
                    Isotopes and Nuclear Properties:
 (Nuclear quadrupole moments (NQMom) in fm**2, nuclear magnetic moments (NMagM)
  in nuclear magnetons)

  Atom         1           2           3           4           5           6           7           8           9          10
 IAtWgt=          12          12          12          12          12          12           1           1           1           1
 AtmWgt=  12.0000000  12.0000000  12.0000000  12.0000000  12.0000000  12.0000000   1.0078250   1.0078250   1.0078250   1.0078250
 NucSpn=           0           0           0           0           0           0           1           1           1           1
 AtZEff=  -0.0000000  -0.0000000  -0.0000000  -0.0000000  -0.0000000  -0.0000000  -0.0000000  -0.0000000  -0.0000000  -0.0000000
 NQMom=    0.0000000   0.0000000   0.0000000   0.0000000   0.0000000   0.0000000   0.0000000   0.0000000   0.0000000   0.0000000
 NMagM=    0.0000000   0.0000000   0.0000000   0.0000000   0.0000000   0.0000000   2.7928460   2.7928460   2.7928460   2.7928460
 AtZNuc=   6.0000000   6.0000000   6.0000000   6.0000000   6.0000000   6.0000000   1.0000000   1.0000000   1.0000000   1.0000000

  Atom        11          12          13          14          15          16          17          18          19
 IAtWgt=           1           1           1           1           1          16          16           1           1
 AtmWgt=   1.0078250   1.0078250   1.0078250   1.0078250   1.0078250  15.9949146  15.9949146   1.0078250   1.0078250
 NucSpn=           1           1           1           1           1           0           0           1           1
 AtZEff=  -0.0000000  -0.0000000  -0.0000000  -0.0000000  -0.0000000  -0.0000000  -0.0000000  -0.0000000  -0.0000000
 NQMom=    0.0000000   0.0000000   0.0000000   0.0000000   0.0000000   0.0000000   0.0000000   0.0000000   0.0000000
 NMagM=    2.7928460   2.7928460   2.7928460   2.7928460   2.7928460   0.0000000   0.0000000   2.7928460   2.7928460
 AtZNuc=   1.0000000   1.0000000   1.0000000   1.0000000   1.0000000   8.0000000   8.0000000   1.0000000   1.0000000
 Leave Link  101 at Fri Mar 25 15:42:52 2022, MaxMem=  1073741824 cpu:               1.6 elap:               0.2
 (Enter /home/saurabh/gaussian/g16/l103.exe)

 GradGradGradGradGradGradGradGradGradGradGradGradGradGradGradGradGradGrad
 Berny optimization.
 Initialization pass.
                           ----------------------------
                           !    Initial Parameters    !
                           ! (Angstroms and Degrees)  !
 --------------------------                            --------------------------
 ! Name  Definition              Value          Derivative Info.                !
 --------------------------------------------------------------------------------
 ! R1    R(1,2)                  1.5318         calculate D2E/DX2 analytically  !
 ! R2    R(1,6)                  1.5346         calculate D2E/DX2 analytically  !
 ! R3    R(1,18)                 1.1157         calculate D2E/DX2 analytically  !
 ! R4    R(1,19)                 1.115          calculate D2E/DX2 analytically  !
 ! R5    R(2,3)                  1.5318         calculate D2E/DX2 analytically  !
 ! R6    R(2,15)                 1.1162         calculate D2E/DX2 analytically  !
 ! R7    R(2,16)                 1.432          calculate D2E/DX2 analytically  !
 ! R8    R(3,4)                  1.5347         calculate D2E/DX2 analytically  !
 ! R9    R(3,13)                 1.1151         calculate D2E/DX2 analytically  !
 ! R10   R(3,14)                 1.1157         calculate D2E/DX2 analytically  !
 ! R11   R(4,5)                  1.5357         calculate D2E/DX2 analytically  !
 ! R12   R(4,11)                 1.1166         calculate D2E/DX2 analytically  !
 ! R13   R(4,12)                 1.1161         calculate D2E/DX2 analytically  !
 ! R14   R(5,6)                  1.5357         calculate D2E/DX2 analytically  !
 ! R15   R(5,9)                  1.1161         calculate D2E/DX2 analytically  !
 ! R16   R(5,10)                 1.1167         calculate D2E/DX2 analytically  !
 ! R17   R(6,7)                  1.1166         calculate D2E/DX2 analytically  !
 ! R18   R(6,8)                  1.1161         calculate D2E/DX2 analytically  !
 ! R19   R(16,17)                1.46           calculate D2E/DX2 analytically  !
 ! A1    A(2,1,6)              111.1801         calculate D2E/DX2 analytically  !
 ! A2    A(2,1,18)             109.3219         calculate D2E/DX2 analytically  !
 ! A3    A(2,1,19)             108.5606         calculate D2E/DX2 analytically  !
 ! A4    A(6,1,18)             110.5433         calculate D2E/DX2 analytically  !
 ! A5    A(6,1,19)             110.0469         calculate D2E/DX2 analytically  !
 ! A6    A(18,1,19)            107.0783         calculate D2E/DX2 analytically  !
 ! A7    A(1,2,3)              111.2156         calculate D2E/DX2 analytically  !
 ! A8    A(1,2,15)             109.9966         calculate D2E/DX2 analytically  !
 ! A9    A(1,2,16)             108.4611         calculate D2E/DX2 analytically  !
 ! A10   A(3,2,15)             110.0014         calculate D2E/DX2 analytically  !
 ! A11   A(3,2,16)             108.4771         calculate D2E/DX2 analytically  !
 ! A12   A(15,2,16)            108.6231         calculate D2E/DX2 analytically  !
 ! A13   A(2,3,4)              111.1854         calculate D2E/DX2 analytically  !
 ! A14   A(2,3,13)             108.5559         calculate D2E/DX2 analytically  !
 ! A15   A(2,3,14)             109.3288         calculate D2E/DX2 analytically  !
 ! A16   A(4,3,13)             110.0395         calculate D2E/DX2 analytically  !
 ! A17   A(4,3,14)             110.5392         calculate D2E/DX2 analytically  !
 ! A18   A(13,3,14)            107.0823         calculate D2E/DX2 analytically  !
 ! A19   A(3,4,5)              110.8731         calculate D2E/DX2 analytically  !
 ! A20   A(3,4,11)             109.9035         calculate D2E/DX2 analytically  !
 ! A21   A(3,4,12)             109.4188         calculate D2E/DX2 analytically  !
 ! A22   A(5,4,11)             109.9783         calculate D2E/DX2 analytically  !
 ! A23   A(5,4,12)             109.4565         calculate D2E/DX2 analytically  !
 ! A24   A(11,4,12)            107.1318         calculate D2E/DX2 analytically  !
 ! A25   A(4,5,6)              110.8958         calculate D2E/DX2 analytically  !
 ! A26   A(4,5,9)              109.4558         calculate D2E/DX2 analytically  !
 ! A27   A(4,5,10)             109.9333         calculate D2E/DX2 analytically  !
 ! A28   A(6,5,9)              109.4562         calculate D2E/DX2 analytically  !
 ! A29   A(6,5,10)             109.9335         calculate D2E/DX2 analytically  !
 ! A30   A(9,5,10)             107.0852         calculate D2E/DX2 analytically  !
 ! A31   A(1,6,5)              110.8726         calculate D2E/DX2 analytically  !
 ! A32   A(1,6,7)              109.8945         calculate D2E/DX2 analytically  !
 ! A33   A(1,6,8)              109.4219         calculate D2E/DX2 analytically  !
 ! A34   A(5,6,7)              109.9844         calculate D2E/DX2 analytically  !
 ! A35   A(5,6,8)              109.4563         calculate D2E/DX2 analytically  !
 ! A36   A(7,6,8)              107.1323         calculate D2E/DX2 analytically  !
 ! A37   A(2,16,17)            109.4321         calculate D2E/DX2 analytically  !
 ! D1    D(6,1,2,3)            -55.5894         calculate D2E/DX2 analytically  !
 ! D2    D(6,1,2,15)            66.5319         calculate D2E/DX2 analytically  !
 ! D3    D(6,1,2,16)          -174.7989         calculate D2E/DX2 analytically  !
 ! D4    D(18,1,2,3)          -177.9101         calculate D2E/DX2 analytically  !
 ! D5    D(18,1,2,15)          -55.7888         calculate D2E/DX2 analytically  !
 ! D6    D(18,1,2,16)           62.8804         calculate D2E/DX2 analytically  !
 ! D7    D(19,1,2,3)            65.6018         calculate D2E/DX2 analytically  !
 ! D8    D(19,1,2,15)         -172.277          calculate D2E/DX2 analytically  !
 ! D9    D(19,1,2,16)          -53.6078         calculate D2E/DX2 analytically  !
 ! D10   D(2,1,6,5)             55.941          calculate D2E/DX2 analytically  !
 ! D11   D(2,1,6,7)            177.7422         calculate D2E/DX2 analytically  !
 ! D12   D(2,1,6,8)            -64.8853         calculate D2E/DX2 analytically  !
 ! D13   D(18,1,6,5)           177.5519         calculate D2E/DX2 analytically  !
 ! D14   D(18,1,6,7)           -60.6469         calculate D2E/DX2 analytically  !
 ! D15   D(18,1,6,8)            56.7256         calculate D2E/DX2 analytically  !
 ! D16   D(19,1,6,5)           -64.3752         calculate D2E/DX2 analytically  !
 ! D17   D(19,1,6,7)            57.426          calculate D2E/DX2 analytically  !
 ! D18   D(19,1,6,8)           174.7985         calculate D2E/DX2 analytically  !
 ! D19   D(1,2,3,4)             55.5826         calculate D2E/DX2 analytically  !
 ! D20   D(1,2,3,13)           -65.5996         calculate D2E/DX2 analytically  !
 ! D21   D(1,2,3,14)           177.9063         calculate D2E/DX2 analytically  !
 ! D22   D(15,2,3,4)           -66.5359         calculate D2E/DX2 analytically  !
 ! D23   D(15,2,3,13)          172.2819         calculate D2E/DX2 analytically  !
 ! D24   D(15,2,3,14)           55.7878         calculate D2E/DX2 analytically  !
 ! D25   D(16,2,3,4)           174.7825         calculate D2E/DX2 analytically  !
 ! D26   D(16,2,3,13)           53.6003         calculate D2E/DX2 analytically  !
 ! D27   D(16,2,3,14)          -62.8937         calculate D2E/DX2 analytically  !
 ! D28   D(1,2,16,17)          -84.9784         calculate D2E/DX2 analytically  !
 ! D29   D(3,2,16,17)          154.1043         calculate D2E/DX2 analytically  !
 ! D30   D(15,2,16,17)          34.5554         calculate D2E/DX2 analytically  !
 ! D31   D(2,3,4,5)            -55.9233         calculate D2E/DX2 analytically  !
 ! D32   D(2,3,4,11)          -177.7233         calculate D2E/DX2 analytically  !
 ! D33   D(2,3,4,12)            64.9015         calculate D2E/DX2 analytically  !
 ! D34   D(13,3,4,5)            64.3856         calculate D2E/DX2 analytically  !
 ! D35   D(13,3,4,11)          -57.4144         calculate D2E/DX2 analytically  !
 ! D36   D(13,3,4,12)         -174.7896         calculate D2E/DX2 analytically  !
 ! D37   D(14,3,4,5)          -177.5438         calculate D2E/DX2 analytically  !
 ! D38   D(14,3,4,11)           60.6563         calculate D2E/DX2 analytically  !
 ! D39   D(14,3,4,12)          -56.7189         calculate D2E/DX2 analytically  !
 ! D40   D(3,4,5,6)             56.3049         calculate D2E/DX2 analytically  !
 ! D41   D(3,4,5,9)            -64.5584         calculate D2E/DX2 analytically  !
 ! D42   D(3,4,5,10)           178.0836         calculate D2E/DX2 analytically  !
 ! D43   D(11,4,5,6)           178.061          calculate D2E/DX2 analytically  !
 ! D44   D(11,4,5,9)            57.1978         calculate D2E/DX2 analytically  !
 ! D45   D(11,4,5,10)          -60.1603         calculate D2E/DX2 analytically  !
 ! D46   D(12,4,5,6)           -64.4976         calculate D2E/DX2 analytically  !
 ! D47   D(12,4,5,9)           174.6391         calculate D2E/DX2 analytically  !
 ! D48   D(12,4,5,10)           57.2811         calculate D2E/DX2 analytically  !
 ! D49   D(4,5,6,1)            -56.3144         calculate D2E/DX2 analytically  !
 ! D50   D(4,5,6,7)           -178.0631         calculate D2E/DX2 analytically  !
 ! D51   D(4,5,6,8)             64.4915         calculate D2E/DX2 analytically  !
 ! D52   D(9,5,6,1)             64.5486         calculate D2E/DX2 analytically  !
 ! D53   D(9,5,6,7)            -57.2            calculate D2E/DX2 analytically  !
 ! D54   D(9,5,6,8)           -174.6455         calculate D2E/DX2 analytically  !
 ! D55   D(10,5,6,1)          -178.093          calculate D2E/DX2 analytically  !
 ! D56   D(10,5,6,7)            60.1584         calculate D2E/DX2 analytically  !
 ! D57   D(10,5,6,8)           -57.2871         calculate D2E/DX2 analytically  !
 --------------------------------------------------------------------------------
 Trust Radius=3.00D-01 FncErr=1.00D-07 GrdErr=1.00D-06 EigMax=2.50D+02 EigMin=1.00D-04
 Number of steps in this run=    114 maximum allowed number of steps=    114.
 GradGradGradGradGradGradGradGradGradGradGradGradGradGradGradGradGradGrad

 Leave Link  103 at Fri Mar 25 15:42:52 2022, MaxMem=  1073741824 cpu:               0.1 elap:               0.0
 (Enter /home/saurabh/gaussian/g16/l202.exe)
                          Input orientation:                          
 ---------------------------------------------------------------------
 Center     Atomic      Atomic             Coordinates (Angstroms)
 Number     Number       Type             X           Y           Z
 ---------------------------------------------------------------------
      1          6           0        0.000000    0.000000    0.000000
      2          6           0       -1.235996   -0.791856    0.437714
      3          6           0       -1.100971   -2.274425    0.076802
      4          6           0        0.180090   -2.875393    0.670837
      5          6           0        1.416101   -2.082965    0.220584
      6          6           0        1.281662   -0.599517    0.594184
      7          1           0        2.171313   -0.031936    0.229247
      8          1           0        1.259096   -0.496548    1.705260
      9          1           0        1.536536   -2.178490   -0.884896
     10          1           0        2.334630   -2.511774    0.688928
     11          1           0        0.278055   -3.943652    0.360905
     12          1           0        0.114775   -2.860961    1.784905
     13          1           0       -1.088137   -2.369450   -1.034119
     14          1           0       -1.998687   -2.826808    0.442640
     15          1           0       -1.391807   -0.679236    1.537227
     16          8           0       -2.378836   -0.261358   -0.242809
     17          8           0       -2.898224    0.883396    0.499724
     18          1           0       -0.114769    1.065233    0.311177
     19          1           0        0.053081   -0.011911   -1.113708
 ---------------------------------------------------------------------
                    Distance matrix (angstroms):
                    1          2          3          4          5
     1  C    0.000000
     2  C    1.531769   0.000000
     3  C    2.528052   1.531829   0.000000
     4  C    2.958097   2.529975   1.534652   0.000000
     5  C    2.528387   2.957656   2.528435   1.535706   0.000000
     6  C    1.534644   2.529838   2.958030   2.529614   1.535666
     7  H    2.183615   3.497241   3.969866   3.499317   2.185667
     8  H    2.177107   2.814136   3.373817   2.809482   2.178447
     9  H    2.808879   3.370309   2.809005   2.178514   1.116116
    10  H    3.497732   3.971221   3.497769   2.185083   1.116655
    11  H    3.969881   3.497437   2.183746   1.116616   2.185634
    12  H    3.374042   2.814374   2.177080   1.116074   2.178492
    13  H    2.804949   2.162627   1.115052   2.184320   2.815593
    14  H    3.490204   2.173189   1.115732   2.191233   3.501912
    15  H    2.182099   1.116194   2.182213   2.836300   3.404167
    16  O    2.405437   1.432000   2.405728   3.770415   4.234918
    17  O    3.070801   2.360787   3.657980   4.861460   5.243150
    18  H    1.115672   2.173003   3.490106   3.967976   3.501845
    19  H    1.115036   2.162624   2.805017   3.376427   2.815568
                    6          7          8          9         10
     6  C    0.000000
     7  H    1.116605   0.000000
     8  H    1.116065   1.796279   0.000000
     9  H    2.178484   2.500390   3.100776   0.000000
    10  H    2.185050   2.527365   2.500168   1.795816   0.000000
    11  H    3.499269   4.347790   3.827827   2.500318   2.527326
    12  H    2.809550   3.827898   2.627977   3.100808   2.500171
    13  H    3.376386   4.205244   4.064660   2.635838   3.834642
    14  H    3.967931   5.024515   4.199699   3.831510   4.351728
    15  H    2.836040   3.850407   2.662498   4.085295   4.238412
    16  O    3.770167   4.580320   4.133381   4.406564   5.305589
    17  O    4.436147   5.158604   4.543223   5.564119   6.240652
    18  H    2.191234   2.537058   2.504023   3.831336   4.351693
    19  H    2.184396   2.508154   3.104179   2.635727   3.834616
                   11         12         13         14         15
    11  H    0.000000
    12  H    1.796290   0.000000
    13  H    2.508124   3.104106   0.000000
    14  H    2.537238   2.503910   1.794184   0.000000
    15  H    3.850790   2.662904   3.092064   2.485657   0.000000
    16  O    4.580702   4.133722   2.595405   2.682515   2.077830
    17  O    5.780001   4.974944   4.026176   3.818120   2.405727
    18  H    5.024511   4.199948   3.815012   4.326016   2.485397
    19  H    4.205197   4.064831   2.620439   3.815182   3.092003
                   16         17         18         19
    16  O    0.000000
    17  O    1.459993   0.000000
    18  H    2.681929   2.795754   0.000000
    19  H    2.595171   3.480652   1.794076   0.000000
 Stoichiometry    C6H11O2(2)
 Framework group  C1[X(C6H11O2)]
 Deg. of freedom    51
 Full point group                 C1      NOp   1
 Largest Abelian subgroup         C1      NOp   1
 Largest concise Abelian subgroup C1      NOp   1
                         Standard orientation:                         
 ---------------------------------------------------------------------
 Center     Atomic      Atomic             Coordinates (Angstroms)
 Number     Number       Type             X           Y           Z
 ---------------------------------------------------------------------
      1          6           0       -0.109908    1.148043   -0.308420
      2          6           0       -0.666435   -0.189696    0.188618
      3          6           0        0.257703   -1.350443   -0.192349
      4          6           0        1.683292   -1.117444    0.325886
      5          6           0        2.238884    0.220490   -0.183668
      6          6           0        1.315372    1.382584    0.209944
      7          1           0        1.714795    2.342346   -0.197640
      8          1           0        1.294543    1.480795    1.321484
      9          1           0        2.336745    0.183359   -1.294865
     10          1           0        3.261989    0.390257    0.230281
     11          1           0        2.347240   -1.954585    0.001542
     12          1           0        1.676863   -1.116431    1.441941
     13          1           0        0.266042   -1.447518   -1.303135
     14          1           0       -0.156858   -2.302110    0.216708
     15          1           0       -0.803422   -0.158346    1.295930
     16          8           0       -1.942579   -0.405681   -0.424106
     17          8           0       -2.976221    0.268862    0.355739
     18          1           0       -0.785994    1.973300    0.018051
     19          1           0       -0.114990    1.142278   -1.423429
 ---------------------------------------------------------------------
 Rotational constants (GHZ):           3.9973949           1.3545919           1.1009990
 Leave Link  202 at Fri Mar 25 15:42:52 2022, MaxMem=  1073741824 cpu:               0.1 elap:               0.0
 (Enter /home/saurabh/gaussian/g16/l301.exe)
 Standard basis: CC-pVTZ (5D, 7F)
 Ernie: Thresh=  0.10000D-02 Tol=  0.10000D-05 Strict=F.
 Ernie:  24 primitive shells out of 296 were deleted.
 There are   445 symmetry adapted cartesian basis functions of A   symmetry.
 There are   394 symmetry adapted basis functions of A   symmetry.
   394 basis functions,   603 primitive gaussians,   445 cartesian basis functions
    32 alpha electrons       31 beta electrons
       nuclear repulsion energy       393.1972511389 Hartrees.
 IExCor=  402 DFT=T Ex+Corr=B3LYP ExCW=0 ScaHFX=  0.200000
 ScaDFX=  0.800000  0.720000  1.000000  0.810000 ScalE2=  1.000000  1.000000
 IRadAn=      5 IRanWt=     -1 IRanGd=            0 ICorTp=0 IEmpDi=  4
 NAtoms=   19 NActive=   19 NUniq=   19 SFac= 1.00D+00 NAtFMM=   60 NAOKFM=F Big=F
 Integral buffers will be    131072 words long.
 Raffenetti 2 integral format.
 Two-electron integral symmetry is turned on.
 Leave Link  301 at Fri Mar 25 15:42:52 2022, MaxMem=  1073741824 cpu:               0.4 elap:               0.1
 (Enter /home/saurabh/gaussian/g16/l302.exe)
 NPDir=0 NMtPBC=     1 NCelOv=     1 NCel=       1 NClECP=     1 NCelD=      1
         NCelK=      1 NCelE2=     1 NClLst=     1 CellRange=     0.0.
 One-electron integrals computed using PRISM.
 One-electron integral symmetry used in STVInt
 NBasis=   394 RedAO= T EigKep=  3.25D-04  NBF=   394
 NBsUse=   394 1.00D-06 EigRej= -1.00D+00 NBFU=   394
 Precomputing XC quadrature grid using
 IXCGrd= 4 IRadAn=           5 IRanWt=          -1 IRanGd=           0 AccXCQ= 0.00D+00.
 Generated NRdTot=       0 NPtTot=           0 NUsed=           0 NTot=          32
 NSgBfM=   445   445   445   445   445 MxSgAt=    19 MxSgA2=    19.
 Leave Link  302 at Fri Mar 25 15:42:53 2022, MaxMem=  1073741824 cpu:               2.8 elap:               0.4
 (Enter /home/saurabh/gaussian/g16/l303.exe)
 DipDrv:  MaxL=1.
 Leave Link  303 at Fri Mar 25 15:42:53 2022, MaxMem=  1073741824 cpu:               0.4 elap:               0.1
 (Enter /home/saurabh/gaussian/g16/l401.exe)
 ExpMin= 1.03D-01 ExpMax= 1.53D+04 ExpMxC= 5.22D+02 IAcc=3 IRadAn=         5 AccDes= 0.00D+00
 Harris functional with IExCor=  402 and IRadAn=       5 diagonalized for initial guess.
 HarFok:  IExCor=  402 AccDes= 0.00D+00 IRadAn=         5 IDoV= 1 UseB2=F ITyADJ=14
 ICtDFT=  3500011 ScaDFX=  1.000000  1.000000  1.000000  1.000000
 FoFCou: FMM=F IPFlag=           0 FMFlag=      100000 FMFlg1=           0
         NFxFlg=           0 DoJE=T BraDBF=F KetDBF=T FulRan=T
         wScrn=  0.000000 ICntrl=       500 IOpCl=  0 I1Cent=   200000004 NGrid=           0
         NMat0=    1 NMatS0=      1 NMatT0=    0 NMatD0=    1 NMtDS0=    0 NMtDT0=    0
 Petite list used in FoFCou.
 Harris En= -385.733551973699    
 JPrj=0 DoOrth=F DoCkMO=F.
 Initial guess <Sx>= 0.0000 <Sy>= 0.0000 <Sz>= 0.5000 <S**2>= 0.7500 S= 0.5000
 Leave Link  401 at Fri Mar 25 15:42:54 2022, MaxMem=  1073741824 cpu:              11.2 elap:               1.4
 (Enter /home/saurabh/gaussian/g16/l502.exe)
 Integral symmetry usage will be decided dynamically.
 UHF open shell SCF:
 Using DIIS extrapolation, IDIIS=  1040.
 NGot=  1073741824 LenX=  1073337812 LenY=  1073139342
 Requested convergence on RMS density matrix=1.00D-08 within1000 cycles.
 Requested convergence on MAX density matrix=1.00D-06.
 Requested convergence on             energy=1.00D-06.
 No special actions if energy rises.
 Fock matrices will be formed incrementally for  20 cycles.
 Integral accuracy reduced to 1.0D-05 until final iterations.

 Cycle   1  Pass 0  IDiag  1:
 FoFJK:  IHMeth= 1 ICntrl=       0 DoSepK=F KAlg= 0 I1Cent=           0 FoldK=F
 IRaf= 960000000 NMat=       1 IRICut=       1 DoRegI=T DoRafI=F ISym2E= 0 IDoP0=0 IntGTp=1.
 FoFCou: FMM=F IPFlag=           0 FMFlag=      100000 FMFlg1=           0
         NFxFlg=           0 DoJE=F BraDBF=F KetDBF=F FulRan=T
         wScrn=  0.000000 ICntrl=         0 IOpCl=  1 I1Cent=           0 NGrid=           0
         NMat0=    1 NMatS0=      1 NMatT0=    0 NMatD0=    1 NMtDS0=    0 NMtDT0=    0
 Symmetry not used in FoFCou.
 E= -385.482364422079    
 DIIS: error= 2.52D-02 at cycle   1 NSaved=   1.
 NSaved= 1 IEnMin= 1 EnMin= -385.482364422079     IErMin= 1 ErrMin= 2.52D-02
 ErrMax= 2.52D-02  0.00D+00 EMaxC= 1.00D-01 BMatC= 9.91D-01 BMatP= 9.91D-01
 IDIUse=3 WtCom= 7.48D-01 WtEn= 2.52D-01
 Coeff-Com:  0.100D+01
 Coeff-En:   0.100D+01
 Coeff:      0.100D+01
 Gap=     0.296 Goal=   None    Shift=    0.000
 Gap=     0.103 Goal=   None    Shift=    0.000
 GapD=    0.103 DampG=1.000 DampE=0.500 DampFc=0.5000 IDamp=-1.
 Damping current iteration by 5.00D-01
 RMSDP=1.98D-03 MaxDP=6.94D-02              OVMax= 2.16D-01

 Cycle   2  Pass 0  IDiag  1:
 RMSU=  9.90D-04    CP:  9.93D-01
 E= -385.554274110973     Delta-E=       -0.071909688894 Rises=F Damp=T
 DIIS: error= 8.45D-03 at cycle   2 NSaved=   2.
 NSaved= 2 IEnMin= 2 EnMin= -385.554274110973     IErMin= 2 ErrMin= 8.45D-03
 ErrMax= 8.45D-03  0.00D+00 EMaxC= 1.00D-01 BMatC= 1.66D-01 BMatP= 9.91D-01
 IDIUse=3 WtCom= 9.15D-01 WtEn= 8.45D-02
 Coeff-Com:  0.195D+00 0.805D+00
 Coeff-En:   0.311D+00 0.689D+00
 Coeff:      0.205D+00 0.795D+00
 Gap=     0.328 Goal=   None    Shift=    0.000
 Gap=     0.181 Goal=   None    Shift=    0.000
 RMSDP=6.54D-04 MaxDP=3.10D-02 DE=-7.19D-02 OVMax= 1.61D-01

 Cycle   3  Pass 0  IDiag  1:
 RMSU=  6.02D-04    CP:  9.97D-01  7.42D-01
 E= -385.680607176179     Delta-E=       -0.126333065206 Rises=F Damp=F
 DIIS: error= 1.32D-02 at cycle   3 NSaved=   3.
 NSaved= 3 IEnMin= 3 EnMin= -385.680607176179     IErMin= 2 ErrMin= 8.45D-03
 ErrMax= 1.32D-02  0.00D+00 EMaxC= 1.00D-01 BMatC= 2.08D-01 BMatP= 1.66D-01
 IDIUse=2 WtCom= 0.00D+00 WtEn= 1.00D+00
 Coeff-En:   0.000D+00 0.000D+00 0.100D+01
 Coeff:      0.000D+00 0.000D+00 0.100D+01
 Gap=     0.332 Goal=   None    Shift=    0.000
 Gap=     0.107 Goal=   None    Shift=    0.000
 RMSDP=1.11D-03 MaxDP=7.62D-02 DE=-1.26D-01 OVMax= 1.90D-01

 Cycle   4  Pass 0  IDiag  1:
 RMSU=  7.30D-04    CP:  9.96D-01  9.98D-01 -3.35D-01
 E= -385.449318017691     Delta-E=        0.231289158488 Rises=F Damp=F
 DIIS: error= 3.47D-02 at cycle   4 NSaved=   4.
 NSaved= 4 IEnMin= 3 EnMin= -385.680607176179     IErMin= 2 ErrMin= 8.45D-03
 ErrMax= 3.47D-02  0.00D+00 EMaxC= 1.00D-01 BMatC= 1.52D+00 BMatP= 1.66D-01
 IDIUse=2 WtCom= 0.00D+00 WtEn= 1.00D+00
 Coeff-En:   0.000D+00 0.000D+00 0.810D+00 0.190D+00
 Coeff:      0.000D+00 0.000D+00 0.810D+00 0.190D+00
 Gap=     0.275 Goal=   None    Shift=    0.000
 Gap=     0.129 Goal=   None    Shift=    0.000
 RMSDP=5.88D-04 MaxDP=3.48D-02 DE= 2.31D-01 OVMax= 8.79D-02

 Cycle   5  Pass 0  IDiag  1:
 RMSU=  1.46D-04    CP:  9.96D-01  8.47D-01  2.79D-01  4.42D-01
 E= -385.690476393305     Delta-E=       -0.241158375614 Rises=F Damp=F
 DIIS: error= 1.10D-02 at cycle   5 NSaved=   5.
 NSaved= 5 IEnMin= 5 EnMin= -385.690476393305     IErMin= 2 ErrMin= 8.45D-03
 ErrMax= 1.10D-02  0.00D+00 EMaxC= 1.00D-01 BMatC= 1.60D-01 BMatP= 1.66D-01
 IDIUse=3 WtCom= 8.90D-01 WtEn= 1.10D-01
 Coeff-Com:  0.619D-02 0.913D-02 0.324D+00-0.145D+00 0.806D+00
 Coeff-En:   0.000D+00 0.000D+00 0.448D+00 0.000D+00 0.552D+00
 Coeff:      0.551D-02 0.813D-02 0.337D+00-0.129D+00 0.778D+00
 Gap=     0.297 Goal=   None    Shift=    0.000
 Gap=     0.146 Goal=   None    Shift=    0.000
 RMSDP=2.61D-04 MaxDP=1.67D-02 DE=-2.41D-01 OVMax= 4.34D-02

 Cycle   6  Pass 0  IDiag  1:
 RMSU=  3.05D-05    CP:  9.96D-01  7.87D-01  5.93D-01  2.13D-01  1.01D+00
 E= -385.718155397634     Delta-E=       -0.027679004330 Rises=F Damp=F
 DIIS: error= 3.74D-04 at cycle   6 NSaved=   6.
 NSaved= 6 IEnMin= 6 EnMin= -385.718155397634     IErMin= 6 ErrMin= 3.74D-04
 ErrMax= 3.74D-04  0.00D+00 EMaxC= 1.00D-01 BMatC= 2.00D-04 BMatP= 1.60D-01
 IDIUse=3 WtCom= 9.96D-01 WtEn= 3.74D-03
 Coeff-Com:  0.388D-03-0.697D-02 0.508D-01-0.266D-01 0.121D+00 0.861D+00
 Coeff-En:   0.000D+00 0.000D+00 0.000D+00 0.000D+00 0.000D+00 0.100D+01
 Coeff:      0.387D-03-0.694D-02 0.506D-01-0.265D-01 0.121D+00 0.861D+00
 Gap=     0.290 Goal=   None    Shift=    0.000
 Gap=     0.147 Goal=   None    Shift=    0.000
 RMSDP=2.40D-05 MaxDP=1.40D-03 DE=-2.77D-02 OVMax= 7.49D-03

 Cycle   7  Pass 0  IDiag  1:
 RMSU=  1.92D-05    CP:  9.96D-01  7.89D-01  6.09D-01  2.19D-01  1.04D+00
                    CP:  1.27D+00
 E= -385.718210893029     Delta-E=       -0.000055495395 Rises=F Damp=F
 DIIS: error= 3.87D-04 at cycle   7 NSaved=   7.
 NSaved= 7 IEnMin= 7 EnMin= -385.718210893029     IErMin= 6 ErrMin= 3.74D-04
 ErrMax= 3.87D-04  0.00D+00 EMaxC= 1.00D-01 BMatC= 1.43D-04 BMatP= 2.00D-04
 IDIUse=3 WtCom= 9.96D-01 WtEn= 3.74D-03
 Coeff-Com: -0.104D-02-0.146D-02-0.458D-01 0.161D-01-0.129D+00 0.393D+00
 Coeff-Com:  0.769D+00
 Coeff-En:   0.000D+00 0.000D+00 0.000D+00 0.000D+00 0.000D+00 0.000D+00
 Coeff-En:   0.100D+01
 Coeff:     -0.103D-02-0.146D-02-0.456D-01 0.160D-01-0.129D+00 0.391D+00
 Coeff:      0.769D+00
 Gap=     0.290 Goal=   None    Shift=    0.000
 Gap=     0.147 Goal=   None    Shift=    0.000
 RMSDP=1.56D-05 MaxDP=8.37D-04 DE=-5.55D-05 OVMax= 2.70D-03

 Cycle   8  Pass 0  IDiag  1:
 RMSU=  7.74D-06    CP:  9.96D-01  7.86D-01  6.12D-01  2.13D-01  1.10D+00
                    CP:  1.59D+00  9.93D-01
 E= -385.718249222911     Delta-E=       -0.000038329883 Rises=F Damp=F
 DIIS: error= 1.39D-04 at cycle   8 NSaved=   8.
 NSaved= 8 IEnMin= 8 EnMin= -385.718249222911     IErMin= 8 ErrMin= 1.39D-04
 ErrMax= 1.39D-04  0.00D+00 EMaxC= 1.00D-01 BMatC= 1.48D-05 BMatP= 1.43D-04
 IDIUse=3 WtCom= 9.99D-01 WtEn= 1.39D-03
 Coeff-Com: -0.433D-03 0.336D-02-0.151D-01 0.379D-02-0.364D-01-0.175D+00
 Coeff-Com:  0.140D-01 0.121D+01
 Coeff-En:   0.000D+00 0.000D+00 0.000D+00 0.000D+00 0.000D+00 0.000D+00
 Coeff-En:   0.000D+00 0.100D+01
 Coeff:     -0.433D-03 0.335D-02-0.151D-01 0.379D-02-0.363D-01-0.175D+00
 Coeff:      0.140D-01 0.121D+01
 Gap=     0.289 Goal=   None    Shift=    0.000
 Gap=     0.148 Goal=   None    Shift=    0.000
 RMSDP=1.10D-05 MaxDP=5.72D-04 DE=-3.83D-05 OVMax= 2.93D-03

 Cycle   9  Pass 0  IDiag  1:
 RMSU=  2.37D-06    CP:  9.96D-01  7.86D-01  6.17D-01  2.10D-01  1.13D+00
                    CP:  1.80D+00  1.29D+00  1.45D+00
 E= -385.718257773335     Delta-E=       -0.000008550423 Rises=F Damp=F
 DIIS: error= 2.63D-05 at cycle   9 NSaved=   9.
 NSaved= 9 IEnMin= 9 EnMin= -385.718257773335     IErMin= 9 ErrMin= 2.63D-05
 ErrMax= 2.63D-05  0.00D+00 EMaxC= 1.00D-01 BMatC= 1.04D-06 BMatP= 1.48D-05
 IDIUse=1 WtCom= 1.00D+00 WtEn= 0.00D+00
 Coeff-Com: -0.214D-04 0.103D-02 0.182D-02-0.840D-03 0.572D-02-0.928D-01
 Coeff-Com: -0.105D+00 0.332D+00 0.858D+00
 Coeff:     -0.214D-04 0.103D-02 0.182D-02-0.840D-03 0.572D-02-0.928D-01
 Coeff:     -0.105D+00 0.332D+00 0.858D+00
 Gap=     0.289 Goal=   None    Shift=    0.000
 Gap=     0.148 Goal=   None    Shift=    0.000
 RMSDP=2.99D-06 MaxDP=1.67D-04 DE=-8.55D-06 OVMax= 5.98D-04

 Initial convergence to 1.0D-05 achieved.  Increase integral accuracy.
 Cycle  10  Pass 1  IDiag  1:
 E= -385.718310067641     Delta-E=       -0.000052294306 Rises=F Damp=F
 DIIS: error= 4.22D-05 at cycle   1 NSaved=   1.
 NSaved= 1 IEnMin= 1 EnMin= -385.718310067641     IErMin= 1 ErrMin= 4.22D-05
 ErrMax= 4.22D-05  0.00D+00 EMaxC= 1.00D-01 BMatC= 2.27D-06 BMatP= 2.27D-06
 IDIUse=1 WtCom= 1.00D+00 WtEn= 0.00D+00
 Coeff-Com:  0.100D+01
 Coeff:      0.100D+01
 Gap=     0.289 Goal=   None    Shift=    0.000
 Gap=     0.148 Goal=   None    Shift=    0.000
 RMSDP=2.99D-06 MaxDP=1.67D-04 DE=-5.23D-05 OVMax= 2.35D-04

 Cycle  11  Pass 1  IDiag  1:
 RMSU=  8.38D-06    CP:  1.00D+00
 E= -385.718310220539     Delta-E=       -0.000000152899 Rises=F Damp=F
 DIIS: error= 2.08D-05 at cycle   2 NSaved=   2.
 NSaved= 2 IEnMin= 2 EnMin= -385.718310220539     IErMin= 2 ErrMin= 2.08D-05
 ErrMax= 2.08D-05  0.00D+00 EMaxC= 1.00D-01 BMatC= 8.38D-07 BMatP= 2.27D-06
 IDIUse=1 WtCom= 1.00D+00 WtEn= 0.00D+00
 Coeff-Com:  0.319D+00 0.681D+00
 Coeff:      0.319D+00 0.681D+00
 Gap=     0.289 Goal=   None    Shift=    0.000
 Gap=     0.148 Goal=   None    Shift=    0.000
 RMSDP=1.45D-06 MaxDP=5.33D-05 DE=-1.53D-07 OVMax= 2.53D-04

 Cycle  12  Pass 1  IDiag  1:
 RMSU=  1.45D-06    CP:  1.00D+00  1.00D+00
 E= -385.718310239349     Delta-E=       -0.000000018810 Rises=F Damp=F
 DIIS: error= 2.72D-05 at cycle   3 NSaved=   3.
 NSaved= 3 IEnMin= 3 EnMin= -385.718310239349     IErMin= 2 ErrMin= 2.08D-05
 ErrMax= 2.72D-05  0.00D+00 EMaxC= 1.00D-01 BMatC= 9.31D-07 BMatP= 8.38D-07
 IDIUse=1 WtCom= 1.00D+00 WtEn= 0.00D+00
 Coeff-Com:  0.473D-01 0.502D+00 0.450D+00
 Coeff:      0.473D-01 0.502D+00 0.450D+00
 Gap=     0.289 Goal=   None    Shift=    0.000
 Gap=     0.148 Goal=   None    Shift=    0.000
 RMSDP=9.51D-07 MaxDP=6.56D-05 DE=-1.88D-08 OVMax= 2.44D-04

 Cycle  13  Pass 1  IDiag  1:
 RMSU=  5.94D-07    CP:  1.00D+00  1.01D+00  4.89D-01
 E= -385.718310390773     Delta-E=       -0.000000151423 Rises=F Damp=F
 DIIS: error= 1.58D-05 at cycle   4 NSaved=   4.
 NSaved= 4 IEnMin= 4 EnMin= -385.718310390773     IErMin= 4 ErrMin= 1.58D-05
 ErrMax= 1.58D-05  0.00D+00 EMaxC= 1.00D-01 BMatC= 3.01D-07 BMatP= 8.38D-07
 IDIUse=1 WtCom= 1.00D+00 WtEn= 0.00D+00
 Coeff-Com: -0.150D-01 0.301D+00 0.368D+00 0.346D+00
 Coeff:     -0.150D-01 0.301D+00 0.368D+00 0.346D+00
 Gap=     0.289 Goal=   None    Shift=    0.000
 Gap=     0.148 Goal=   None    Shift=    0.000
 RMSDP=3.68D-07 MaxDP=1.93D-05 DE=-1.51D-07 OVMax= 6.65D-05

 Cycle  14  Pass 1  IDiag  1:
 RMSU=  2.83D-07    CP:  1.00D+00  1.01D+00  5.83D-01  6.82D-01
 E= -385.718310447507     Delta-E=       -0.000000056735 Rises=F Damp=F
 DIIS: error= 2.88D-06 at cycle   5 NSaved=   5.
 NSaved= 5 IEnMin= 5 EnMin= -385.718310447507     IErMin= 5 ErrMin= 2.88D-06
 ErrMax= 2.88D-06  0.00D+00 EMaxC= 1.00D-01 BMatC= 7.70D-09 BMatP= 3.01D-07
 IDIUse=1 WtCom= 1.00D+00 WtEn= 0.00D+00
 Coeff-Com: -0.569D-02-0.136D+00-0.116D+00-0.106D+00 0.136D+01
 Coeff:     -0.569D-02-0.136D+00-0.116D+00-0.106D+00 0.136D+01
 Gap=     0.289 Goal=   None    Shift=    0.000
 Gap=     0.148 Goal=   None    Shift=    0.000
 RMSDP=3.62D-07 MaxDP=2.45D-05 DE=-5.67D-08 OVMax= 1.70D-04

 Cycle  15  Pass 1  IDiag  1:
 RMSU=  1.39D-07    CP:  1.00D+00  1.02D+00  6.59D-01  1.00D+00  1.88D+00
 E= -385.718310459124     Delta-E=       -0.000000011616 Rises=F Damp=F
 DIIS: error= 2.12D-06 at cycle   6 NSaved=   6.
 NSaved= 6 IEnMin= 6 EnMin= -385.718310459124     IErMin= 6 ErrMin= 2.12D-06
 ErrMax= 2.12D-06  0.00D+00 EMaxC= 1.00D-01 BMatC= 6.58D-09 BMatP= 7.70D-09
 IDIUse=1 WtCom= 1.00D+00 WtEn= 0.00D+00
 Coeff-Com:  0.319D-02-0.257D+00-0.271D+00-0.267D+00 0.104D+01 0.757D+00
 Coeff:      0.319D-02-0.257D+00-0.271D+00-0.267D+00 0.104D+01 0.757D+00
 Gap=     0.289 Goal=   None    Shift=    0.000
 Gap=     0.148 Goal=   None    Shift=    0.000
 RMSDP=3.01D-07 MaxDP=2.21D-05 DE=-1.16D-08 OVMax= 1.54D-04

 Cycle  16  Pass 1  IDiag  1:
 RMSU=  8.94D-08    CP:  1.00D+00  1.02D+00  7.08D-01  1.27D+00  2.68D+00
                    CP:  1.13D+00
 E= -385.718310465534     Delta-E=       -0.000000006411 Rises=F Damp=F
 DIIS: error= 1.42D-06 at cycle   7 NSaved=   7.
 NSaved= 7 IEnMin= 7 EnMin= -385.718310465534     IErMin= 7 ErrMin= 1.42D-06
 ErrMax= 1.42D-06  0.00D+00 EMaxC= 1.00D-01 BMatC= 6.94D-10 BMatP= 6.58D-09
 IDIUse=1 WtCom= 1.00D+00 WtEn= 0.00D+00
 Coeff-Com:  0.772D-03-0.167D-01-0.177D-01-0.256D-01-0.108D-01 0.960D-01
 Coeff-Com:  0.974D+00
 Coeff:      0.772D-03-0.167D-01-0.177D-01-0.256D-01-0.108D-01 0.960D-01
 Coeff:      0.974D+00
 Gap=     0.289 Goal=   None    Shift=    0.000
 Gap=     0.148 Goal=   None    Shift=    0.000
 RMSDP=1.25D-07 MaxDP=9.01D-06 DE=-6.41D-09 OVMax= 7.66D-05

 Cycle  17  Pass 1  IDiag  1:
 RMSU=  3.61D-08    CP:  1.00D+00  1.02D+00  7.27D-01  1.35D+00  2.94D+00
                    CP:  1.49D+00  1.64D+00
 E= -385.718310467046     Delta-E=       -0.000000001512 Rises=F Damp=F
 DIIS: error= 1.12D-06 at cycle   8 NSaved=   8.
 NSaved= 8 IEnMin= 8 EnMin= -385.718310467046     IErMin= 8 ErrMin= 1.12D-06
 ErrMax= 1.12D-06  0.00D+00 EMaxC= 1.00D-01 BMatC= 4.46D-10 BMatP= 6.94D-10
 IDIUse=1 WtCom= 1.00D+00 WtEn= 0.00D+00
 Coeff-Com: -0.160D-02 0.154D+00 0.162D+00 0.156D+00-0.653D+00-0.438D+00
 Coeff-Com:  0.401D+00 0.122D+01
 Coeff:     -0.160D-02 0.154D+00 0.162D+00 0.156D+00-0.653D+00-0.438D+00
 Coeff:      0.401D+00 0.122D+01
 Gap=     0.289 Goal=   None    Shift=    0.000
 Gap=     0.148 Goal=   None    Shift=    0.000
 RMSDP=1.77D-07 MaxDP=1.40D-05 DE=-1.51D-09 OVMax= 1.11D-04

 Cycle  18  Pass 1  IDiag  1:
 RMSU=  8.44D-08    CP:  1.00D+00  1.02D+00  7.48D-01  1.46D+00  3.00D+00
                    CP:  2.01D+00  2.74D+00  2.02D+00
 E= -385.718310468611     Delta-E=       -0.000000001565 Rises=F Damp=F
 DIIS: error= 6.97D-07 at cycle   9 NSaved=   9.
 NSaved= 9 IEnMin= 9 EnMin= -385.718310468611     IErMin= 9 ErrMin= 6.97D-07
 ErrMax= 6.97D-07  0.00D+00 EMaxC= 1.00D-01 BMatC= 1.92D-10 BMatP= 4.46D-10
 IDIUse=1 WtCom= 1.00D+00 WtEn= 0.00D+00
 Coeff-Com: -0.116D-02 0.739D-01 0.755D-01 0.856D-01-0.252D+00-0.247D+00
 Coeff-Com: -0.542D+00 0.427D+00 0.138D+01
 Coeff:     -0.116D-02 0.739D-01 0.755D-01 0.856D-01-0.252D+00-0.247D+00
 Coeff:     -0.542D+00 0.427D+00 0.138D+01
 Gap=     0.289 Goal=   None    Shift=    0.000
 Gap=     0.148 Goal=   None    Shift=    0.000
 RMSDP=2.01D-07 MaxDP=1.64D-05 DE=-1.57D-09 OVMax= 1.26D-04

 Cycle  19  Pass 1  IDiag  1:
 RMSU=  9.73D-08    CP:  1.00D+00  1.02D+00  7.70D-01  1.57D+00  3.00D+00
                    CP:  2.60D+00  3.00D+00  3.00D+00  2.23D+00
 E= -385.718310469524     Delta-E=       -0.000000000912 Rises=F Damp=F
 DIIS: error= 2.18D-07 at cycle  10 NSaved=  10.
 NSaved=10 IEnMin=10 EnMin= -385.718310469524     IErMin=10 ErrMin= 2.18D-07
 ErrMax= 2.18D-07  0.00D+00 EMaxC= 1.00D-01 BMatC= 4.21D-11 BMatP= 1.92D-10
 IDIUse=1 WtCom= 1.00D+00 WtEn= 0.00D+00
 Coeff-Com:  0.106D-03-0.230D-01-0.265D-01-0.171D-01 0.116D+00 0.535D-01
 Coeff-Com: -0.266D+00-0.248D+00 0.410D+00 0.100D+01
 Coeff:      0.106D-03-0.230D-01-0.265D-01-0.171D-01 0.116D+00 0.535D-01
 Coeff:     -0.266D+00-0.248D+00 0.410D+00 0.100D+01
 Gap=     0.289 Goal=   None    Shift=    0.000
 Gap=     0.148 Goal=   None    Shift=    0.000
 RMSDP=7.46D-08 MaxDP=6.35D-06 DE=-9.12D-10 OVMax= 4.69D-05

 Cycle  20  Pass 1  IDiag  1:
 RMSU=  1.59D-08    CP:  1.00D+00  1.02D+00  7.78D-01  1.61D+00  3.00D+00
                    CP:  2.81D+00  3.00D+00  3.00D+00  2.67D+00  1.50D+00
 E= -385.718310469630     Delta-E=       -0.000000000106 Rises=F Damp=F
 DIIS: error= 5.73D-08 at cycle  11 NSaved=  11.
 NSaved=11 IEnMin=11 EnMin= -385.718310469630     IErMin=11 ErrMin= 5.73D-08
 ErrMax= 5.73D-08  0.00D+00 EMaxC= 1.00D-01 BMatC= 8.03D-12 BMatP= 4.21D-11
 IDIUse=1 WtCom= 1.00D+00 WtEn= 0.00D+00
 Coeff-Com:  0.203D-03-0.184D-01-0.206D-01-0.169D-01 0.761D-01 0.541D-01
 Coeff-Com: -0.156D-01-0.144D+00-0.629D-01 0.350D+00 0.797D+00
 Coeff:      0.203D-03-0.184D-01-0.206D-01-0.169D-01 0.761D-01 0.541D-01
 Coeff:     -0.156D-01-0.144D+00-0.629D-01 0.350D+00 0.797D+00
 Gap=     0.289 Goal=   None    Shift=    0.000
 Gap=     0.148 Goal=   None    Shift=    0.000
 RMSDP=1.42D-08 MaxDP=1.29D-06 DE=-1.06D-10 OVMax= 8.46D-06

 Cycle  21  Pass 1  IDiag  1:
 RMSU=  4.05D-09    CP:  1.00D+00  1.02D+00  7.78D-01  1.62D+00  3.00D+00
                    CP:  2.86D+00  3.00D+00  3.00D+00  2.74D+00  1.58D+00
                    CP:  1.22D+00
 E= -385.718310469638     Delta-E=       -0.000000000008 Rises=F Damp=F
 DIIS: error= 3.38D-08 at cycle  12 NSaved=  12.
 NSaved=12 IEnMin=12 EnMin= -385.718310469638     IErMin=12 ErrMin= 3.38D-08
 ErrMax= 3.38D-08  0.00D+00 EMaxC= 1.00D-01 BMatC= 1.91D-12 BMatP= 8.03D-12
 IDIUse=1 WtCom= 1.00D+00 WtEn= 0.00D+00
 Coeff-Com:  0.457D-04-0.691D-03-0.921D-03-0.800D-03-0.280D-02 0.588D-02
 Coeff-Com:  0.580D-01 0.173D-01-0.127D+00-0.135D+00 0.299D+00 0.888D+00
 Coeff:      0.457D-04-0.691D-03-0.921D-03-0.800D-03-0.280D-02 0.588D-02
 Coeff:      0.580D-01 0.173D-01-0.127D+00-0.135D+00 0.299D+00 0.888D+00
 Gap=     0.289 Goal=   None    Shift=    0.000
 Gap=     0.148 Goal=   None    Shift=    0.000
 RMSDP=4.89D-09 MaxDP=4.21D-07 DE=-8.07D-12 OVMax= 2.63D-06

 SCF Done:  E(UB3LYP) =  -385.718310470     A.U. after   21 cycles
            NFock= 21  Conv=0.49D-08     -V/T= 2.0081
 <Sx>= 0.0000 <Sy>= 0.0000 <Sz>= 0.5000 <S**2>= 0.7545 S= 0.5023
 <L.S>=  0.00000000000    
 KE= 3.826214946303D+02 PE=-1.685521940585D+03 EE= 5.239848843458D+02
 Annihilation of the first spin contaminant:
 S**2 before annihilation     0.7545,   after     0.7500
 Leave Link  502 at Fri Mar 25 15:45:50 2022, MaxMem=  1073741824 cpu:            1408.5 elap:             176.1
 (Enter /home/saurabh/gaussian/g16/l801.exe)
 DoSCS=F DFT=T ScalE2(SS,OS)=  1.000000  1.000000
 Range of M.O.s used for correlation:     1   394
 NBasis=   394 NAE=    32 NBE=    31 NFC=     0 NFV=     0
 NROrb=    394 NOA=    32 NOB=    31 NVA=   362 NVB=   363

 **** Warning!!: The largest alpha MO coefficient is  0.12549844D+02


 **** Warning!!: The largest beta MO coefficient is  0.12478561D+02

 Leave Link  801 at Fri Mar 25 15:45:50 2022, MaxMem=  1073741824 cpu:               0.2 elap:               0.0
 (Enter /home/saurabh/gaussian/g16/l1101.exe)
 Using compressed storage, NAtomX=    19.
 Will process     20 centers per pass.
 Leave Link 1101 at Fri Mar 25 15:45:51 2022, MaxMem=  1073741824 cpu:               3.4 elap:               0.4
 (Enter /home/saurabh/gaussian/g16/l1102.exe)
 Symmetrizing basis deriv contribution to polar:
 IMax=3 JMax=2 DiffMx= 0.00D+00
 Leave Link 1102 at Fri Mar 25 15:45:51 2022, MaxMem=  1073741824 cpu:               0.3 elap:               0.1
 (Enter /home/saurabh/gaussian/g16/l1110.exe)
 Forming Gx(P) for the SCF density, NAtomX=    19.
 Integral derivatives from FoFJK, PRISM(SPDF).
 Do as many integral derivatives as possible in FoFJK.
 G2DrvN: MDV=    1073739731.
 G2DrvN: will do    20 centers at a time, making    1 passes.
 Calling FoFCou, ICntrl=  3107 FMM=F I1Cent=   0 AccDes= 0.00D+00.
 FoFJK:  IHMeth= 1 ICntrl=    3107 DoSepK=F KAlg= 0 I1Cent=           0 FoldK=F
 IRaf=         0 NMat=       1 IRICut=       1 DoRegI=T DoRafI=F ISym2E= 0 IDoP0=0 IntGTp=1.
 FoFCou: FMM=F IPFlag=           0 FMFlag=      100000 FMFlg1=           0
         NFxFlg=           0 DoJE=F BraDBF=F KetDBF=F FulRan=T
         wScrn=  0.000000 ICntrl=      3107 IOpCl=  1 I1Cent=           0 NGrid=           0
         NMat0=    1 NMatS0=      1 NMatT0=    0 NMatD0=    1 NMtDS0=    0 NMtDT0=    0
 Symmetry not used in FoFCou.
 End of G2Drv F.D. properties file   721 does not exist.
 End of G2Drv F.D. properties file   722 does not exist.
 End of G2Drv F.D. properties file   788 does not exist.
 Leave Link 1110 at Fri Mar 25 15:49:21 2022, MaxMem=  1073741824 cpu:            1682.6 elap:             210.3
 (Enter /home/saurabh/gaussian/g16/l1002.exe)
 Minotr:  UHF open shell wavefunction.
          IDoAtm=1111111111111111111
          Direct CPHF calculation.
          Differentiating once with respect to nuclear coordinates.
          Requested convergence is 1.0D-08 RMS, and 1.0D-07 maximum.
          Secondary convergence is 1.0D-12 RMS, and 1.0D-12 maximum.
          NewPWx=T KeepS1=F KeepF1=F KeepIn=T MapXYZ=F SortEE=F KeepMc=T.
         5635 words used for storage of precomputed grid.
 Two-electron integrals replicated using symmetry.
          MDV=    1073741824 using IRadAn=       1.
          Solving linear equations simultaneously, MaxMat=     384.
 FoF2E skips out because all densities are zero.
 CalDSu exits because no D1Ps are significant.
 FoFJK:  IHMeth= 1 ICntrl=       0 DoSepK=F KAlg= 0 I1Cent=           0 FoldK=F
 IRaf= 950000000 NMat=      57 IRICut=     142 DoRegI=T DoRafI=T ISym2E= 2 IDoP0=3 IntGTp=3.
 FoFCou: FMM=F IPFlag=           0 FMFlag=      100000 FMFlg1=           0
         NFxFlg=           0 DoJE=F BraDBF=F KetDBF=F FulRan=T
         wScrn=  0.000000 ICntrl=         0 IOpCl=  1 I1Cent=           0 NGrid=           0
         NMat0=   57 NMatS0=     57 NMatT0=    0 NMatD0=   57 NMtDS0=    0 NMtDT0=    0
 Integrals replicated using symmetry in FoFCou.
 Raff kept on since  92.27% of shell-pairs survive, threshold=   0.20 IRatSp=92.
          There are    60 degrees of freedom in the 1st order CPHF.  IDoFFX=6 NUNeed=     0.
     54 vectors produced by pass  0 Test12= 3.81D-14 1.67D-09 XBig12= 2.38D-01 1.10D-01.
 AX will form    54 AO Fock derivatives at one time.
     54 vectors produced by pass  1 Test12= 3.81D-14 1.67D-09 XBig12= 2.21D-01 1.37D-01.
     54 vectors produced by pass  2 Test12= 3.81D-14 1.67D-09 XBig12= 3.49D-03 8.14D-03.
     54 vectors produced by pass  3 Test12= 3.81D-14 1.67D-09 XBig12= 4.02D-05 9.59D-04.
     54 vectors produced by pass  4 Test12= 3.81D-14 1.67D-09 XBig12= 2.41D-07 4.42D-05.
     54 vectors produced by pass  5 Test12= 3.81D-14 1.67D-09 XBig12= 1.37D-09 3.42D-06.
     26 vectors produced by pass  6 Test12= 3.81D-14 1.67D-09 XBig12= 6.93D-12 2.02D-07.
      7 vectors produced by pass  7 Test12= 3.81D-14 1.67D-09 XBig12= 3.43D-14 1.39D-08.
 InvSVY:  IOpt=1 It=  1 EMax= 5.00D-16
 Solved reduced A of dimension   357 with    60 vectors.
 End of Minotr F.D. properties file   721 does not exist.
 End of Minotr F.D. properties file   722 does not exist.
 End of Minotr F.D. properties file   788 does not exist.
 Leave Link 1002 at Fri Mar 25 15:58:48 2022, MaxMem=  1073741824 cpu:            4536.1 elap:             567.0
 (Enter /home/saurabh/gaussian/g16/l601.exe)
 Copying SCF densities to generalized density rwf, IOpCl= 1 IROHF=0.

 **********************************************************************

            Population analysis using the SCF Density.

 **********************************************************************

 Orbital symmetries:
 Alpha Orbitals:
       Occupied  (A) (A) (A) (A) (A) (A) (A) (A) (A) (A) (A) (A)
                 (A) (A) (A) (A) (A) (A) (A) (A) (A) (A) (A) (A)
                 (A) (A) (A) (A) (A) (A) (A) (A)
       Virtual   (A) (A) (A) (A) (A) (A) (A) (A) (A) (A) (A) (A)
                 (A) (A) (A) (A) (A) (A) (A) (A) (A) (A) (A) (A)
                 (A) (A) (A) (A) (A) (A) (A) (A) (A) (A) (A) (A)
                 (A) (A) (A) (A) (A) (A) (A) (A) (A) (A) (A) (A)
                 (A) (A) (A) (A) (A) (A) (A) (A) (A) (A) (A) (A)
                 (A) (A) (A) (A) (A) (A) (A) (A) (A) (A) (A) (A)
                 (A) (A) (A) (A) (A) (A) (A) (A) (A) (A) (A) (A)
                 (A) (A) (A) (A) (A) (A) (A) (A) (A) (A) (A) (A)
                 (A) (A) (A) (A) (A) (A) (A) (A) (A) (A) (A) (A)
                 (A) (A) (A) (A) (A) (A) (A) (A) (A) (A) (A) (A)
                 (A) (A) (A) (A) (A) (A) (A) (A) (A) (A) (A) (A)
                 (A) (A) (A) (A) (A) (A) (A) (A) (A) (A) (A) (A)
                 (A) (A) (A) (A) (A) (A) (A) (A) (A) (A) (A) (A)
                 (A) (A) (A) (A) (A) (A) (A) (A) (A) (A) (A) (A)
                 (A) (A) (A) (A) (A) (A) (A) (A) (A) (A) (A) (A)
                 (A) (A) (A) (A) (A) (A) (A) (A) (A) (A) (A) (A)
                 (A) (A) (A) (A) (A) (A) (A) (A) (A) (A) (A) (A)
                 (A) (A) (A) (A) (A) (A) (A) (A) (A) (A) (A) (A)
                 (A) (A) (A) (A) (A) (A) (A) (A) (A) (A) (A) (A)
                 (A) (A) (A) (A) (A) (A) (A) (A) (A) (A) (A) (A)
                 (A) (A) (A) (A) (A) (A) (A) (A) (A) (A) (A) (A)
                 (A) (A) (A) (A) (A) (A) (A) (A) (A) (A) (A) (A)
                 (A) (A) (A) (A) (A) (A) (A) (A) (A) (A) (A) (A)
                 (A) (A) (A) (A) (A) (A) (A) (A) (A) (A) (A) (A)
                 (A) (A) (A) (A) (A) (A) (A) (A) (A) (A) (A) (A)
                 (A) (A) (A) (A) (A) (A) (A) (A) (A) (A) (A) (A)
                 (A) (A) (A) (A) (A) (A) (A) (A) (A) (A) (A) (A)
                 (A) (A) (A) (A) (A) (A) (A) (A) (A) (A) (A) (A)
                 (A) (A) (A) (A) (A) (A) (A) (A) (A) (A) (A) (A)
                 (A) (A) (A) (A) (A) (A) (A) (A) (A) (A) (A) (A)
                 (A) (A)
 Beta  Orbitals:
       Occupied  (A) (A) (A) (A) (A) (A) (A) (A) (A) (A) (A) (A)
                 (A) (A) (A) (A) (A) (A) (A) (A) (A) (A) (A) (A)
                 (A) (A) (A) (A) (A) (A) (A)
       Virtual   (A) (A) (A) (A) (A) (A) (A) (A) (A) (A) (A) (A)
                 (A) (A) (A) (A) (A) (A) (A) (A) (A) (A) (A) (A)
                 (A) (A) (A) (A) (A) (A) (A) (A) (A) (A) (A) (A)
                 (A) (A) (A) (A) (A) (A) (A) (A) (A) (A) (A) (A)
                 (A) (A) (A) (A) (A) (A) (A) (A) (A) (A) (A) (A)
                 (A) (A) (A) (A) (A) (A) (A) (A) (A) (A) (A) (A)
                 (A) (A) (A) (A) (A) (A) (A) (A) (A) (A) (A) (A)
                 (A) (A) (A) (A) (A) (A) (A) (A) (A) (A) (A) (A)
                 (A) (A) (A) (A) (A) (A) (A) (A) (A) (A) (A) (A)
                 (A) (A) (A) (A) (A) (A) (A) (A) (A) (A) (A) (A)
                 (A) (A) (A) (A) (A) (A) (A) (A) (A) (A) (A) (A)
                 (A) (A) (A) (A) (A) (A) (A) (A) (A) (A) (A) (A)
                 (A) (A) (A) (A) (A) (A) (A) (A) (A) (A) (A) (A)
                 (A) (A) (A) (A) (A) (A) (A) (A) (A) (A) (A) (A)
                 (A) (A) (A) (A) (A) (A) (A) (A) (A) (A) (A) (A)
                 (A) (A) (A) (A) (A) (A) (A) (A) (A) (A) (A) (A)
                 (A) (A) (A) (A) (A) (A) (A) (A) (A) (A) (A) (A)
                 (A) (A) (A) (A) (A) (A) (A) (A) (A) (A) (A) (A)
                 (A) (A) (A) (A) (A) (A) (A) (A) (A) (A) (A) (A)
                 (A) (A) (A) (A) (A) (A) (A) (A) (A) (A) (A) (A)
                 (A) (A) (A) (A) (A) (A) (A) (A) (A) (A) (A) (A)
                 (A) (A) (A) (A) (A) (A) (A) (A) (A) (A) (A) (A)
                 (A) (A) (A) (A) (A) (A) (A) (A) (A) (A) (A) (A)
                 (A) (A) (A) (A) (A) (A) (A) (A) (A) (A) (A) (A)
                 (A) (A) (A) (A) (A) (A) (A) (A) (A) (A) (A) (A)
                 (A) (A) (A) (A) (A) (A) (A) (A) (A) (A) (A) (A)
                 (A) (A) (A) (A) (A) (A) (A) (A) (A) (A) (A) (A)
                 (A) (A) (A) (A) (A) (A) (A) (A) (A) (A) (A) (A)
                 (A) (A) (A) (A) (A) (A) (A) (A) (A) (A) (A) (A)
                 (A) (A) (A) (A) (A) (A) (A) (A) (A) (A) (A) (A)
                 (A) (A) (A)
 The electronic state is 2-A.
 Alpha  occ. eigenvalues --  -19.23700 -19.21036 -10.24399 -10.19143 -10.19003
 Alpha  occ. eigenvalues --  -10.18686 -10.18582 -10.18485  -1.12499  -0.90548
 Alpha  occ. eigenvalues --   -0.83397  -0.75666  -0.73670  -0.62544  -0.61338
 Alpha  occ. eigenvalues --   -0.57051  -0.51267  -0.49589  -0.47475  -0.46229
 Alpha  occ. eigenvalues --   -0.44614  -0.42855  -0.41589  -0.39465  -0.38528
 Alpha  occ. eigenvalues --   -0.36049  -0.35875  -0.34009  -0.33200  -0.32540
 Alpha  occ. eigenvalues --   -0.30039  -0.29156
 Alpha virt. eigenvalues --   -0.00259   0.02344   0.03717   0.05282   0.06679
 Alpha virt. eigenvalues --    0.09078   0.09396   0.09970   0.10493   0.10627
 Alpha virt. eigenvalues --    0.12037   0.12225   0.14515   0.16560   0.18621
 Alpha virt. eigenvalues --    0.19141   0.21478   0.22812   0.23108   0.25318
 Alpha virt. eigenvalues --    0.26163   0.27232   0.28629   0.30187   0.31222
 Alpha virt. eigenvalues --    0.33726   0.35876   0.38011   0.38346   0.41066
 Alpha virt. eigenvalues --    0.41237   0.42097   0.42368   0.42987   0.43354
 Alpha virt. eigenvalues --    0.43859   0.44162   0.44705   0.45498   0.46042
 Alpha virt. eigenvalues --    0.46772   0.47489   0.47792   0.48814   0.49437
 Alpha virt. eigenvalues --    0.49765   0.51997   0.56478   0.57998   0.60200
 Alpha virt. eigenvalues --    0.60760   0.64825   0.67056   0.68527   0.68937
 Alpha virt. eigenvalues --    0.72383   0.73150   0.75200   0.76280   0.76541
 Alpha virt. eigenvalues --    0.78265   0.79633   0.81378   0.83762   0.87719
 Alpha virt. eigenvalues --    0.88839   0.89001   0.90087   0.91560   0.93332
 Alpha virt. eigenvalues --    0.96398   0.98911   0.99587   1.00528   1.02037
 Alpha virt. eigenvalues --    1.03008   1.05171   1.06742   1.07818   1.08617
 Alpha virt. eigenvalues --    1.09477   1.09935   1.10092   1.11003   1.11962
 Alpha virt. eigenvalues --    1.13069   1.13824   1.15005   1.17248   1.18679
 Alpha virt. eigenvalues --    1.19813   1.20203   1.22828   1.23928   1.24340
 Alpha virt. eigenvalues --    1.24637   1.26515   1.29314   1.31071   1.32221
 Alpha virt. eigenvalues --    1.32779   1.33478   1.35522   1.36061   1.37438
 Alpha virt. eigenvalues --    1.38456   1.40528   1.41527   1.43401   1.44331
 Alpha virt. eigenvalues --    1.44805   1.45691   1.46889   1.48242   1.51414
 Alpha virt. eigenvalues --    1.54164   1.56096   1.56519   1.58623   1.60779
 Alpha virt. eigenvalues --    1.61167   1.62826   1.67261   1.72430   1.72965
 Alpha virt. eigenvalues --    1.76247   1.79560   1.82925   1.87154   1.87859
 Alpha virt. eigenvalues --    1.97215   2.04547   2.07138   2.14099   2.21788
 Alpha virt. eigenvalues --    2.27031   2.29885   2.31863   2.36048   2.37585
 Alpha virt. eigenvalues --    2.40106   2.43879   2.44571   2.45731   2.46159
 Alpha virt. eigenvalues --    2.48262   2.50433   2.52272   2.53059   2.53754
 Alpha virt. eigenvalues --    2.55767   2.56035   2.58565   2.59167   2.62206
 Alpha virt. eigenvalues --    2.63096   2.63980   2.64720   2.66133   2.67014
 Alpha virt. eigenvalues --    2.67912   2.68887   2.71782   2.75922   2.77312
 Alpha virt. eigenvalues --    2.78428   2.82403   2.83541   2.84597   2.87003
 Alpha virt. eigenvalues --    2.88848   2.90238   2.93006   2.94494   2.97587
 Alpha virt. eigenvalues --    2.98252   3.00497   3.01219   3.02865   3.05563
 Alpha virt. eigenvalues --    3.07395   3.08387   3.09667   3.10601   3.11563
 Alpha virt. eigenvalues --    3.11898   3.12032   3.12655   3.13580   3.14415
 Alpha virt. eigenvalues --    3.15465   3.15924   3.17384   3.18834   3.19867
 Alpha virt. eigenvalues --    3.20888   3.24130   3.24690   3.27568   3.30914
 Alpha virt. eigenvalues --    3.32416   3.33826   3.34272   3.37416   3.38214
 Alpha virt. eigenvalues --    3.39852   3.41949   3.45704   3.46736   3.48111
 Alpha virt. eigenvalues --    3.49720   3.50796   3.51410   3.52160   3.53744
 Alpha virt. eigenvalues --    3.57989   3.58278   3.60786   3.61580   3.62271
 Alpha virt. eigenvalues --    3.62967   3.63758   3.64770   3.65586   3.66930
 Alpha virt. eigenvalues --    3.68778   3.69763   3.70654   3.71914   3.73002
 Alpha virt. eigenvalues --    3.73696   3.76849   3.79636   3.82704   3.82936
 Alpha virt. eigenvalues --    3.84193   3.87325   3.88221   3.89013   3.89703
 Alpha virt. eigenvalues --    3.91364   3.94793   3.96511   3.97205   3.98086
 Alpha virt. eigenvalues --    3.98584   3.99680   4.00919   4.02038   4.03673
 Alpha virt. eigenvalues --    4.04535   4.05739   4.07499   4.08275   4.11540
 Alpha virt. eigenvalues --    4.12768   4.13488   4.14810   4.16091   4.17421
 Alpha virt. eigenvalues --    4.17932   4.19094   4.21445   4.24126   4.26515
 Alpha virt. eigenvalues --    4.28542   4.28654   4.29837   4.31480   4.32006
 Alpha virt. eigenvalues --    4.34628   4.34846   4.40788   4.41412   4.44645
 Alpha virt. eigenvalues --    4.47044   4.47342   4.51768   4.56630   4.57280
 Alpha virt. eigenvalues --    4.60533   4.61693   4.63238   4.64784   4.66729
 Alpha virt. eigenvalues --    4.71647   4.72319   4.75275   4.75904   4.77671
 Alpha virt. eigenvalues --    4.78304   4.81644   4.82694   4.84566   4.86880
 Alpha virt. eigenvalues --    4.89448   4.90657   4.91537   4.92139   4.94896
 Alpha virt. eigenvalues --    4.95830   4.97747   4.99862   5.00701   5.01576
 Alpha virt. eigenvalues --    5.02425   5.05825   5.07426   5.09361   5.11169
 Alpha virt. eigenvalues --    5.13496   5.15907   5.17905   5.18345   5.20117
 Alpha virt. eigenvalues --    5.26016   5.26464   5.29416   5.34495   5.34967
 Alpha virt. eigenvalues --    5.37512   5.38315   5.40319   5.40770   5.41343
 Alpha virt. eigenvalues --    5.43606   5.45040   5.47595   5.51965   5.54172
 Alpha virt. eigenvalues --    5.57149   5.65845   5.67916   5.71885   5.78989
 Alpha virt. eigenvalues --    5.83467   5.92342   5.94851   5.95216   6.00658
 Alpha virt. eigenvalues --    6.03943   6.06212   6.10406   6.19986   6.21409
 Alpha virt. eigenvalues --    6.27705   6.31282   6.57594   6.73809   6.75937
 Alpha virt. eigenvalues --    6.90724   7.07767   7.15809   7.43461   8.88616
 Alpha virt. eigenvalues --   10.36472  11.19388  11.85896  12.18888  12.62722
 Alpha virt. eigenvalues --   12.68817  12.72258
  Beta  occ. eigenvalues --  -19.22882 -19.18985 -10.24423 -10.19138 -10.19003
  Beta  occ. eigenvalues --  -10.18685 -10.18546 -10.18484  -1.10054  -0.87365
  Beta  occ. eigenvalues --   -0.82437  -0.75623  -0.73086  -0.62435  -0.61033
  Beta  occ. eigenvalues --   -0.56960  -0.50457  -0.49090  -0.46108  -0.45754
  Beta  occ. eigenvalues --   -0.43412  -0.42048  -0.40449  -0.39375  -0.36272
  Beta  occ. eigenvalues --   -0.35855  -0.34655  -0.33931  -0.32576  -0.30929
  Beta  occ. eigenvalues --   -0.28256
  Beta virt. eigenvalues --   -0.13449   0.01523   0.02382   0.03761   0.05297
  Beta virt. eigenvalues --    0.06742   0.09138   0.09432   0.10040   0.10535
  Beta virt. eigenvalues --    0.10651   0.12065   0.12271   0.14671   0.16712
  Beta virt. eigenvalues --    0.18729   0.19190   0.21501   0.22846   0.23183
  Beta virt. eigenvalues --    0.25352   0.26216   0.27258   0.28653   0.30481
  Beta virt. eigenvalues --    0.31307   0.33823   0.36062   0.38066   0.38371
  Beta virt. eigenvalues --    0.41104   0.41272   0.42128   0.42393   0.43023
  Beta virt. eigenvalues --    0.43512   0.43883   0.44190   0.44853   0.45592
  Beta virt. eigenvalues --    0.46090   0.46879   0.47566   0.47886   0.48871
  Beta virt. eigenvalues --    0.49556   0.49793   0.52275   0.57120   0.58823
  Beta virt. eigenvalues --    0.60342   0.60889   0.64975   0.68611   0.69110
  Beta virt. eigenvalues --    0.69961   0.72511   0.73548   0.75846   0.76583
  Beta virt. eigenvalues --    0.76801   0.78376   0.79754   0.81464   0.83879
  Beta virt. eigenvalues --    0.87877   0.88889   0.89036   0.90158   0.91636
  Beta virt. eigenvalues --    0.93496   0.96617   0.98971   0.99619   1.00573
  Beta virt. eigenvalues --    1.02250   1.03064   1.05225   1.06766   1.07925
  Beta virt. eigenvalues --    1.08690   1.09531   1.10026   1.10152   1.11117
  Beta virt. eigenvalues --    1.12033   1.13244   1.13855   1.15078   1.17319
  Beta virt. eigenvalues --    1.18827   1.19885   1.20351   1.23013   1.24066
  Beta virt. eigenvalues --    1.24503   1.24659   1.26910   1.29472   1.31355
  Beta virt. eigenvalues --    1.32612   1.32837   1.33804   1.35834   1.36229
  Beta virt. eigenvalues --    1.37612   1.38958   1.41090   1.41847   1.43468
  Beta virt. eigenvalues --    1.44410   1.44836   1.45850   1.47191   1.49375
  Beta virt. eigenvalues --    1.52258   1.55723   1.56423   1.57180   1.59237
  Beta virt. eigenvalues --    1.60953   1.61398   1.63036   1.67403   1.72945
  Beta virt. eigenvalues --    1.73589   1.76391   1.79995   1.83196   1.87568
  Beta virt. eigenvalues --    1.89404   1.97805   2.05552   2.09127   2.14436
  Beta virt. eigenvalues --    2.21896   2.27434   2.29961   2.32186   2.36087
  Beta virt. eigenvalues --    2.37836   2.40193   2.43907   2.44600   2.45810
  Beta virt. eigenvalues --    2.46254   2.48328   2.50452   2.52334   2.53107
  Beta virt. eigenvalues --    2.53799   2.55804   2.56067   2.58588   2.59177
  Beta virt. eigenvalues --    2.62254   2.63120   2.63991   2.64740   2.66166
  Beta virt. eigenvalues --    2.67065   2.67951   2.68907   2.71884   2.76014
  Beta virt. eigenvalues --    2.77476   2.78487   2.82452   2.83577   2.84625
  Beta virt. eigenvalues --    2.87026   2.89054   2.90257   2.93033   2.94565
  Beta virt. eigenvalues --    2.97604   2.98343   3.00602   3.01258   3.02912
  Beta virt. eigenvalues --    3.05615   3.07421   3.08417   3.09794   3.10621
  Beta virt. eigenvalues --    3.11588   3.11956   3.12067   3.12676   3.13609
  Beta virt. eigenvalues --    3.14481   3.15492   3.15951   3.17423   3.18882
  Beta virt. eigenvalues --    3.19906   3.20937   3.24156   3.24765   3.27608
  Beta virt. eigenvalues --    3.31020   3.32470   3.33843   3.34312   3.37491
  Beta virt. eigenvalues --    3.38277   3.39912   3.42139   3.45780   3.47017
  Beta virt. eigenvalues --    3.48125   3.49890   3.50885   3.51676   3.52384
  Beta virt. eigenvalues --    3.54019   3.58256   3.60089   3.61128   3.61694
  Beta virt. eigenvalues --    3.62836   3.63873   3.64789   3.65338   3.66915
  Beta virt. eigenvalues --    3.67033   3.69854   3.70088   3.70853   3.72139
  Beta virt. eigenvalues --    3.73243   3.73877   3.77015   3.79804   3.82834
  Beta virt. eigenvalues --    3.83284   3.84293   3.87371   3.88301   3.89180
  Beta virt. eigenvalues --    3.89967   3.91787   3.94842   3.96582   3.97252
  Beta virt. eigenvalues --    3.98132   3.98651   3.99720   4.00985   4.02072
  Beta virt. eigenvalues --    4.03727   4.04622   4.05964   4.07563   4.08387
  Beta virt. eigenvalues --    4.11614   4.12949   4.13605   4.14883   4.16122
  Beta virt. eigenvalues --    4.17451   4.18029   4.19148   4.21471   4.24281
  Beta virt. eigenvalues --    4.26531   4.28584   4.28672   4.29986   4.31584
  Beta virt. eigenvalues --    4.32150   4.34670   4.34952   4.41388   4.41467
  Beta virt. eigenvalues --    4.45051   4.47085   4.47443   4.52013   4.56700
  Beta virt. eigenvalues --    4.57467   4.60585   4.61788   4.63629   4.64888
  Beta virt. eigenvalues --    4.67139   4.71852   4.72977   4.75454   4.76463
  Beta virt. eigenvalues --    4.78394   4.78739   4.81892   4.83021   4.86340
  Beta virt. eigenvalues --    4.87043   4.89704   4.90695   4.91622   4.93008
  Beta virt. eigenvalues --    4.95062   4.95968   4.98037   4.99972   5.00842
  Beta virt. eigenvalues --    5.01988   5.02540   5.07542   5.07803   5.12762
  Beta virt. eigenvalues --    5.15645   5.15953   5.17255   5.18496   5.18614
  Beta virt. eigenvalues --    5.20234   5.26523   5.26694   5.29803   5.34574
  Beta virt. eigenvalues --    5.35088   5.37749   5.38423   5.40562   5.40943
  Beta virt. eigenvalues --    5.41499   5.43732   5.45273   5.48783   5.52360
  Beta virt. eigenvalues --    5.54352   5.57896   5.66002   5.68025   5.72177
  Beta virt. eigenvalues --    5.80522   5.87299   5.92969   5.94969   5.95463
  Beta virt. eigenvalues --    6.01094   6.04077   6.06253   6.12036   6.23877
  Beta virt. eigenvalues --    6.28219   6.31772   6.36132   6.58903   6.76008
  Beta virt. eigenvalues --    6.79271   6.93925   7.08731   7.16265   7.45309
  Beta virt. eigenvalues --    8.92064  10.37625  11.19520  11.85900  12.18909
  Beta virt. eigenvalues --   12.62728  12.68831  12.72307
          Condensed to atoms (all electrons):
               1          2          3          4          5          6
     1  C    4.986750   0.344148  -0.052643   0.004877  -0.040406   0.279642
     2  C    0.344148   4.791837   0.343199  -0.056818   0.001049  -0.034889
     3  C   -0.052643   0.343199   4.916372   0.315590  -0.035983  -0.002817
     4  C    0.004877  -0.056818   0.315590   4.937742   0.324876  -0.040859
     5  C   -0.040406   0.001049  -0.035983   0.324876   4.896152   0.334575
     6  C    0.279642  -0.034889  -0.002817  -0.040859   0.334575   4.945570
     7  H   -0.026173   0.005289  -0.000978   0.008484  -0.035109   0.400913
     8  H   -0.036614  -0.003303  -0.000792  -0.004576  -0.037574   0.403434
     9  H   -0.002084  -0.001707  -0.003161  -0.037727   0.404551  -0.038837
    10  H    0.006698   0.000028   0.006994  -0.034557   0.407272  -0.033893
    11  H   -0.000906   0.005744  -0.030144   0.405673  -0.032823   0.007502
    12  H   -0.001694  -0.000891  -0.036618   0.399157  -0.035569  -0.004279
    13  H   -0.008463  -0.030686   0.395834  -0.034163  -0.003507   0.000767
    14  H    0.009260  -0.034020   0.401589  -0.029252   0.006538  -0.001213
    15  H   -0.052499   0.393936  -0.034428   0.005794  -0.003620   0.008177
    16  O   -0.037149   0.254530  -0.018593   0.001454   0.000092   0.004644
    17  O   -0.004152  -0.048753   0.004733  -0.000188  -0.000011  -0.000195
    18  H    0.397688  -0.033136   0.008155  -0.000109   0.005977  -0.027732
    19  H    0.392229  -0.035427  -0.004592  -0.000232  -0.004567  -0.030411
               7          8          9         10         11         12
     1  C   -0.026173  -0.036614  -0.002084   0.006698  -0.000906  -0.001694
     2  C    0.005289  -0.003303  -0.001707   0.000028   0.005744  -0.000891
     3  C   -0.000978  -0.000792  -0.003161   0.006994  -0.030144  -0.036618
     4  C    0.008484  -0.004576  -0.037727  -0.034557   0.405673   0.399157
     5  C   -0.035109  -0.037574   0.404551   0.407272  -0.032823  -0.035569
     6  C    0.400913   0.403434  -0.038837  -0.033893   0.007502  -0.004279
     7  H    0.612856  -0.033968  -0.005406  -0.004501  -0.000502  -0.000196
     8  H   -0.033968   0.622661   0.007978  -0.005223  -0.000124   0.004517
     9  H   -0.005406   0.007978   0.624919  -0.034057  -0.005497   0.007954
    10  H   -0.004501  -0.005223  -0.034057   0.614081  -0.004504  -0.005247
    11  H   -0.000502  -0.000124  -0.005497  -0.004504   0.607472  -0.033979
    12  H   -0.000196   0.004517   0.007954  -0.005247  -0.033979   0.623906
    13  H   -0.000126   0.000249   0.003704  -0.000017  -0.005691   0.007577
    14  H    0.000119  -0.000097  -0.000048  -0.000436  -0.005282  -0.005442
    15  H   -0.000091   0.002651   0.000053   0.000003  -0.000039   0.002782
    16  O   -0.000248   0.000072  -0.000017   0.000016  -0.000105   0.000045
    17  O   -0.000013  -0.000039   0.000005  -0.000001   0.000006  -0.000043
    18  H   -0.005145  -0.005060  -0.000074  -0.000400   0.000102  -0.000125
    19  H   -0.005823   0.007432   0.003678  -0.000018  -0.000074   0.000251
              13         14         15         16         17         18
     1  C   -0.008463   0.009260  -0.052499  -0.037149  -0.004152   0.397688
     2  C   -0.030686  -0.034020   0.393936   0.254530  -0.048753  -0.033136
     3  C    0.395834   0.401589  -0.034428  -0.018593   0.004733   0.008155
     4  C   -0.034163  -0.029252   0.005794   0.001454  -0.000188  -0.000109
     5  C   -0.003507   0.006538  -0.003620   0.000092  -0.000011   0.005977
     6  C    0.000767  -0.001213   0.008177   0.004644  -0.000195  -0.027732
     7  H   -0.000126   0.000119  -0.000091  -0.000248  -0.000013  -0.005145
     8  H    0.000249  -0.000097   0.002651   0.000072  -0.000039  -0.005060
     9  H    0.003704  -0.000048   0.000053  -0.000017   0.000005  -0.000074
    10  H   -0.000017  -0.000436   0.000003   0.000016  -0.000001  -0.000400
    11  H   -0.005691  -0.005282  -0.000039  -0.000105   0.000006   0.000102
    12  H    0.007577  -0.005442   0.002782   0.000045  -0.000043  -0.000125
    13  H    0.610725  -0.032593   0.008067   0.001028  -0.000286  -0.000201
    14  H   -0.032593   0.599637  -0.007605   0.002827   0.000243  -0.000481
    15  H    0.008067  -0.007605   0.629220  -0.041353   0.010167  -0.004699
    16  O    0.001028   0.002827  -0.041353   7.791567   0.146914  -0.004031
    17  O   -0.000286   0.000243   0.010167   0.146914   8.037679   0.011265
    18  H   -0.000201  -0.000481  -0.004699  -0.004031   0.011265   0.589119
    19  H    0.005023  -0.000317   0.008149   0.003060  -0.000296  -0.030274
              19
     1  C    0.392229
     2  C   -0.035427
     3  C   -0.004592
     4  C   -0.000232
     5  C   -0.004567
     6  C   -0.030411
     7  H   -0.005823
     8  H    0.007432
     9  H    0.003678
    10  H   -0.000018
    11  H   -0.000074
    12  H    0.000251
    13  H    0.005023
    14  H   -0.000317
    15  H    0.008149
    16  O    0.003060
    17  O   -0.000296
    18  H   -0.030274
    19  H    0.610305
          Atomic-Atomic Spin Densities.
               1          2          3          4          5          6
     1  C    0.003162   0.000783   0.002086   0.000817  -0.001263   0.016505
     2  C    0.000783  -0.021704   0.006140  -0.000125  -0.000442  -0.001155
     3  C    0.002086   0.006140  -0.007690  -0.000742   0.000462  -0.000857
     4  C    0.000817  -0.000125  -0.000742   0.000834   0.000152   0.000292
     5  C   -0.001263  -0.000442   0.000462   0.000152   0.000318   0.001513
     6  C    0.016505  -0.001155  -0.000857   0.000292   0.001513  -0.014644
     7  H   -0.002138   0.000108  -0.000028  -0.000001  -0.000548   0.001698
     8  H    0.000295   0.000019  -0.000106   0.000295  -0.000347  -0.000501
     9  H    0.000235  -0.000100  -0.000166   0.000435  -0.000407  -0.000074
    10  H    0.000047  -0.000001  -0.000009   0.000025  -0.000023  -0.000006
    11  H   -0.000157   0.000212   0.000719  -0.001428   0.000186   0.000049
    12  H    0.000429  -0.000433  -0.000615   0.001345  -0.000281  -0.000268
    13  H   -0.000308   0.001137  -0.000238  -0.000506   0.000102  -0.000129
    14  H   -0.000019  -0.001191   0.002623   0.000242  -0.000007   0.000148
    15  H   -0.004510   0.002090   0.000266  -0.002172   0.000476   0.001034
    16  O   -0.006152  -0.002144   0.002224   0.000239   0.000046  -0.000456
    17  O    0.002940  -0.001842  -0.000317  -0.000032  -0.000001  -0.000221
    18  H    0.004831   0.001816  -0.000574   0.000187  -0.000034  -0.002227
    19  H    0.000964   0.000140   0.000027  -0.000203   0.000271  -0.000597
               7          8          9         10         11         12
     1  C   -0.002138   0.000295   0.000235   0.000047  -0.000157   0.000429
     2  C    0.000108   0.000019  -0.000100  -0.000001   0.000212  -0.000433
     3  C   -0.000028  -0.000106  -0.000166  -0.000009   0.000719  -0.000615
     4  C   -0.000001   0.000295   0.000435   0.000025  -0.001428   0.001345
     5  C   -0.000548  -0.000347  -0.000407  -0.000023   0.000186  -0.000281
     6  C    0.001698  -0.000501  -0.000074  -0.000006   0.000049  -0.000268
     7  H    0.001288   0.000387   0.000125   0.000024  -0.000012   0.000031
     8  H    0.000387   0.000222   0.000029   0.000009  -0.000018   0.000014
     9  H    0.000125   0.000029   0.000209   0.000034  -0.000135   0.000022
    10  H    0.000024   0.000009   0.000034  -0.000122   0.000006  -0.000002
    11  H   -0.000012  -0.000018  -0.000135   0.000006   0.001346  -0.000263
    12  H    0.000031   0.000014   0.000022  -0.000002  -0.000263  -0.000020
    13  H   -0.000007  -0.000011  -0.000049  -0.000003   0.000107  -0.000047
    14  H   -0.000001   0.000018   0.000021   0.000004  -0.000122   0.000223
    15  H   -0.000149  -0.000273  -0.000041  -0.000001   0.000110  -0.000194
    16  O   -0.000015  -0.000035  -0.000017  -0.000001  -0.000011   0.000029
    17  O    0.000013   0.000016   0.000001  -0.000000   0.000000   0.000000
    18  H    0.000481   0.000087   0.000018  -0.000001  -0.000008   0.000004
    19  H   -0.000113  -0.000064  -0.000059  -0.000003   0.000015  -0.000014
              13         14         15         16         17         18
     1  C   -0.000308  -0.000019  -0.004510  -0.006152   0.002940   0.004831
     2  C    0.001137  -0.001191   0.002090  -0.002144  -0.001842   0.001816
     3  C   -0.000238   0.002623   0.000266   0.002224  -0.000317  -0.000574
     4  C   -0.000506   0.000242  -0.002172   0.000239  -0.000032   0.000187
     5  C    0.000102  -0.000007   0.000476   0.000046  -0.000001  -0.000034
     6  C   -0.000129   0.000148   0.001034  -0.000456  -0.000221  -0.002227
     7  H   -0.000007  -0.000001  -0.000149  -0.000015   0.000013   0.000481
     8  H   -0.000011   0.000018  -0.000273  -0.000035   0.000016   0.000087
     9  H   -0.000049   0.000021  -0.000041  -0.000017   0.000001   0.000018
    10  H   -0.000003   0.000004  -0.000001  -0.000001  -0.000000  -0.000001
    11  H    0.000107  -0.000122   0.000110  -0.000011   0.000000  -0.000008
    12  H   -0.000047   0.000223  -0.000194   0.000029   0.000000   0.000004
    13  H   -0.000239   0.000068   0.000191  -0.000235   0.000001  -0.000040
    14  H    0.000068  -0.001905  -0.000695   0.000282  -0.000260   0.000052
    15  H    0.000191  -0.000695   0.012550  -0.003047   0.000951  -0.000871
    16  O   -0.000235   0.000282  -0.003047   0.346459  -0.092397  -0.001986
    17  O    0.000001  -0.000260   0.000951  -0.092397   0.837953   0.000407
    18  H   -0.000040   0.000052  -0.000871  -0.001986   0.000407  -0.003464
    19  H   -0.000005  -0.000008   0.000213   0.000663  -0.000485  -0.000219
              19
     1  C    0.000964
     2  C    0.000140
     3  C    0.000027
     4  C   -0.000203
     5  C    0.000271
     6  C   -0.000597
     7  H   -0.000113
     8  H   -0.000064
     9  H   -0.000059
    10  H   -0.000003
    11  H    0.000015
    12  H   -0.000014
    13  H   -0.000005
    14  H   -0.000008
    15  H    0.000213
    16  O    0.000663
    17  O   -0.000485
    18  H   -0.000219
    19  H   -0.001131
 Mulliken charges and spin densities:
               1          2
     1  C   -0.158509   0.018546
     2  C    0.139871  -0.016691
     3  C   -0.171717   0.003206
     4  C   -0.165166  -0.000346
     5  C   -0.151914   0.000171
     6  C   -0.170101   0.000104
     7  H    0.090617   0.001143
     8  H    0.078375   0.000035
     9  H    0.075774   0.000081
    10  H    0.087762  -0.000023
    11  H    0.093170   0.000597
    12  H    0.077893  -0.000038
    13  H    0.082758  -0.000210
    14  H    0.096573  -0.000526
    15  H    0.075334   0.005926
    16  O   -0.104753   0.243445
    17  O   -0.157034   0.746727
    18  H    0.099163  -0.001540
    19  H    0.081904  -0.000607
 Sum of Mulliken charges =  -0.00000   1.00000
 Mulliken charges and spin densities with hydrogens summed into heavy atoms:
               1          2
     1  C    0.022558   0.016398
     2  C    0.215205  -0.010765
     3  C    0.007614   0.002471
     4  C    0.005897   0.000212
     5  C    0.011622   0.000229
     6  C   -0.001109   0.001283
    16  O   -0.104753   0.243445
    17  O   -0.157034   0.746727
 APT charges:
               1
     1  C   -0.641047
     2  C   -0.208808
     3  C   -0.706636
     4  C   -0.789922
     5  C   -0.852178
     6  C   -0.771714
     7  H    0.487246
     8  H    0.295920
     9  H    0.308421
    10  H    0.546189
    11  H    0.517353
    12  H    0.297753
    13  H    0.290964
    14  H    0.408400
    15  H    0.256369
    16  O   -0.098651
    17  O   -0.006563
    18  H    0.379543
    19  H    0.287359
 Sum of APT charges =  -0.00000
 APT charges with hydrogens summed into heavy atoms:
               1
[...]
 9,-0.00144540,0.00278719,0.00072082,0.02993417,-0.01502108,0.01420400,
 0.03079166,-0.09626813,0.01485007,-0.00966756,0.56283599,0.00028710,0.
 00071815,-0.00009493,0.00610421,0.00153348,0.00390500,-0.02901990,0.01
 435751,-0.09395607,-0.01083794,0.03392088,0.55839569,-0.00474132,0.031
 11352,0.00709437,0.00159394,0.00025426,0.00123163,-0.03247997,-0.01283
 013,0.00709930,-0.14095201,-0.03734799,0.02303390,0.53110687,0.0092905
 6,-0.01845903,-0.00143292,-0.00011676,0.00149206,-0.00056285,0.0083984
 3,0.00904995,-0.00504165,-0.03958189,-0.10600106,0.01546478,-0.0486527
 2,0.45310594,-0.00098757,0.01327928,0.00442072,0.00127548,-0.00076565,
 0.00013377,-0.01047355,-0.00727768,0.00504749,0.02433058,0.01452500,-0
 .09049506,0.03225151,-0.01200148,0.57094554,-0.14435764,0.02909305,-0.
 03135426,-0.03267411,0.00806928,-0.00998196,0.00260921,-0.00011213,-0.
 00051825,0.00232715,-0.02967159,-0.00732234,-0.08185443,0.00871557,0.0
 0304406,0.51901714,0.02785205,-0.09371172,0.01457257,-0.00911096,0.010
 01286,-0.00754800,0.00173445,0.00087526,-0.00088375,-0.00578270,-0.025
 11079,-0.00338533,0.00649058,-0.16739145,-0.02455162,0.06138879,0.4684
 5991,-0.02957412,0.01336790,-0.09503451,0.00353554,-0.00612459,0.00409
 344,-0.00052482,-0.00071478,0.00009864,-0.00160542,0.00982596,0.003653
 49,0.00160970,-0.02417304,-0.08821328,-0.03489600,-0.00946976,0.561043
 81,-0.02407326,-0.01366349,0.00955734,-0.00151939,0.00423850,-0.003202
 16,0.00042816,0.00041671,0.00001754,0.00070647,0.00065000,-0.00004355,
 0.00387571,0.00225186,-0.00187290,-0.20569214,-0.10365397,0.07022364,0
 .22523650,0.01206810,0.00742106,-0.00528211,0.00179834,-0.00120118,0.0
 0112106,0.00054773,0.00001693,0.00012130,0.00272487,-0.00610252,-0.002
 83795,-0.02616108,-0.01687017,0.01184866,-0.10335590,-0.11370784,0.044
 95333,0.11111342,0.12602451,-0.01245053,-0.00728370,0.00396617,-0.0014
 5716,0.00145742,-0.00089507,0.00017310,0.00002927,-0.00007363,0.000282
 17,-0.00131319,0.00003410,-0.00775631,-0.00548312,0.00230561,0.0716193
 8,0.04599825,-0.07942756,-0.07550393,-0.04960390,0.08296507,-0.0011721
 9,-0.00203985,-0.02977046,0.00133190,-0.00005808,-0.00175335,-0.000236
 91,-0.00006195,-0.00003762,0.00007663,-0.00013864,-0.00081730,-0.00066
 312,0.00078761,0.00408655,-0.04936244,-0.00142802,0.00303187,-0.000017
 62,0.00274171,0.02574295,0.05252695,0.00050567,0.00030847,0.01465954,-
 0.00060169,0.00006309,-0.00027063,-0.00010114,-0.00016473,0.00004964,0
 .00070905,0.00189785,-0.00084187,0.00097092,-0.00560594,-0.03431416,-0
 .00180711,-0.04983878,-0.02209115,0.00033152,0.00144904,0.01666284,-0.
 00263796,0.05644097,-0.00124932,0.00000028,-0.01321351,0.00105109,0.00
 003670,-0.00028432,-0.00014835,-0.00013182,0.00014044,-0.00002388,0.00
 069124,0.00037284,0.00093757,-0.00187434,-0.00870151,0.00230853,-0.022
 50375,-0.29205765,0.00095097,-0.00049533,-0.01175646,-0.00077349,0.025
 40505,0.32059497,0.00018085,-0.00009686,0.00092271,-0.00026441,-0.0000
 4426,0.00005612,0.00156748,0.00035254,0.00108494,-0.00474821,0.0010752
 7,0.02830606,-0.05275250,0.00390157,0.02606469,-0.00073364,0.00018475,
 0.00210978,0.00021143,-0.00002421,-0.00045677,0.00085680,0.00020382,0.
 00026678,0.05515097,-0.00081430,0.00173528,-0.00079001,-0.00001632,-0.
 00032259,-0.00002410,0.00092750,0.00032550,-0.00027423,-0.00303758,0.0
 0011232,0.01933098,0.00393194,-0.04859102,-0.01951690,0.00352822,-0.00
 556748,-0.03445341,-0.00036629,0.00146032,0.00044971,0.00110475,-0.006
 33308,-0.00159210,-0.00055192,0.05678842,-0.00004977,0.00064316,0.0003
 9820,-0.00012537,0.00010504,0.00017845,-0.00053951,-0.00037101,0.00041
 358,0.00164165,0.00058263,-0.01055384,0.02715257,-0.02000683,-0.289523
 04,0.00020868,-0.00193014,-0.00898416,-0.00037412,-0.00039051,0.000586
 76,0.00001306,-0.00169150,0.00122739,-0.03167522,0.02270181,0.31725360
 ,0.00105906,0.00043997,0.00051895,0.00049515,-0.00089437,-0.00008678,-
 0.00298540,-0.00409632,0.00296276,-0.02226026,0.01010567,-0.01191780,-
 0.21641510,0.07987269,-0.08979965,-0.00128915,0.00078135,-0.00047781,0
 .00047895,0.00042379,0.00012564,0.00009648,0.00011447,0.00038773,0.003
 39891,-0.00183334,0.00074670,0.23693093,-0.00096724,-0.00620111,-0.003
 07597,-0.00083064,-0.00089364,0.00003903,-0.00281476,-0.00182492,0.001
 60254,-0.01539681,0.00717708,-0.00867773,0.07984949,-0.08449079,0.0422
 3404,0.02713456,-0.01296846,0.01494755,-0.00055335,0.00092981,0.000596
 56,-0.00013111,0.00148149,-0.00036689,-0.00258405,0.00080932,-0.000754
 25,-0.08616199,0.09449478,0.00017306,-0.00129614,0.00000777,-0.0001392
 9,0.00010744,0.00001337,0.00138046,0.00083212,-0.00016807,0.00961826,-
 0.00419514,0.00377289,-0.09163392,0.04309689,-0.09750267,0.00813070,-0
 .00420307,0.00315604,-0.00016206,0.00060531,0.00003024,0.00032114,0.00
 054806,0.00067928,-0.02630104,0.01237903,-0.01433238,0.09826033,-0.046
 44493,0.10196412,-0.00034475,-0.00000814,-0.00004256,-0.00447031,-0.00
 072506,-0.00328346,-0.00372986,0.02886179,0.00876300,-0.04813115,0.019
 00905,0.00652722,0.00248669,-0.02725250,-0.00923138,-0.00502185,-0.001
 73700,0.00239794,0.00018714,-0.00186625,-0.00018198,-0.00004711,0.0002
 8590,-0.00002319,0.00115388,0.00073758,0.00003130,0.00078773,0.0006497
 1,-0.00061305,0.05591001,-0.00015362,0.00071768,-0.00015391,0.00211418
 ,0.00166487,0.00176678,0.00196150,-0.01221852,-0.00342811,0.01909757,-
 0.27842128,-0.07441670,0.00118366,-0.01549381,-0.00509168,-0.00387381,
 -0.00014143,0.00189086,0.00019925,-0.00113247,-0.00029062,0.00004442,0
 .00022355,-0.00005720,0.00037887,0.00053209,0.00053550,-0.00031125,0.0
 0055831,-0.00026342,-0.02073205,0.30309483,0.00006142,-0.00018985,-0.0
 0003947,-0.00219536,-0.00011611,-0.00108064,-0.00196009,0.01436329,0.0
 0326337,0.00672748,-0.07635191,-0.07272851,-0.00059713,0.01094890,0.00
 236457,0.00149585,0.00063685,-0.00016739,0.00010361,0.00044083,0.00042
 482,0.00007797,0.00039481,0.00034774,-0.00066889,0.00006904,0.00056941
 ,-0.00039642,-0.00050694,0.00009125,-0.00619255,0.08059497,0.07574583,
 -0.00013181,-0.00000085,-0.00004941,0.00082191,-0.00123036,-0.00088779
 ,-0.00056945,0.00066859,-0.03033113,-0.04720649,0.00012160,0.01336225,
 -0.00384929,-0.00079336,0.02942636,0.00088749,0.00136512,0.00008035,-0
 .00004667,0.00028023,-0.00026712,0.00022831,-0.00039683,-0.00061937,-0
 .00414154,-0.00371093,0.00162017,0.00096996,0.00077070,-0.00026716,-0.
 00050259,-0.00004369,0.00263022,0.05695510,0.00006889,-0.00029615,0.00
 002096,-0.00034234,0.00064369,0.00152057,-0.00026294,-0.00081377,0.013
 73435,0.00044449,-0.05055270,0.00028798,-0.00178471,-0.00086480,0.0177
 8061,0.00051196,0.00112126,0.00111275,0.00004467,0.00019868,-0.0003040
 0,-0.00011103,-0.00014226,-0.00039887,-0.00281724,-0.00117974,0.001200
 70,0.00056689,0.00059877,-0.00060403,0.00156663,0.00059411,-0.03116198
 ,0.00020884,0.05070938,-0.00000620,0.00022401,0.00013431,0.00058918,-0
 .00105541,-0.00031511,-0.00108856,0.00050766,-0.01300672,0.01308870,0.
 00116431,-0.29355514,0.00205507,0.00010464,-0.01033489,-0.00058972,-0.
 00050479,0.00036497,0.00003419,0.00005331,0.00036303,-0.00006195,0.000
 77386,0.00045010,0.00168914,0.00097985,0.00107270,0.00049012,-0.000094
 34,0.00071778,0.00065400,-0.00102287,-0.01042809,-0.01399015,-0.002899
 62,0.32229300,0.00005314,-0.00024175,-0.00076662,-0.00109782,0.0013460
 8,0.00302185,-0.04834311,-0.00278912,0.00408261,-0.00123494,-0.0015190
 3,-0.02934178,0.00177327,-0.00024661,-0.00093692,-0.00025623,-0.000076
 60,-0.00001932,-0.00000581,-0.00007397,0.00001719,-0.00003002,0.000114
 47,0.00014345,-0.00031634,-0.00005486,0.00062963,0.00030390,0.00023530
 ,0.00033954,0.00127421,-0.00036727,0.00073557,-0.00449073,0.00216199,-
 0.00223045,0.05109071,0.00061820,0.00201932,-0.00080977,0.00086775,-0.
 00507370,-0.03672593,-0.00241498,-0.05026455,-0.01696505,0.00047491,0.
 00029729,0.01574254,-0.00078989,0.00017295,-0.00057141,-0.00000316,-0.
 00029153,0.00007900,-0.00009848,0.00006713,-0.00002788,0.00009105,-0.0
 0007348,0.00010243,0.00007880,0.00025007,-0.00033237,-0.00012745,-0.00
 013868,-0.00006458,-0.00068027,0.00038496,0.00010653,0.00312475,-0.000
 39908,0.00105609,-0.00126954,0.05593481,0.00037053,0.00074819,0.000401
 88,0.00079827,-0.00233590,-0.01134136,0.00390654,-0.01895145,-0.296199
 09,-0.00101168,0.00028315,-0.01265468,0.00079663,-0.00026473,0.0004483
 0,-0.00025472,0.00000116,0.00017888,-0.00004713,-0.00003713,-0.0000244
 3,0.00017004,0.00008706,0.00001959,-0.00063038,-0.00040098,0.00051484,
 -0.00002279,0.00008492,0.00035972,0.00003608,0.00041030,0.00065585,-0.
 00202688,0.00105825,0.00065334,-0.00172212,0.02112695,0.32506994,0.000
 59363,0.00083744,-0.00037548,0.00203514,0.00161794,-0.00144837,-0.2105
 9731,-0.10262864,0.07170146,-0.02201020,-0.01351948,0.00960876,-0.0031
 0477,0.00408214,-0.00345778,0.00023313,0.00040158,0.00013289,0.0000265
 8,-0.00006872,0.00001913,0.00000037,-0.00007704,-0.00006210,0.00029918
 ,0.00018031,0.00003057,-0.00142256,-0.00109354,0.00036624,0.00082942,0
 .00030505,0.00054233,0.00113475,-0.00038930,-0.00038462,0.00008402,0.0
 0035366,0.00061787,0.23028692,0.00261156,-0.00573245,-0.00267183,-0.02
 758300,-0.01857636,0.01260049,-0.10048812,-0.11067341,0.04278875,0.012
 10257,0.00811289,-0.00600188,0.00247691,-0.00113910,0.00150220,0.00064
 180,-0.00008613,0.00016539,-0.00009848,0.00014104,0.00000214,-0.000082
 19,0.00006638,-0.00005775,-0.00017147,-0.00013617,0.00006505,0.0008896
 4,0.00055263,-0.00002688,-0.00053056,0.00057998,-0.00052764,-0.0007060
 3,0.00043895,-0.00020983,0.00245337,0.00121419,-0.00042516,0.11029230,
 0.12252638,0.00074554,-0.00129650,0.00022789,-0.00846384,-0.00540393,0
 .00235848,0.07295239,0.04402422,-0.08125662,-0.01159480,-0.00707230,0.
 00378822,-0.00164054,0.00131915,-0.00067727,0.00014802,0.00015679,-0.0
 0002123,0.00005302,0.00000483,-0.00002589,0.00000710,0.00000837,-0.000
 03884,-0.00037082,-0.00009717,0.00032904,-0.00053510,-0.00016358,0.000
 40220,0.00074161,-0.00013515,0.00021404,0.00038108,-0.00060676,0.00066
 161,0.02585885,0.01603094,-0.01090013,-0.07702264,-0.04717718,0.083454
 27,-0.00396952,0.00128036,0.02696723,-0.05351069,0.00541388,0.05005966
 ,0.00064504,-0.00077378,0.00197416,0.00041166,-0.00017035,0.00063368,-
 0.00019607,0.00005959,-0.00007613,0.00175020,0.00010013,0.00077218,0.0
 0024154,-0.00014487,-0.00030536,-0.00035974,0.00009159,-0.00072013,0.0
 0005696,-0.00010656,-0.00013586,-0.00005119,0.00005930,0.00001771,-0.0
 0002362,-0.00002428,-0.00005480,0.00000562,0.00015776,-0.00015089,0.00
 062512,0.00061961,-0.00025078,0.00037856,0.00021413,-0.00065679,0.0665
 4788,-0.00548394,0.00151012,0.01902073,0.00345580,-0.05246641,-0.03274
 141,0.00415813,-0.00452022,-0.03229883,-0.00098436,0.00151041,-0.00064
 497,0.00001451,-0.00014573,0.00006138,0.00081148,0.00033708,-0.0000801
 3,0.00015114,-0.00013938,-0.00016906,-0.00006361,0.00020668,-0.0003590
 0,-0.00009470,-0.00008986,0.00006394,0.00007717,0.00007309,-0.00001260
 ,-0.00027350,0.00010308,0.00035604,0.00038462,-0.00009211,0.00078560,0
 .00079482,-0.00586667,-0.00151107,-0.00038446,0.00138288,0.00049222,-0
 .00523816,0.05888360,0.00311360,-0.00039301,-0.00932883,0.04233344,-0.
 02669345,-0.29260947,0.00126259,-0.00175675,-0.00596574,0.00004227,0.0
 0016593,0.00008926,0.00009372,0.00000083,0.00016423,-0.00018889,-0.000
 11709,0.00000433,0.00012233,0.00000835,0.00034008,0.00047692,-0.000219
 26,0.00052463,-0.00012991,0.00006294,-0.00003058,0.00001854,-0.0000308
 0,-0.00000654,0.00005452,-0.00006251,0.00032473,0.00048413,-0.00023271
 ,0.00047283,-0.00021670,-0.00068658,0.00091125,-0.00031584,-0.00023865
 ,0.00057622,-0.04076287,0.02969447,0.31998056,-0.04572954,0.01435719,-
 0.01739052,-0.09055807,-0.01538340,-0.06126857,-0.00786007,0.01277981,
 -0.00109940,0.00149224,-0.00050736,0.00029337,-0.00000706,-0.00037370,
 -0.00005768,-0.00326878,-0.00659897,0.00433051,-0.00215307,0.00128293,
 -0.00068760,0.00021345,-0.00005894,-0.00004508,-0.00000080,0.00008868,
 0.00012738,0.00008336,0.00019150,0.00003871,0.00010750,-0.00013894,0.0
 0005352,-0.00003166,0.00001763,0.00001291,0.00060115,-0.00087543,-0.00
 041657,0.00081174,-0.00085220,0.00010383,-0.01271578,0.00570858,-0.010
 20607,0.21736692,-0.00379623,0.00687585,-0.00680736,0.00000995,-0.0514
 3295,-0.00216913,0.03371130,-0.02120025,0.01610908,-0.00163886,-0.0054
 1381,-0.00284582,-0.00005620,-0.00036157,0.00019731,-0.00238450,-0.001
 43835,0.00079079,-0.00076636,0.00038248,-0.00003181,0.00024923,-0.0001
 2481,0.00020120,0.00003789,0.00010962,-0.00008338,0.00019415,0.0001581
 1,-0.00002301,0.00172794,-0.00064973,0.00054877,-0.00012984,0.00005962
 ,0.00012155,-0.00013640,0.00178210,0.00055474,0.00019023,0.00226295,0.
 00037525,0.00623034,-0.00345945,0.00127779,-0.11711201,0.36736640,-0.0
 0186432,-0.00442903,0.00262696,-0.04437053,-0.01735550,-0.10443621,0.0
 0836371,-0.00187566,0.00477399,0.00049694,-0.00246561,-0.00050827,-0.0
 0032976,-0.00003989,-0.00004713,0.00071347,-0.00014774,0.00083263,-0.0
 0009800,0.00024012,0.00032431,0.00067395,-0.00018009,0.00051947,-0.000
 04259,0.00003992,0.00002833,-0.00000909,0.00003940,0.00003529,0.000452
 81,-0.00039117,0.00053537,0.00029078,-0.00020244,0.00045227,0.00075011
 ,0.00017183,0.00070591,0.00002241,0.00004702,0.00023652,-0.03751429,0.
 01439041,-0.01983444,0.06358182,0.14544705,0.20901892,0.00010601,0.000
 20426,-0.00021028,-0.01583122,0.04266432,0.02072351,-0.00704089,0.0004
 0400,-0.00346098,0.00106162,0.00208646,0.00120416,0.00000818,0.0001228
 0,-0.00019423,0.00091511,0.00021101,0.00031440,0.00009502,-0.00007011,
 -0.00006123,-0.00004434,-0.00000592,-0.00007588,-0.00000196,-0.0000195
 8,0.00005139,-0.00006356,0.00007318,0.00001224,-0.00073822,0.00031891,
 -0.00038213,0.00000892,-0.00003190,-0.00012461,-0.00019129,0.00013576,
 0.00023259,0.00029724,0.00035888,-0.00020434,0.00311461,-0.00074215,0.
 00287783,-0.06394564,0.08390622,0.00910294,0.08258150,-0.00438607,0.00
 107911,-0.00053198,0.02678527,-0.04075173,-0.00448390,0.00795244,0.001
 23952,0.00375405,-0.00152242,-0.00212227,-0.00149184,-0.00036740,-0.00
 006129,0.00002348,-0.00021547,0.00006941,0.00018832,-0.00006114,0.0001
 0201,0.00000323,-0.00008904,0.00004069,-0.00008226,0.00003613,0.000015
 25,-0.00003245,0.00007531,0.00017805,-0.00000844,0.00090024,-0.0003435
 9,0.00040449,0.00005194,-0.00001293,0.00010733,-0.00014304,0.00007827,
 -0.00013535,-0.00036829,-0.00002680,0.00016343,-0.00498569,0.00310065,
 -0.00162935,0.10603986,-0.29529447,-0.13336238,-0.13089687,0.33160880,
 -0.00027145,0.00108270,0.00139209,0.00982096,0.00977374,0.01142871,-0.
 00239982,0.00243666,0.00050438,-0.00037687,0.00047363,0.00035418,0.000
 00005,0.00006374,0.00000597,-0.00000238,0.00018272,0.00002274,0.000035
 68,-0.00001725,-0.00002485,0.00001236,0.00000451,-0.00002586,-0.000005
 85,0.00000452,0.00001512,-0.00000526,0.00000507,-0.00000504,-0.0001175
 8,0.00008946,-0.00004316,0.00013371,-0.00010963,0.00001305,-0.00030652
 ,0.00061294,0.00026130,-0.00007609,-0.00030552,-0.00016926,-0.00024223
 ,0.00142966,0.00318299,0.02405118,-0.15301210,-0.09687584,-0.03046788,
 0.13749314,0.08046310,-0.04951071,0.02784348,0.00868383,0.00111642,-0.
 02778064,-0.00875889,-0.00489279,-0.00197964,0.00202642,-0.00048332,0.
 00015684,-0.00001590,-0.00514684,0.00077538,-0.00326821,-0.00270655,0.
 02788130,0.00931792,0.00081887,-0.00053369,0.00073649,0.00122260,-0.00
 062197,-0.00004415,0.00002263,-0.00036459,-0.00000407,-0.00010582,0.00
 194155,0.00016943,0.00016065,0.00002991,-0.00000155,0.00011569,0.00000
 433,-0.00000171,-0.00004115,0.00024522,0.00004762,0.00013257,-0.001769
 75,-0.00018311,0.00105488,0.00087779,-0.00016309,0.00264584,-0.0000912
 7,-0.00016037,0.00005791,0.00056665,0.00033557,0.05597900,0.02509857,-
 0.28144009,-0.07333026,0.00102762,-0.01915405,-0.00587649,-0.00333285,
 -0.00002672,0.00193756,-0.00014768,0.00055604,-0.00021133,0.00225786,0
 .00094019,0.00153954,0.00149185,-0.01006412,-0.00277031,0.00026293,0.0
 0059363,-0.00009744,-0.00020828,0.00034486,0.00039328,-0.00004021,0.00
 012786,-0.00005680,-0.00007788,-0.00067188,-0.00021338,0.00004694,-0.0
 0000373,-0.00001506,0.00002381,-0.00004880,0.00008434,0.00002135,0.000
 16646,-0.00002178,0.00022353,-0.00106275,-0.00027561,0.00005792,0.0008
 2054,0.00007547,0.00064518,-0.00007080,0.00039612,0.00092467,0.0011456
 2,0.00008574,-0.02816942,0.30724287,0.00886915,-0.07523265,-0.07354745
 ,-0.00099929,0.01182233,0.00243247,0.00180801,0.00030073,0.00000816,-0
 .00003413,-0.00024112,0.00002056,-0.00214169,0.00039672,-0.00074333,-0
 .00142764,0.01374821,0.00313483,0.00053529,-0.00051088,0.00022575,0.00
 068725,0.00010492,0.00057951,-0.00014308,0.00035969,0.00033147,-0.0001
 9344,0.00057993,0.00040335,0.00002546,-0.00004007,-0.00002367,-0.00000
 700,-0.00000821,-0.00004658,0.00007782,0.00044698,0.00032257,0.0000819
 7,0.00046038,0.00047380,-0.00082685,0.00018531,0.00059084,-0.00080237,
 -0.00073923,-0.00000239,0.00020024,0.00009181,-0.00037682,-0.00904365,
 0.07889404,0.07557018,-0.04621537,-0.00003198,0.00959749,-0.00482535,-
 0.00044719,0.02989166,0.00087489,0.00134114,0.00003573,-0.00020835,0.0
 0005669,-0.00004420,0.00131780,-0.00124069,-0.00012323,-0.00052246,-0.
 00000287,-0.03075924,0.00120158,-0.00068230,0.00041195,-0.00461997,0.0
 0298120,-0.00226118,0.00006030,0.00037727,0.00065084,-0.00001140,-0.00
 037180,0.00028871,0.00011224,0.00001157,0.00002096,-0.00015751,-0.0000
 1463,0.00001558,0.00020191,-0.00035051,-0.00059312,-0.00000843,0.00024
 062,-0.00031946,-0.00400546,-0.00316914,0.00110347,0.00294829,-0.00014
 558,-0.00006002,-0.00038899,0.00062758,-0.00011757,-0.00043990,-0.0001
 0589,0.00333396,0.05468618,-0.00063117,-0.05123170,-0.00693569,-0.0010
 9475,-0.00060088,0.01950632,0.00046435,0.00099724,0.00096749,-0.000078
 41,-0.00027342,-0.00000088,-0.00055354,0.00071467,0.00109907,0.0000371
 0,-0.00055769,0.01255532,-0.00039844,0.00036692,-0.00059470,0.00203099
 ,-0.00023998,0.00108914,0.00017529,-0.00004614,-0.00024860,-0.00003851
 ,0.00017805,-0.00021322,0.00001954,-0.00004890,0.00000498,0.00001169,0
 .00003789,-0.00017568,-0.00020920,-0.00025985,-0.00027117,0.00004529,0
 .00015488,-0.00034703,-0.00284091,-0.00114830,0.00077440,0.00078959,0.
 00044906,-0.00032235,0.00035606,-0.00004429,-0.00029372,0.00098851,0.0
 0060487,-0.03061889,0.00092652,0.05094759,0.01104710,-0.00564864,-0.29
 621759,0.00207121,0.00029983,-0.01328634,-0.00035765,-0.00080002,0.000
 31419,-0.00012468,0.00023164,0.00016029,0.00074334,-0.00051481,0.00040
 199,-0.00113252,-0.00005148,-0.01267801,-0.00032977,-0.00022205,0.0006
 6197,-0.00208701,0.00091001,0.00062221,-0.00007565,0.00077140,0.000505
 09,-0.00006663,-0.00001361,0.00038139,0.00000183,0.00006556,-0.0000260
 6,0.00003696,-0.00018793,0.00003755,-0.00011620,0.00070734,0.00061632,
 0.00001930,0.00001089,0.00036694,0.00127238,0.00133729,0.00061366,-0.0
 0061937,0.00008831,0.00161435,0.00046228,-0.00047133,-0.00012277,0.000
 32742,-0.00053762,-0.00935324,-0.01107232,0.00402521,0.32538810\\-0.00
 000859,0.00000081,0.00001412,0.00001509,-0.00007219,-0.00007613,0.0000
 3764,0.00002182,0.00002442,0.00000427,0.00004698,-0.00003076,-0.000039
 73,0.00002351,0.00002302,-0.00004139,-0.00004527,-0.00002591,0.0000224
 2,0.00002590,-0.00000926,0.00000648,0.00000786,0.00001779,0.00000899,-
 0.00000239,-0.00001854,0.00003004,-0.00001024,0.00000987,0.00000539,-0
 .00003394,-0.00000283,0.00000416,-0.00000807,0.00002091,0.00000401,-0.
 00000336,-0.00001745,-0.00002534,-0.00002013,0.00001147,-0.00003628,0.
 00002166,0.00001301,0.00008558,-0.00007854,0.00003223,-0.00007023,0.00
 010434,0.00002986,-0.00000379,0.00002476,0.00000427,0.00000127,-0.0000
 0352,-0.00002011\\\@
 The archive entry for this job was punched.


 ALL MEN WHO EXPLORE
 DEPLORE
 THAT FRUSTRATING HURDLE
 THE GIRDLE.

         -- COLIN FLETCHER
 Job cpu time:       0 days  2 hours 43 minutes 42.9 seconds.
 Elapsed time:       0 days  0 hours 20 minutes 28.3 seconds.
 File lengths (MBytes):  RWF=    421 Int=      0 D2E=      0 Chk=     18 Scr=      1
 Normal termination of Gaussian 16 at Fri Mar 25 16:37:12 2022.
