 Entering Gaussian System, Link 0=g16
 Input=Mol_06.com
 Output=Mol_06.log
 Initial command:
 /home/saurabh/gaussian/g16/l1.exe "/home/saurabh/gaussian/gauss_scr/Gau-3563.inp" -scrdir="/home/saurabh/gaussian/gauss_scr/"
 Entering Link 1 = /home/saurabh/gaussian/g16/l1.exe PID=      3564.
  
 Copyright (c) 1988-2019, Gaussian, Inc.  All Rights Reserved.
  
 This is part of the Gaussian(R) 16 program.  It is based on
 the Gaussian(R) 09 system (copyright 2009, Gaussian, Inc.),
 the Gaussian(R) 03 system (copyright 2003, Gaussian, Inc.),
 the Gaussian(R) 98 system (copyright 1998, Gaussian, Inc.),
 the Gaussian(R) 94 system (copyright 1995, Gaussian, Inc.),
 the Gaussian 92(TM) system (copyright 1992, Gaussian, Inc.),
 the Gaussian 90(TM) system (copyright 1990, Gaussian, Inc.),
 the Gaussian 88(TM) system (copyright 1988, Gaussian, Inc.),
 the Gaussian 86(TM) system (copyright 1986, Carnegie Mellon
 University), and the Gaussian 82(TM) system (copyright 1983,
 Carnegie Mellon University). Gaussian is a federally registered
 trademark of Gaussian, Inc.
  
 This software contains proprietary and confidential information,
 including trade secrets, belonging to Gaussian, Inc.
  
 This software is provided under written license and may be
 used, copied, transmitted, or stored only in accord with that
 written license.
  
 The following legend is applicable only to US Government
 contracts under FAR:
  
                    RESTRICTED RIGHTS LEGEND
  
 Use, reproduction and disclosure by the US Government is
 subject to restrictions as set forth in subparagraphs (a)
 and (c) of the Commercial Computer Software - Restricted
 Rights clause in FAR 52.227-19.
  
 Gaussian, Inc.
 340 Quinnipiac St., Bldg. 40, Wallingford CT 06492
  
  
 ---------------------------------------------------------------
 Warning -- This program may not be used in any manner that
 competes with the business of Gaussian, Inc. or will provide
 assistance to any competitor of Gaussian, Inc.  The licensee
 of this program is prohibited from giving any competitor of
 Gaussian, Inc. access to this program.  By using this program,
 the user acknowledges that Gaussian, Inc. is engaged in the
 business of creating and licensing software in the field of
 computational chemistry and represents and warrants to the
 licensee that it is not a competitor of Gaussian, Inc. and that
 it will not use this program in any manner prohibited above.
 ---------------------------------------------------------------
  

 Cite this work as:
 Gaussian 16, Revision C.01,
 M. J. Frisch, G. W. Trucks, H. B. Schlegel, G. E. Scuseria, 
 M. A. Robb, J. R. Cheeseman, G. Scalmani, V. Barone, 
 G. A. Petersson, H. Nakatsuji, X. Li, M. Caricato, A. V. Marenich, 
 J. Bloino, B. G. Janesko, R. Gomperts, B. Mennucci, H. P. Hratchian, 
 J. V. Ortiz, A. F. Izmaylov, J. L. Sonnenberg, D. Williams-Young, 
 F. Ding, F. Lipparini, F. Egidi, J. Goings, B. Peng, A. Petrone, 
 T. Henderson, D. Ranasinghe, V. G. Zakrzewski, J. Gao, N. Rega, 
 G. Zheng, W. Liang, M. Hada, M. Ehara, K. Toyota, R. Fukuda, 
 J. Hasegawa, M. Ishida, T. Nakajima, Y. Honda, O. Kitao, H. Nakai, 
 T. Vreven, K. Throssell, J. A. Montgomery, Jr., J. E. Peralta, 
 F. Ogliaro, M. J. Bearpark, J. J. Heyd, E. N. Brothers, K. N. Kudin, 
 V. N. Staroverov, T. A. Keith, R. Kobayashi, J. Normand, 
 K. Raghavachari, A. P. Rendell, J. C. Burant, S. S. Iyengar, 
 J. Tomasi, M. Cossi, J. M. Millam, M. Klene, C. Adamo, R. Cammi, 
 J. W. Ochterski, R. L. Martin, K. Morokuma, O. Farkas, 
 J. B. Foresman, and D. J. Fox, Gaussian, Inc., Wallingford CT, 2019.
 
 ******************************************
 Gaussian 16:  ES64L-G16RevC.01  3-Jul-2019
                25-Mar-2022 
 ******************************************
 %mem=8gb
 %nproc=8
 Will use up to    8 processors via shared memory.
 %chk=Mol_06.chk
 ----------------------------------------------------------------------
 #p B3LYP/cc-pVTZ scf(verytight, maxcycles=1000) opt(calcfc, maxcyc=100
 0) freq(hpmodes) int(grid=ultrafine)
 ----------------------------------------------------------------------
 1/6=1000,10=4,18=20,19=15,26=4,38=1/1,3;
 2/9=110,12=2,17=6,18=5,40=1/2;
 3/5=16,6=1,11=2,25=1,30=1,71=2,74=-5,75=-5,140=1/1,2,3;
 4//1;
 5/5=2,7=1000,17=3,38=5/2;
 8/6=4,10=90,11=11/1;
 11/6=1,8=1,9=11,15=111,16=1/1,2,10;
 10/6=1,13=1/2;
 6/7=2,8=2,9=2,10=2,28=1/1;
 7/10=1,25=1/1,2,3,16;
 1/6=1000,10=4,18=20,19=15,26=4/3(2);
 2/9=110/2;
 99//99;
 2/9=110/2;
 3/5=16,6=1,11=2,25=1,30=1,71=1,74=-5,75=-5/1,2,3;
 4/5=5,16=3,69=1/1;
 5/5=2,7=1000,17=3,38=5/2;
 7//1,2,3,16;
 1/6=1000,18=20,19=15,26=4/3(-5);
 2/9=110/2;
 6/7=2,8=2,9=2,10=2,19=2,28=1/1;
 99/9=1/99;
 Leave Link    1 at Fri Mar 25 22:07:49 2022, MaxMem=  1073741824 cpu:               0.5 elap:               0.1
 (Enter /home/saurabh/gaussian/g16/l101.exe)
 ------
 Mol_06
 ------
 Symbolic Z-matrix:
 Charge =  0 Multiplicity = 1
 C                     0.        0.        0. 
 C                    -0.88268   1.211     0.14932 
 C                    -0.40546   2.4609    0.24345 
 C                     1.06462   2.78677   0.21834 
 C                     1.90081   1.61395  -0.31281 
 C                     1.45972   0.30903   0.36129 
 H                     2.11751  -0.53766   0.04936 
 H                     1.56426   0.41712   1.46762 
 H                     1.76485   1.5176   -1.41683 
 H                     2.98567   1.805    -0.12976 
 H                     1.23505   3.682    -0.42554 
 H                     1.37737   3.05068   1.25598 
 H                    -1.10982   3.30263   0.36187 
 H                    -1.97391   1.04486   0.16394 
 H                    -0.07444  -0.35327  -1.05537 
 H                    -0.37736  -0.81759   0.65894 
 
 ITRead=  0  0  0  0  0  0  0  0  0  0  0  0  0  0  0  0
 MicOpt= -1 -1 -1 -1 -1 -1 -1 -1 -1 -1 -1 -1 -1 -1 -1 -1
 NAtoms=     16 NQM=       16 NQMF=       0 NMMI=      0 NMMIF=      0
                NMic=       0 NMicF=      0.
                    Isotopes and Nuclear Properties:
 (Nuclear quadrupole moments (NQMom) in fm**2, nuclear magnetic moments (NMagM)
  in nuclear magnetons)

  Atom         1           2           3           4           5           6           7           8           9          10
 IAtWgt=          12          12          12          12          12          12           1           1           1           1
 AtmWgt=  12.0000000  12.0000000  12.0000000  12.0000000  12.0000000  12.0000000   1.0078250   1.0078250   1.0078250   1.0078250
 NucSpn=           0           0           0           0           0           0           1           1           1           1
 AtZEff=  -0.0000000  -0.0000000  -0.0000000  -0.0000000  -0.0000000  -0.0000000  -0.0000000  -0.0000000  -0.0000000  -0.0000000
 NQMom=    0.0000000   0.0000000   0.0000000   0.0000000   0.0000000   0.0000000   0.0000000   0.0000000   0.0000000   0.0000000
 NMagM=    0.0000000   0.0000000   0.0000000   0.0000000   0.0000000   0.0000000   2.7928460   2.7928460   2.7928460   2.7928460
 AtZNuc=   6.0000000   6.0000000   6.0000000   6.0000000   6.0000000   6.0000000   1.0000000   1.0000000   1.0000000   1.0000000

  Atom        11          12          13          14          15          16
 IAtWgt=           1           1           1           1           1           1
 AtmWgt=   1.0078250   1.0078250   1.0078250   1.0078250   1.0078250   1.0078250
 NucSpn=           1           1           1           1           1           1
 AtZEff=  -0.0000000  -0.0000000  -0.0000000  -0.0000000  -0.0000000  -0.0000000
 NQMom=    0.0000000   0.0000000   0.0000000   0.0000000   0.0000000   0.0000000
 NMagM=    2.7928460   2.7928460   2.7928460   2.7928460   2.7928460   2.7928460
 AtZNuc=   1.0000000   1.0000000   1.0000000   1.0000000   1.0000000   1.0000000
 Leave Link  101 at Fri Mar 25 22:07:49 2022, MaxMem=  1073741824 cpu:               1.6 elap:               0.2
 (Enter /home/saurabh/gaussian/g16/l103.exe)

 GradGradGradGradGradGradGradGradGradGradGradGradGradGradGradGradGradGrad
 Berny optimization.
 Initialization pass.
                           ----------------------------
                           !    Initial Parameters    !
                           ! (Angstroms and Degrees)  !
 --------------------------                            --------------------------
 ! Name  Definition              Value          Derivative Info.                !
 --------------------------------------------------------------------------------
 ! R1    R(1,2)                  1.506          calculate D2E/DX2 analytically  !
 ! R2    R(1,6)                  1.5352         calculate D2E/DX2 analytically  !
 ! R3    R(1,15)                 1.1154         calculate D2E/DX2 analytically  !
 ! R4    R(1,16)                 1.1158         calculate D2E/DX2 analytically  !
 ! R5    R(2,3)                  1.3412         calculate D2E/DX2 analytically  !
 ! R6    R(2,14)                 1.1039         calculate D2E/DX2 analytically  !
 ! R7    R(3,4)                  1.506          calculate D2E/DX2 analytically  !
 ! R8    R(3,13)                 1.1039         calculate D2E/DX2 analytically  !
 ! R9    R(4,5)                  1.5352         calculate D2E/DX2 analytically  !
 ! R10   R(4,11)                 1.1158         calculate D2E/DX2 analytically  !
 ! R11   R(4,12)                 1.1154         calculate D2E/DX2 analytically  !
 ! R12   R(5,6)                  1.5335         calculate D2E/DX2 analytically  !
 ! R13   R(5,9)                  1.1165         calculate D2E/DX2 analytically  !
 ! R14   R(5,10)                 1.1167         calculate D2E/DX2 analytically  !
 ! R15   R(6,7)                  1.1166         calculate D2E/DX2 analytically  !
 ! R16   R(6,8)                  1.1165         calculate D2E/DX2 analytically  !
 ! A1    A(2,1,6)              111.8451         calculate D2E/DX2 analytically  !
 ! A2    A(2,1,15)             108.0221         calculate D2E/DX2 analytically  !
 ! A3    A(2,1,16)             109.4169         calculate D2E/DX2 analytically  !
 ! A4    A(6,1,15)             110.4801         calculate D2E/DX2 analytically  !
 ! A5    A(6,1,16)             109.2737         calculate D2E/DX2 analytically  !
 ! A6    A(15,1,16)            107.7049         calculate D2E/DX2 analytically  !
 ! A7    A(1,2,3)              123.216          calculate D2E/DX2 analytically  !
 ! A8    A(1,2,14)             117.3663         calculate D2E/DX2 analytically  !
 ! A9    A(3,2,14)             119.4102         calculate D2E/DX2 analytically  !
 ! A10   A(2,3,4)              123.2173         calculate D2E/DX2 analytically  !
 ! A11   A(2,3,13)             119.4114         calculate D2E/DX2 analytically  !
 ! A12   A(4,3,13)             117.3638         calculate D2E/DX2 analytically  !
 ! A13   A(3,4,5)              111.8483         calculate D2E/DX2 analytically  !
 ! A14   A(3,4,11)             109.4096         calculate D2E/DX2 analytically  !
 ! A15   A(3,4,12)             108.0227         calculate D2E/DX2 analytically  !
 ! A16   A(5,4,11)             109.274          calculate D2E/DX2 analytically  !
 ! A17   A(5,4,12)             110.4807         calculate D2E/DX2 analytically  !
 ! A18   A(11,4,12)            107.7074         calculate D2E/DX2 analytically  !
 ! A19   A(4,5,6)              109.9569         calculate D2E/DX2 analytically  !
 ! A20   A(4,5,9)              109.9809         calculate D2E/DX2 analytically  !
 ! A21   A(4,5,10)             109.9829         calculate D2E/DX2 analytically  !
 ! A22   A(6,5,9)              109.0382         calculate D2E/DX2 analytically  !
 ! A23   A(6,5,10)             110.6685         calculate D2E/DX2 analytically  !
 ! A24   A(9,5,10)             107.1667         calculate D2E/DX2 analytically  !
 ! A25   A(1,6,5)              109.9576         calculate D2E/DX2 analytically  !
 ! A26   A(1,6,7)              109.9831         calculate D2E/DX2 analytically  !
 ! A27   A(1,6,8)              109.9809         calculate D2E/DX2 analytically  !
 ! A28   A(5,6,7)              110.6696         calculate D2E/DX2 analytically  !
 ! A29   A(5,6,8)              109.0421         calculate D2E/DX2 analytically  !
 ! A30   A(7,6,8)              107.1607         calculate D2E/DX2 analytically  !
 ! D1    D(6,1,2,3)             16.0504         calculate D2E/DX2 analytically  !
 ! D2    D(6,1,2,14)          -164.9545         calculate D2E/DX2 analytically  !
 ! D3    D(15,1,2,3)          -105.7407         calculate D2E/DX2 analytically  !
 ! D4    D(15,1,2,14)           73.2544         calculate D2E/DX2 analytically  !
 ! D5    D(16,1,2,3)           137.2734         calculate D2E/DX2 analytically  !
 ! D6    D(16,1,2,14)          -43.7315         calculate D2E/DX2 analytically  !
 ! D7    D(2,1,6,5)            -46.6328         calculate D2E/DX2 analytically  !
 ! D8    D(2,1,6,7)           -168.749          calculate D2E/DX2 analytically  !
 ! D9    D(2,1,6,8)             73.458          calculate D2E/DX2 analytically  !
 ! D10   D(15,1,6,5)            73.7339         calculate D2E/DX2 analytically  !
 ! D11   D(15,1,6,7)           -48.3822         calculate D2E/DX2 analytically  !
 ! D12   D(15,1,6,8)          -166.1752         calculate D2E/DX2 analytically  !
 ! D13   D(16,1,6,5)          -167.9386         calculate D2E/DX2 analytically  !
 ! D14   D(16,1,6,7)            69.9453         calculate D2E/DX2 analytically  !
 ! D15   D(16,1,6,8)           -47.8477         calculate D2E/DX2 analytically  !
 ! D16   D(1,2,3,4)             -0.3848         calculate D2E/DX2 analytically  !
 ! D17   D(1,2,3,13)          -179.3655         calculate D2E/DX2 analytically  !
 ! D18   D(14,2,3,4)          -179.3603         calculate D2E/DX2 analytically  !
 ! D19   D(14,2,3,13)            1.6589         calculate D2E/DX2 analytically  !
 ! D20   D(2,3,4,5)             16.036          calculate D2E/DX2 analytically  !
 ! D21   D(2,3,4,11)           137.2564         calculate D2E/DX2 analytically  !
 ! D22   D(2,3,4,12)          -105.7584         calculate D2E/DX2 analytically  !
 ! D23   D(13,3,4,5)          -164.9638         calculate D2E/DX2 analytically  !
 ! D24   D(13,3,4,11)          -43.7434         calculate D2E/DX2 analytically  !
 ! D25   D(13,3,4,12)           73.2418         calculate D2E/DX2 analytically  !
 ! D26   D(3,4,5,6)            -46.6179         calculate D2E/DX2 analytically  !
 ! D27   D(3,4,5,9)             73.4678         calculate D2E/DX2 analytically  !
 ! D28   D(3,4,5,10)          -168.732          calculate D2E/DX2 analytically  !
 ! D29   D(11,4,5,6)          -167.9167         calculate D2E/DX2 analytically  !
 ! D30   D(11,4,5,9)           -47.8311         calculate D2E/DX2 analytically  !
 ! D31   D(11,4,5,10)           69.9691         calculate D2E/DX2 analytically  !
 ! D32   D(12,4,5,6)            73.7523         calculate D2E/DX2 analytically  !
 ! D33   D(12,4,5,9)          -166.1621         calculate D2E/DX2 analytically  !
 ! D34   D(12,4,5,10)          -48.3619         calculate D2E/DX2 analytically  !
 ! D35   D(4,5,6,1)             63.1391         calculate D2E/DX2 analytically  !
 ! D36   D(4,5,6,7)           -175.1531         calculate D2E/DX2 analytically  !
 ! D37   D(4,5,6,8)            -57.5193         calculate D2E/DX2 analytically  !
 ! D38   D(9,5,6,1)            -57.5165         calculate D2E/DX2 analytically  !
 ! D39   D(9,5,6,7)             64.1913         calculate D2E/DX2 analytically  !
 ! D40   D(9,5,6,8)           -178.1749         calculate D2E/DX2 analytically  !
 ! D41   D(10,5,6,1)          -175.1546         calculate D2E/DX2 analytically  !
 ! D42   D(10,5,6,7)           -53.4468         calculate D2E/DX2 analytically  !
 ! D43   D(10,5,6,8)            64.187          calculate D2E/DX2 analytically  !
 --------------------------------------------------------------------------------
 Trust Radius=3.00D-01 FncErr=1.00D-07 GrdErr=1.00D-06 EigMax=2.50D+02 EigMin=1.00D-04
 Number of steps in this run=    100 maximum allowed number of steps=    100.
 GradGradGradGradGradGradGradGradGradGradGradGradGradGradGradGradGradGrad

 Leave Link  103 at Fri Mar 25 22:07:49 2022, MaxMem=  1073741824 cpu:               0.1 elap:               0.0
 (Enter /home/saurabh/gaussian/g16/l202.exe)
                          Input orientation:                          
 ---------------------------------------------------------------------
 Center     Atomic      Atomic             Coordinates (Angstroms)
 Number     Number       Type             X           Y           Z
 ---------------------------------------------------------------------
      1          6           0        0.000000    0.000000    0.000000
      2          6           0       -0.882681    1.211003    0.149321
      3          6           0       -0.405461    2.460900    0.243448
      4          6           0        1.064622    2.786771    0.218344
      5          6           0        1.900806    1.613947   -0.312808
      6          6           0        1.459720    0.309034    0.361292
      7          1           0        2.117513   -0.537664    0.049359
      8          1           0        1.564255    0.417116    1.467617
      9          1           0        1.764853    1.517602   -1.416830
     10          1           0        2.985667    1.805000   -0.129756
     11          1           0        1.235045    3.681997   -0.425535
     12          1           0        1.377370    3.050683    1.255982
     13          1           0       -1.109822    3.302631    0.361865
     14          1           0       -1.973913    1.044858    0.163941
     15          1           0       -0.074438   -0.353270   -1.055366
     16          1           0       -0.377357   -0.817594    0.658939
 ---------------------------------------------------------------------
                    Distance matrix (angstroms):
                    1          2          3          4          5
     1  C    0.000000
     2  C    1.505972   0.000000
     3  C    2.505932   1.341209   0.000000
     4  C    2.991185   2.505953   1.505977   0.000000
     5  C    2.513113   2.850215   2.519051   1.535201   0.000000
     6  C    1.535193   2.518992   2.850143   2.513109   1.533547
     7  H    2.185264   3.474046   3.923577   3.491275   2.192614
     8  H    2.185127   2.890615   3.091185   2.724992   2.171540
     9  H    2.724927   3.091321   2.890778   2.185156   1.116526
    10  H    3.491285   3.923625   3.474080   2.185283   1.116661
    11  H    3.906855   3.304699   2.151715   1.115820   2.175494
    12  H    3.575095   3.117203   2.133437   1.115416   2.190730
    13  H    3.502859   2.114634   1.103928   2.239401   3.517203
    14  H    2.239406   1.103905   2.114601   3.502844   3.945200
    15  H    1.115409   2.133419   3.117057   3.574864   2.884948
    16  H    1.115822   2.151806   3.304837   3.907029   3.470837
                    6          7          8          9         10
     6  C    0.000000
     7  H    1.116643   0.000000
     8  H    1.116496   1.796985   0.000000
     9  H    2.171511   2.549156   3.093759   0.000000
    10  H    2.192614   2.504765   2.549164   1.797093   0.000000
    11  H    3.470800   4.337028   3.788384   2.438846   2.583656
    12  H    2.885115   3.857458   2.648658   3.105544   2.461425
    13  H    3.945145   5.026054   4.086511   3.822805   4.388350
    14  H    3.517132   4.388311   3.822599   4.086648   5.026083
    15  H    2.190709   2.461517   3.105520   2.648360   3.857347
    16  H    2.175485   2.583471   2.438919   3.788274   4.337046
                   11         12         13         14         15
    11  H    0.000000
    12  H    1.801753   0.000000
    13  H    2.502463   2.655004   0.000000
    14  H    4.195163   4.055488   2.425565   0.000000
    15  H    4.288917   4.363138   4.055388   2.655085   0.000000
    16  H    4.901249   4.289417   4.195356   2.502547   1.801721
                   16
    16  H    0.000000
 Stoichiometry    C6H10
 Framework group  C1[X(C6H10)]
 Deg. of freedom    42
 Full point group                 C1      NOp   1
 Largest Abelian subgroup         C1      NOp   1
 Largest concise Abelian subgroup C1      NOp   1
                         Standard orientation:                         
 ---------------------------------------------------------------------
 Center     Atomic      Atomic             Coordinates (Angstroms)
 Number     Number       Type             X           Y           Z
 ---------------------------------------------------------------------
      1          6           0        1.490846    0.042885    0.119042
      2          6           0        0.668696    1.302824    0.051428
      3          6           0       -0.668558    1.302879   -0.051494
      4          6           0       -1.490857    0.043021   -0.118933
      5          6           0       -0.690532   -1.186496    0.333406
      6          6           0        0.690424   -1.186493   -0.333474
      7          1           0        1.249622   -2.119710   -0.081892
      8          1           0        0.559555   -1.169620   -1.442146
      9          1           0       -0.559584   -1.169751    1.442100
     10          1           0       -1.249799   -2.119645    0.081641
     11          1           0       -2.392917    0.153890    0.528408
     12          1           0       -1.841272   -0.084516   -1.170169
     13          1           0       -1.207964    2.264450   -0.107000
     14          1           0        1.208153    2.264342    0.106882
     15          1           0        1.840968   -0.084707    1.170362
     16          1           0        2.393122    0.153544   -0.528037
 ---------------------------------------------------------------------
 Rotational constants (GHZ):           4.7073735           4.5433807           2.5608520
 Leave Link  202 at Fri Mar 25 22:07:49 2022, MaxMem=  1073741824 cpu:               0.1 elap:               0.0
 (Enter /home/saurabh/gaussian/g16/l301.exe)
 Standard basis: CC-pVTZ (5D, 7F)
 Ernie: Thresh=  0.10000D-02 Tol=  0.10000D-05 Strict=F.
 Ernie:  18 primitive shells out of 236 were deleted.
 There are   360 symmetry adapted cartesian basis functions of A   symmetry.
 There are   320 symmetry adapted basis functions of A   symmetry.
   320 basis functions,   482 primitive gaussians,   360 cartesian basis functions
    23 alpha electrons       23 beta electrons
       nuclear repulsion energy       235.9653298108 Hartrees.
 IExCor=  402 DFT=T Ex+Corr=B3LYP ExCW=0 ScaHFX=  0.200000
 ScaDFX=  0.800000  0.720000  1.000000  0.810000 ScalE2=  1.000000  1.000000
 IRadAn=      5 IRanWt=     -1 IRanGd=            0 ICorTp=0 IEmpDi=  4
 NAtoms=   16 NActive=   16 NUniq=   16 SFac= 1.00D+00 NAtFMM=   60 NAOKFM=F Big=F
 Integral buffers will be    131072 words long.
 Raffenetti 2 integral format.
 Two-electron integral symmetry is turned on.
 Leave Link  301 at Fri Mar 25 22:07:49 2022, MaxMem=  1073741824 cpu:               0.4 elap:               0.1
 (Enter /home/saurabh/gaussian/g16/l302.exe)
 NPDir=0 NMtPBC=     1 NCelOv=     1 NCel=       1 NClECP=     1 NCelD=      1
         NCelK=      1 NCelE2=     1 NClLst=     1 CellRange=     0.0.
 One-electron integrals computed using PRISM.
 One-electron integral symmetry used in STVInt
 NBasis=   320 RedAO= T EigKep=  1.67D-04  NBF=   320
 NBsUse=   320 1.00D-06 EigRej= -1.00D+00 NBFU=   320
 Precomputing XC quadrature grid using
 IXCGrd= 4 IRadAn=           5 IRanWt=          -1 IRanGd=           0 AccXCQ= 0.00D+00.
 Generated NRdTot=       0 NPtTot=           0 NUsed=           0 NTot=          32
 NSgBfM=   360   360   360   360   360 MxSgAt=    16 MxSgA2=    16.
 Leave Link  302 at Fri Mar 25 22:07:49 2022, MaxMem=  1073741824 cpu:               2.1 elap:               0.3
 (Enter /home/saurabh/gaussian/g16/l303.exe)
 DipDrv:  MaxL=1.
 Leave Link  303 at Fri Mar 25 22:07:49 2022, MaxMem=  1073741824 cpu:               0.3 elap:               0.1
 (Enter /home/saurabh/gaussian/g16/l401.exe)
 ExpMin= 1.03D-01 ExpMax= 8.24D+03 ExpMxC= 2.81D+02 IAcc=3 IRadAn=         5 AccDes= 0.00D+00
 Harris functional with IExCor=  402 and IRadAn=       5 diagonalized for initial guess.
 HarFok:  IExCor=  402 AccDes= 0.00D+00 IRadAn=         5 IDoV= 1 UseB2=F ITyADJ=14
 ICtDFT=  3500011 ScaDFX=  1.000000  1.000000  1.000000  1.000000
 FoFCou: FMM=F IPFlag=           0 FMFlag=      100000 FMFlg1=           0
         NFxFlg=           0 DoJE=T BraDBF=F KetDBF=T FulRan=T
         wScrn=  0.000000 ICntrl=       500 IOpCl=  0 I1Cent=   200000004 NGrid=           0
         NMat0=    1 NMatS0=      1 NMatT0=    0 NMatD0=    1 NMtDS0=    0 NMtDT0=    0
 Petite list used in FoFCou.
 Harris En= -234.785570992773    
 JPrj=0 DoOrth=F DoCkMO=F.
 Leave Link  401 at Fri Mar 25 22:07:50 2022, MaxMem=  1073741824 cpu:               9.0 elap:               1.2
 (Enter /home/saurabh/gaussian/g16/l502.exe)
 Integral symmetry usage will be decided dynamically.
 Closed shell SCF:
 Using DIIS extrapolation, IDIIS=  1040.
 NGot=  1073741824 LenX=  1073476114 LenY=  1073346073
 Requested convergence on RMS density matrix=1.00D-08 within1000 cycles.
 Requested convergence on MAX density matrix=1.00D-06.
 Requested convergence on             energy=1.00D-06.
 No special actions if energy rises.
 Fock matrices will be formed incrementally for  20 cycles.
 Integral accuracy reduced to 1.0D-05 until final iterations.

 Cycle   1  Pass 0  IDiag  1:
 FoFJK:  IHMeth= 1 ICntrl=       0 DoSepK=F KAlg= 0 I1Cent=           0 FoldK=F
 IRaf= 990000000 NMat=       1 IRICut=       1 DoRegI=T DoRafI=F ISym2E= 0 IDoP0=0 IntGTp=1.
 FoFCou: FMM=F IPFlag=           0 FMFlag=      100000 FMFlg1=           0
         NFxFlg=           0 DoJE=F BraDBF=F KetDBF=F FulRan=T
         wScrn=  0.000000 ICntrl=         0 IOpCl=  0 I1Cent=           0 NGrid=           0
         NMat0=    1 NMatS0=      1 NMatT0=    0 NMatD0=    1 NMtDS0=    0 NMtDT0=    0
 Symmetry not used in FoFCou.
 E= -234.500470463879    
 DIIS: error= 2.70D-02 at cycle   1 NSaved=   1.
 NSaved= 1 IEnMin= 1 EnMin= -234.500470463879     IErMin= 1 ErrMin= 2.70D-02
 ErrMax= 2.70D-02  0.00D+00 EMaxC= 1.00D-01 BMatC= 2.24D-01 BMatP= 2.24D-01
 IDIUse=3 WtCom= 7.30D-01 WtEn= 2.70D-01
 Coeff-Com:  0.100D+01
 Coeff-En:   0.100D+01
 Coeff:      0.100D+01
 Gap=     0.257 Goal=   None    Shift=    0.000
 GapD=    0.257 DampG=1.000 DampE=0.500 DampFc=0.5000 IDamp=-1.
 Damping current iteration by 5.00D-01
 RMSDP=2.62D-03 MaxDP=7.96D-02              OVMax= 1.93D-01

 Cycle   2  Pass 0  IDiag  1:
 RMSU=  1.30D-03    CP:  9.85D-01
 E= -234.584780234363     Delta-E=       -0.084309770484 Rises=F Damp=T
 DIIS: error= 1.06D-02 at cycle   2 NSaved=   2.
 NSaved= 2 IEnMin= 2 EnMin= -234.584780234363     IErMin= 2 ErrMin= 1.06D-02
 ErrMax= 1.06D-02  0.00D+00 EMaxC= 1.00D-01 BMatC= 1.82D-02 BMatP= 2.24D-01
 IDIUse=3 WtCom= 8.94D-01 WtEn= 1.06D-01
 Coeff-Com:  0.121D+00 0.879D+00
 Coeff-En:   0.243D+00 0.757D+00
 Coeff:      0.134D+00 0.866D+00
 Gap=     0.274 Goal=   None    Shift=    0.000
 RMSDP=7.36D-04 MaxDP=2.30D-02 DE=-8.43D-02 OVMax= 1.22D-01

 Cycle   3  Pass 0  IDiag  1:
 RMSU=  5.57D-04    CP:  9.90D-01  6.33D-01
 E= -234.725955749550     Delta-E=       -0.141175515188 Rises=F Damp=F
 DIIS: error= 6.24D-03 at cycle   3 NSaved=   3.
 NSaved= 3 IEnMin= 3 EnMin= -234.725955749550     IErMin= 3 ErrMin= 6.24D-03
 ErrMax= 6.24D-03  0.00D+00 EMaxC= 1.00D-01 BMatC= 4.87D-03 BMatP= 1.82D-02
 IDIUse=3 WtCom= 9.38D-01 WtEn= 6.24D-02
 Coeff-Com: -0.124D-01 0.317D+00 0.696D+00
 Coeff-En:   0.000D+00 0.000D+00 0.100D+01
 Coeff:     -0.116D-01 0.297D+00 0.715D+00
 Gap=     0.256 Goal=   None    Shift=    0.000
 RMSDP=1.95D-04 MaxDP=5.84D-03 DE=-1.41D-01 OVMax= 1.43D-02

 Cycle   4  Pass 0  IDiag  1:
 RMSU=  1.21D-04    CP:  9.89D-01  6.95D-01  7.67D-01
 E= -234.730402412229     Delta-E=       -0.004446662679 Rises=F Damp=F
 DIIS: error= 9.48D-04 at cycle   4 NSaved=   4.
 NSaved= 4 IEnMin= 4 EnMin= -234.730402412229     IErMin= 4 ErrMin= 9.48D-04
 ErrMax= 9.48D-04  0.00D+00 EMaxC= 1.00D-01 BMatC= 1.85D-04 BMatP= 4.87D-03
 IDIUse=3 WtCom= 9.91D-01 WtEn= 9.48D-03
 Coeff-Com: -0.995D-02 0.238D-01 0.192D+00 0.795D+00
 Coeff-En:   0.000D+00 0.000D+00 0.000D+00 0.100D+01
 Coeff:     -0.985D-02 0.235D-01 0.190D+00 0.797D+00
 Gap=     0.256 Goal=   None    Shift=    0.000
 RMSDP=3.82D-05 MaxDP=9.89D-04 DE=-4.45D-03 OVMax= 3.00D-03

 Cycle   5  Pass 0  IDiag  1:
 RMSU=  1.86D-05    CP:  9.89D-01  6.94D-01  8.13D-01  8.18D-01
 E= -234.730562499917     Delta-E=       -0.000160087688 Rises=F Damp=F
 DIIS: error= 3.05D-04 at cycle   5 NSaved=   5.
 NSaved= 5 IEnMin= 5 EnMin= -234.730562499917     IErMin= 5 ErrMin= 3.05D-04
 ErrMax= 3.05D-04  0.00D+00 EMaxC= 1.00D-01 BMatC= 1.57D-05 BMatP= 1.85D-04
 IDIUse=3 WtCom= 9.97D-01 WtEn= 3.05D-03
 Coeff-Com: -0.438D-02 0.692D-02 0.838D-01 0.397D+00 0.517D+00
 Coeff-En:   0.000D+00 0.000D+00 0.000D+00 0.000D+00 0.100D+01
 Coeff:     -0.437D-02 0.690D-02 0.835D-01 0.396D+00 0.518D+00
 Gap=     0.256 Goal=   None    Shift=    0.000
 RMSDP=9.79D-06 MaxDP=2.59D-04 DE=-1.60D-04 OVMax= 8.57D-04

 Initial convergence to 1.0D-05 achieved.  Increase integral accuracy.
 Cycle   6  Pass 1  IDiag  1:
 E= -234.730592687031     Delta-E=       -0.000030187114 Rises=F Damp=F
 DIIS: error= 4.56D-05 at cycle   1 NSaved=   1.
 NSaved= 1 IEnMin= 1 EnMin= -234.730592687031     IErMin= 1 ErrMin= 4.56D-05
 ErrMax= 4.56D-05  0.00D+00 EMaxC= 1.00D-01 BMatC= 6.98D-07 BMatP= 6.98D-07
 IDIUse=1 WtCom= 1.00D+00 WtEn= 0.00D+00
 Coeff-Com:  0.100D+01
 Coeff:      0.100D+01
 Gap=     0.256 Goal=   None    Shift=    0.000
 RMSDP=9.79D-06 MaxDP=2.59D-04 DE=-3.02D-05 OVMax= 3.16D-04

 Cycle   7  Pass 1  IDiag  1:
 RMSU=  7.04D-06    CP:  1.00D+00
 E= -234.730592502535     Delta-E=        0.000000184496 Rises=F Damp=F
 DIIS: error= 5.60D-05 at cycle   2 NSaved=   2.
 NSaved= 2 IEnMin= 1 EnMin= -234.730592687031     IErMin= 1 ErrMin= 4.56D-05
 ErrMax= 5.60D-05  0.00D+00 EMaxC= 1.00D-01 BMatC= 7.30D-07 BMatP= 6.98D-07
 IDIUse=1 WtCom= 1.00D+00 WtEn= 0.00D+00
 Coeff-Com:  0.506D+00 0.494D+00
 Coeff:      0.506D+00 0.494D+00
 Gap=     0.256 Goal=   None    Shift=    0.000
 RMSDP=2.05D-06 MaxDP=6.93D-05 DE= 1.84D-07 OVMax= 1.96D-04

 Cycle   8  Pass 1  IDiag  1:
 RMSU=  1.84D-06    CP:  1.00D+00  8.72D-01
 E= -234.730593223663     Delta-E=       -0.000000721128 Rises=F Damp=F
 DIIS: error= 9.40D-06 at cycle   3 NSaved=   3.
 NSaved= 3 IEnMin= 3 EnMin= -234.730593223663     IErMin= 3 ErrMin= 9.40D-06
 ErrMax= 9.40D-06  0.00D+00 EMaxC= 1.00D-01 BMatC= 1.92D-08 BMatP= 6.98D-07
 IDIUse=1 WtCom= 1.00D+00 WtEn= 0.00D+00
 Coeff-Com:  0.458D-01 0.155D+00 0.800D+00
 Coeff:      0.458D-01 0.155D+00 0.800D+00
 Gap=     0.256 Goal=   None    Shift=    0.000
 RMSDP=3.49D-07 MaxDP=9.76D-06 DE=-7.21D-07 OVMax= 2.86D-05

 Cycle   9  Pass 1  IDiag  1:
 RMSU=  2.38D-07    CP:  1.00D+00  8.92D-01  8.86D-01
 E= -234.730593241202     Delta-E=       -0.000000017539 Rises=F Damp=F
 DIIS: error= 3.12D-06 at cycle   4 NSaved=   4.
 NSaved= 4 IEnMin= 4 EnMin= -234.730593241202     IErMin= 4 ErrMin= 3.12D-06
 ErrMax= 3.12D-06  0.00D+00 EMaxC= 1.00D-01 BMatC= 1.39D-09 BMatP= 1.92D-08
 IDIUse=1 WtCom= 1.00D+00 WtEn= 0.00D+00
 Coeff-Com:  0.632D-03 0.501D-01 0.348D+00 0.601D+00
 Coeff:      0.632D-03 0.501D-01 0.348D+00 0.601D+00
 Gap=     0.256 Goal=   None    Shift=    0.000
 RMSDP=1.07D-07 MaxDP=2.41D-06 DE=-1.75D-08 OVMax= 8.66D-06

 Cycle  10  Pass 1  IDiag  1:
 RMSU=  6.30D-08    CP:  1.00D+00  8.95D-01  8.91D-01  6.49D-01
 E= -234.730593242428     Delta-E=       -0.000000001226 Rises=F Damp=F
 DIIS: error= 8.11D-07 at cycle   5 NSaved=   5.
 NSaved= 5 IEnMin= 5 EnMin= -234.730593242428     IErMin= 5 ErrMin= 8.11D-07
 ErrMax= 8.11D-07  0.00D+00 EMaxC= 1.00D-01 BMatC= 1.27D-10 BMatP= 1.39D-09
 IDIUse=1 WtCom= 1.00D+00 WtEn= 0.00D+00
 Coeff-Com: -0.151D-02 0.194D-01 0.145D+00 0.325D+00 0.512D+00
 Coeff:     -0.151D-02 0.194D-01 0.145D+00 0.325D+00 0.512D+00
 Gap=     0.256 Goal=   None    Shift=    0.000
 RMSDP=2.68D-08 MaxDP=9.18D-07 DE=-1.23D-09 OVMax= 2.98D-06

 Cycle  11  Pass 1  IDiag  1:
 RMSU=  1.44D-08    CP:  1.00D+00  8.95D-01  8.90D-01  6.78D-01  6.59D-01
 E= -234.730593242559     Delta-E=       -0.000000000131 Rises=F Damp=F
 DIIS: error= 5.14D-08 at cycle   6 NSaved=   6.
 NSaved= 6 IEnMin= 6 EnMin= -234.730593242559     IErMin= 6 ErrMin= 5.14D-08
 ErrMax= 5.14D-08  0.00D+00 EMaxC= 1.00D-01 BMatC= 1.15D-12 BMatP= 1.27D-10
 IDIUse=1 WtCom= 1.00D+00 WtEn= 0.00D+00
 Coeff-Com: -0.483D-03 0.304D-02 0.237D-01 0.632D-01 0.129D+00 0.781D+00
 Coeff:     -0.483D-03 0.304D-02 0.237D-01 0.632D-01 0.129D+00 0.781D+00
 Gap=     0.256 Goal=   None    Shift=    0.000
 RMSDP=3.99D-09 MaxDP=2.10D-07 DE=-1.31D-10 OVMax= 9.50D-07

 SCF Done:  E(RB3LYP) =  -234.730593243     A.U. after   11 cycles
            NFock= 11  Conv=0.40D-08     -V/T= 2.0087
 KE= 2.327012164969D+02 PE=-1.014657346053D+03 EE= 3.112602065028D+02
 Leave Link  502 at Fri Mar 25 22:08:30 2022, MaxMem=  1073741824 cpu:             317.0 elap:              39.7
 (Enter /home/saurabh/gaussian/g16/l801.exe)
 DoSCS=F DFT=T ScalE2(SS,OS)=  1.000000  1.000000
 Range of M.O.s used for correlation:     1   320
 NBasis=   320 NAE=    23 NBE=    23 NFC=     0 NFV=     0
 NROrb=    320 NOA=    23 NOB=    23 NVA=   297 NVB=   297

 **** Warning!!: The largest alpha MO coefficient is  0.18035680D+02

 Leave Link  801 at Fri Mar 25 22:08:30 2022, MaxMem=  1073741824 cpu:               0.2 elap:               0.0
 (Enter /home/saurabh/gaussian/g16/l1101.exe)
 Using compressed storage, NAtomX=    16.
 Will process     17 centers per pass.
 Leave Link 1101 at Fri Mar 25 22:08:30 2022, MaxMem=  1073741824 cpu:               2.2 elap:               0.3
 (Enter /home/saurabh/gaussian/g16/l1102.exe)
 Symmetrizing basis deriv contribution to polar:
 IMax=3 JMax=2 DiffMx= 0.00D+00
 Leave Link 1102 at Fri Mar 25 22:08:31 2022, MaxMem=  1073741824 cpu:               0.3 elap:               0.1
 (Enter /home/saurabh/gaussian/g16/l1110.exe)
 Forming Gx(P) for the SCF density, NAtomX=    16.
 Integral derivatives from FoFJK, PRISM(SPDF).
 Do as many integral derivatives as possible in FoFJK.
 G2DrvN: MDV=    1073740040.
 G2DrvN: will do    17 centers at a time, making    1 passes.
 Calling FoFCou, ICntrl=  3107 FMM=F I1Cent=   0 AccDes= 0.00D+00.
 FoFJK:  IHMeth= 1 ICntrl=    3107 DoSepK=F KAlg= 0 I1Cent=           0 FoldK=F
 IRaf=         0 NMat=       1 IRICut=       1 DoRegI=T DoRafI=F ISym2E= 0 IDoP0=0 IntGTp=1.
 FoFCou: FMM=F IPFlag=           0 FMFlag=      100000 FMFlg1=           0
         NFxFlg=           0 DoJE=F BraDBF=F KetDBF=F FulRan=T
         wScrn=  0.000000 ICntrl=      3107 IOpCl=  0 I1Cent=           0 NGrid=           0
         NMat0=    1 NMatS0=      1 NMatT0=    0 NMatD0=    1 NMtDS0=    0 NMtDT0=    0
 Symmetry not used in FoFCou.
 End of G2Drv F.D. properties file   721 does not exist.
 End of G2Drv F.D. properties file   722 does not exist.
 End of G2Drv F.D. properties file   788 does not exist.
 Leave Link 1110 at Fri Mar 25 22:09:44 2022, MaxMem=  1073741824 cpu:             585.6 elap:              73.2
 (Enter /home/saurabh/gaussian/g16/l1002.exe)
 Minotr:  Closed shell wavefunction.
          IDoAtm=1111111111111111
          Direct CPHF calculation.
          Differentiating once with respect to nuclear coordinates.
          Requested convergence is 1.0D-08 RMS, and 1.0D-07 maximum.
          Secondary convergence is 1.0D-12 RMS, and 1.0D-12 maximum.
          NewPWx=T KeepS1=F KeepF1=F KeepIn=T MapXYZ=F SortEE=F KeepMc=T.
         4727 words used for storage of precomputed grid.
 Two-electron integrals replicated using symmetry.
          MDV=    1073741824 using IRadAn=       1.
          Solving linear equations simultaneously, MaxMat=     384.
 FoF2E skips out because all densities are zero.
 CalDSu exits because no D1Ps are significant.
 FoFJK:  IHMeth= 1 ICntrl=       0 DoSepK=F KAlg= 0 I1Cent=           0 FoldK=F
 IRaf= 980000000 NMat=      48 IRICut=     120 DoRegI=T DoRafI=T ISym2E= 2 IDoP0=3 IntGTp=3.
 FoFCou: FMM=F IPFlag=           0 FMFlag=      100000 FMFlg1=           0
         NFxFlg=           0 DoJE=F BraDBF=F KetDBF=F FulRan=T
         wScrn=  0.000000 ICntrl=         0 IOpCl=  0 I1Cent=           0 NGrid=           0
         NMat0=   48 NMatS0=     48 NMatT0=    0 NMatD0=   48 NMtDS0=    0 NMtDT0=    0
 Integrals replicated using symmetry in FoFCou.
 Raff kept on since  95.66% of shell-pairs survive, threshold=   0.20 IRatSp=96.
          There are    51 degrees of freedom in the 1st order CPHF.  IDoFFX=6 NUNeed=     0.
     45 vectors produced by pass  0 Test12= 1.34D-14 1.96D-09 XBig12= 8.15D-02 9.97D-02.
 AX will form    45 AO Fock derivatives at one time.
     45 vectors produced by pass  1 Test12= 1.34D-14 1.96D-09 XBig12= 1.81D-02 3.57D-02.
     45 vectors produced by pass  2 Test12= 1.34D-14 1.96D-09 XBig12= 2.06D-04 2.90D-03.
     45 vectors produced by pass  3 Test12= 1.34D-14 1.96D-09 XBig12= 8.06D-07 1.38D-04.
     45 vectors produced by pass  4 Test12= 1.34D-14 1.96D-09 XBig12= 1.23D-09 4.11D-06.
     26 vectors produced by pass  5 Test12= 1.34D-14 1.96D-09 XBig12= 1.32D-12 1.40D-07.
      9 vectors produced by pass  6 Test12= 1.34D-14 1.96D-09 XBig12= 1.38D-15 5.36D-09.
 InvSVY:  IOpt=1 It=  1 EMax= 2.22D-16
 Solved reduced A of dimension   260 with    51 vectors.
 End of Minotr F.D. properties file   721 does not exist.
 End of Minotr F.D. properties file   722 does not exist.
 End of Minotr F.D. properties file   788 does not exist.
 Leave Link 1002 at Fri Mar 25 22:12:02 2022, MaxMem=  1073741824 cpu:            1107.4 elap:             138.4
 (Enter /home/saurabh/gaussian/g16/l601.exe)
 Copying SCF densities to generalized density rwf, IOpCl= 0 IROHF=0.

 **********************************************************************

            Population analysis using the SCF Density.

 **********************************************************************

 Orbital symmetries:
       Occupied  (A) (A) (A) (A) (A) (A) (A) (A) (A) (A) (A) (A)
                 (A) (A) (A) (A) (A) (A) (A) (A) (A) (A) (A)
       Virtual   (A) (A) (A) (A) (A) (A) (A) (A) (A) (A) (A) (A)
                 (A) (A) (A) (A) (A) (A) (A) (A) (A) (A) (A) (A)
                 (A) (A) (A) (A) (A) (A) (A) (A) (A) (A) (A) (A)
                 (A) (A) (A) (A) (A) (A) (A) (A) (A) (A) (A) (A)
                 (A) (A) (A) (A) (A) (A) (A) (A) (A) (A) (A) (A)
                 (A) (A) (A) (A) (A) (A) (A) (A) (A) (A) (A) (A)
                 (A) (A) (A) (A) (A) (A) (A) (A) (A) (A) (A) (A)
                 (A) (A) (A) (A) (A) (A) (A) (A) (A) (A) (A) (A)
                 (A) (A) (A) (A) (A) (A) (A) (A) (A) (A) (A) (A)
                 (A) (A) (A) (A) (A) (A) (A) (A) (A) (A) (A) (A)
                 (A) (A) (A) (A) (A) (A) (A) (A) (A) (A) (A) (A)
                 (A) (A) (A) (A) (A) (A) (A) (A) (A) (A) (A) (A)
                 (A) (A) (A) (A) (A) (A) (A) (A) (A) (A) (A) (A)
                 (A) (A) (A) (A) (A) (A) (A) (A) (A) (A) (A) (A)
                 (A) (A) (A) (A) (A) (A) (A) (A) (A) (A) (A) (A)
                 (A) (A) (A) (A) (A) (A) (A) (A) (A) (A) (A) (A)
                 (A) (A) (A) (A) (A) (A) (A) (A) (A) (A) (A) (A)
                 (A) (A) (A) (A) (A) (A) (A) (A) (A) (A) (A) (A)
                 (A) (A) (A) (A) (A) (A) (A) (A) (A) (A) (A) (A)
                 (A) (A) (A) (A) (A) (A) (A) (A) (A) (A) (A) (A)
                 (A) (A) (A) (A) (A) (A) (A) (A) (A) (A) (A) (A)
                 (A) (A) (A) (A) (A) (A) (A) (A) (A) (A) (A) (A)
                 (A) (A) (A) (A) (A) (A) (A) (A) (A) (A) (A) (A)
                 (A) (A) (A) (A) (A) (A) (A) (A) (A) (A) (A) (A)
                 (A) (A) (A) (A) (A) (A) (A) (A) (A)
 The electronic state is 1-A.
 Alpha  occ. eigenvalues --  -10.17579 -10.17579 -10.17311 -10.17288 -10.16880
 Alpha  occ. eigenvalues --  -10.16797  -0.83124  -0.73844  -0.73693  -0.61410
 Alpha  occ. eigenvalues --   -0.59458  -0.50764  -0.48956  -0.44244  -0.42671
 Alpha  occ. eigenvalues --   -0.40610  -0.38827  -0.38145  -0.37665  -0.33053
 Alpha  occ. eigenvalues --   -0.31464  -0.30453  -0.24285
 Alpha virt. eigenvalues --    0.01287   0.03489   0.06218   0.06563   0.07020
 Alpha virt. eigenvalues --    0.09526   0.09546   0.10977   0.11420   0.12658
 Alpha virt. eigenvalues --    0.14024   0.17261   0.19174   0.21807   0.22195
 Alpha virt. eigenvalues --    0.23331   0.26169   0.26280   0.28323   0.30532
 Alpha virt. eigenvalues --    0.31286   0.32363   0.32532   0.35493   0.36652
 Alpha virt. eigenvalues --    0.40878   0.41087   0.42133   0.42701   0.42904
 Alpha virt. eigenvalues --    0.43338   0.43912   0.44737   0.45921   0.45925
 Alpha virt. eigenvalues --    0.47149   0.47734   0.48588   0.48784   0.49180
 Alpha virt. eigenvalues --    0.49748   0.51460   0.53361   0.55648   0.62133
 Alpha virt. eigenvalues --    0.63027   0.64332   0.65297   0.67387   0.72834
 Alpha virt. eigenvalues --    0.75968   0.76974   0.77734   0.78580   0.81815
 Alpha virt. eigenvalues --    0.83684   0.87411   0.90660   0.92205   0.94943
 Alpha virt. eigenvalues --    0.95552   0.96027   0.97962   1.00160   1.01206
 Alpha virt. eigenvalues --    1.03576   1.03864   1.06490   1.06723   1.07422
 Alpha virt. eigenvalues --    1.09136   1.10634   1.11936   1.12236   1.13368
 Alpha virt. eigenvalues --    1.16759   1.16867   1.17312   1.20103   1.21432
 Alpha virt. eigenvalues --    1.22223   1.22596   1.23847   1.28439   1.28671
 Alpha virt. eigenvalues --    1.29542   1.30094   1.31719   1.32749   1.34641
 Alpha virt. eigenvalues --    1.37461   1.39003   1.39995   1.42402   1.43306
 Alpha virt. eigenvalues --    1.43942   1.45300   1.45887   1.47083   1.48887
 Alpha virt. eigenvalues --    1.50462   1.51550   1.55803   1.58823   1.60960
 Alpha virt. eigenvalues --    1.63145   1.69830   1.73232   1.81280   1.82217
 Alpha virt. eigenvalues --    2.00217   2.11859   2.12378   2.21398   2.23338
 Alpha virt. eigenvalues --    2.30225   2.31671   2.35849   2.37377   2.41905
 Alpha virt. eigenvalues --    2.43473   2.43577   2.45468   2.46890   2.46970
 Alpha virt. eigenvalues --    2.49004   2.53733   2.54949   2.57370   2.57489
 Alpha virt. eigenvalues --    2.58380   2.61582   2.62034   2.62734   2.65023
 Alpha virt. eigenvalues --    2.66190   2.67449   2.70636   2.71641   2.73808
 Alpha virt. eigenvalues --    2.75484   2.75554   2.79811   2.80828   2.85682
 Alpha virt. eigenvalues --    2.89391   2.91821   2.91964   2.92981   2.93789
 Alpha virt. eigenvalues --    2.95350   2.97926   2.98932   3.01695   3.02325
 Alpha virt. eigenvalues --    3.04649   3.05334   3.06044   3.07401   3.08541
 Alpha virt. eigenvalues --    3.08605   3.12157   3.13368   3.14575   3.15176
 Alpha virt. eigenvalues --    3.16033   3.16344   3.19189   3.20252   3.22040
 Alpha virt. eigenvalues --    3.23022   3.25498   3.27630   3.29864   3.30647
 Alpha virt. eigenvalues --    3.31201   3.33871   3.35932   3.37419   3.37971
 Alpha virt. eigenvalues --    3.38184   3.41676   3.46661   3.47005   3.49989
 Alpha virt. eigenvalues --    3.51203   3.51279   3.54332   3.58405   3.58931
 Alpha virt. eigenvalues --    3.61608   3.62681   3.63410   3.64643   3.66894
 Alpha virt. eigenvalues --    3.67099   3.68566   3.72116   3.72681   3.73144
 Alpha virt. eigenvalues --    3.75579   3.79358   3.80063   3.80533   3.81745
 Alpha virt. eigenvalues --    3.83500   3.86662   3.88240   3.88559   3.91384
 Alpha virt. eigenvalues --    3.92929   3.93620   3.94982   3.96964   3.97601
 Alpha virt. eigenvalues --    3.98539   3.98746   3.99468   4.03954   4.06406
 Alpha virt. eigenvalues --    4.08541   4.09245   4.10233   4.11642   4.14201
 Alpha virt. eigenvalues --    4.15508   4.16780   4.16995   4.18755   4.21938
 Alpha virt. eigenvalues --    4.23116   4.26051   4.26544   4.28322   4.30624
 Alpha virt. eigenvalues --    4.33413   4.34422   4.37102   4.41868   4.46949
 Alpha virt. eigenvalues --    4.47137   4.47827   4.49441   4.54644   4.55466
 Alpha virt. eigenvalues --    4.58659   4.62441   4.64547   4.66582   4.68477
 Alpha virt. eigenvalues --    4.72269   4.74104   4.78160   4.78781   4.80572
 Alpha virt. eigenvalues --    4.82081   4.84771   4.89214   4.90589   4.92704
 Alpha virt. eigenvalues --    4.96658   4.96667   4.97750   5.01728   5.03495
 Alpha virt. eigenvalues --    5.05964   5.08826   5.12392   5.17336   5.20376
 Alpha virt. eigenvalues --    5.22744   5.23778   5.25460   5.29241   5.32538
 Alpha virt. eigenvalues --    5.33612   5.37430   5.38113   5.42312   5.46405
 Alpha virt. eigenvalues --    5.49650   5.50245   5.61215   5.66841   5.73198
 Alpha virt. eigenvalues --    5.79507   5.91309   5.95063   6.01669   6.03765
 Alpha virt. eigenvalues --    6.09085   9.90898  11.79484  12.33197  12.48927
 Alpha virt. eigenvalues --   12.81954  13.70194
          Condensed to atoms (all electrons):
               1          2          3          4          5          6
     1  C    4.843706   0.347288  -0.056539  -0.013514  -0.036124   0.344751
     2  C    0.347288   4.945191   0.658909  -0.056540  -0.014327  -0.036729
     3  C   -0.056539   0.658909   4.945204   0.347281  -0.036723  -0.014335
     4  C   -0.013514  -0.056540   0.347281   4.843720   0.344750  -0.036126
     5  C   -0.036124  -0.014327  -0.036723   0.344750   4.867714   0.340878
     6  C    0.344751  -0.036729  -0.014335  -0.036126   0.340878   4.867737
     7  H   -0.034493   0.006549   0.000186   0.006827  -0.034337   0.406108
     8  H   -0.036662  -0.000717   0.001702  -0.003955  -0.040785   0.405372
     9  H   -0.003957   0.001700  -0.000714  -0.036663   0.405372  -0.040790
    10  H    0.006827   0.000185   0.006548  -0.034494   0.406110  -0.034339
    11  H   -0.000495   0.003553  -0.038403   0.411250  -0.036256   0.008493
    12  H    0.001261  -0.002396  -0.040783   0.400402  -0.029136  -0.006323
    13  H    0.008621  -0.050047   0.417389  -0.048206   0.007172  -0.001105
    14  H   -0.048204   0.417391  -0.050051   0.008621  -0.001105   0.007172
    15  H    0.400406  -0.040784  -0.002400   0.001262  -0.006330  -0.029136
    16  H    0.411248  -0.038395   0.003555  -0.000495   0.008493  -0.036253
               7          8          9         10         11         12
     1  C   -0.034493  -0.036662  -0.003957   0.006827  -0.000495   0.001261
     2  C    0.006549  -0.000717   0.001700   0.000185   0.003553  -0.002396
     3  C    0.000186   0.001702  -0.000714   0.006548  -0.038403  -0.040783
     4  C    0.006827  -0.003955  -0.036663  -0.034494   0.411250   0.400402
     5  C   -0.034337  -0.040785   0.405372   0.406110  -0.036256  -0.029136
     6  C    0.406108   0.405372  -0.040790  -0.034339   0.008493  -0.006323
     7  H    0.628347  -0.036548  -0.004750  -0.006498  -0.000437  -0.000247
     8  H   -0.036548   0.632879   0.008374  -0.004748   0.000275   0.002404
     9  H   -0.004750   0.008374   0.632892  -0.036539  -0.008169   0.008212
    10  H   -0.006498  -0.004748  -0.036539   0.628341  -0.002871  -0.007322
    11  H   -0.000437   0.000275  -0.008169  -0.002871   0.622232  -0.034784
    12  H   -0.000247   0.002404   0.008212  -0.007322  -0.034784   0.624676
    13  H    0.000112  -0.000196  -0.000048  -0.000432  -0.005990   0.000401
    14  H   -0.000432  -0.000047  -0.000196   0.000112  -0.000400  -0.000490
    15  H   -0.007319   0.008213   0.002406  -0.000246   0.000309  -0.000309
    16  H   -0.002874  -0.008165   0.000275  -0.000437   0.000017   0.000309
              13         14         15         16
     1  C    0.008621  -0.048204   0.400406   0.411248
     2  C   -0.050047   0.417391  -0.040784  -0.038395
     3  C    0.417389  -0.050051  -0.002400   0.003555
     4  C   -0.048206   0.008621   0.001262  -0.000495
     5  C    0.007172  -0.001105  -0.006330   0.008493
     6  C   -0.001105   0.007172  -0.029136  -0.036253
     7  H    0.000112  -0.000432  -0.007319  -0.002874
     8  H   -0.000196  -0.000047   0.008213  -0.008165
     9  H   -0.000048  -0.000196   0.002406   0.000275
    10  H   -0.000432   0.000112  -0.000246  -0.000437
    11  H   -0.005990  -0.000400   0.000309   0.000017
    12  H    0.000401  -0.000490  -0.000309   0.000309
    13  H    0.583119  -0.012010  -0.000490  -0.000400
    14  H   -0.012010   0.583107   0.000404  -0.005991
    15  H   -0.000490   0.000404   0.624679  -0.034789
    16  H   -0.000400  -0.005991  -0.034789   0.622233
 Mulliken charges:
               1
     1  C   -0.134120
     2  C   -0.140830
     3  C   -0.140824
     4  C   -0.134122
     5  C   -0.145365
     6  C   -0.145373
     7  H    0.079805
     8  H    0.072606
     9  H    0.072594
    10  H    0.079802
    11  H    0.081676
    12  H    0.084125
    13  H    0.102110
    14  H    0.102121
    15  H    0.084125
    16  H    0.081672
 Sum of Mulliken charges =  -0.00000
 Mulliken charges with hydrogens summed into heavy atoms:
               1
     1  C    0.031677
     2  C   -0.038710
     3  C   -0.038715
     4  C    0.031678
     5  C    0.007032
     6  C    0.007038
 APT charges:
               1
     1  C   -0.746797
     2  C   -0.511604
     3  C   -0.511577
     4  C   -0.746807
     5  C   -0.703959
     6  C   -0.703979
     7  H    0.429259
     8  H    0.282762
     9  H    0.282737
    10  H    0.429257
    11  H    0.414957
    12  H    0.332994
    13  H    0.502398
    14  H    0.502404
    15  H    0.332956
    16  H    0.415000
 Sum of APT charges =  -0.00000
 APT charges with hydrogens summed into heavy atoms:
               1
     1  C    0.001160
     2  C   -0.009201
     3  C   -0.009179
     4  C    0.001144
     5  C    0.008034
     6  C    0.008042
 Electronic spatial extent (au):  <R**2>=            554.3771
 Charge=             -0.0000 electrons
 Dipole moment (field-independent basis, Debye):
    X=             -0.0000    Y=             -0.3010    Z=              0.0001  Tot=              0.3010
 Quadrupole moment (field-independent basis, Debye-Ang):
   XX=            -37.8535   YY=            -38.8552   ZZ=            -39.6764
   XY=             -0.0002   XZ=              0.2183   YZ=              0.0002
 Traceless Quadrupole moment (field-independent basis, Debye-Ang):
   XX=              0.9415   YY=             -0.0602   ZZ=             -0.8814
   XY=             -0.0002   XZ=              0.2183   YZ=              0.0002
 Octapole moment (field-independent basis, Debye-Ang**2):
  XXX=              0.0015  YYY=              1.9246  ZZZ=              0.0006  XYY=             -0.0001
  XXY=              1.6535  XXZ=             -0.0005  XZZ=             -0.0005  YZZ=             -2.6114
  YYZ=             -0.0006  XYZ=             -0.3170
 Hexadecapole moment (field-independent basis, Debye-Ang**3):
 XXXX=           -359.0059 YYYY=           -332.6962 ZZZZ=            -86.5118 XXXY=             -0.0004
 XXXZ=             -3.5770 YYYX=             -0.0002 YYYZ=              0.0007 ZZZX=              1.5698
 ZZZY=              0.0005 XXYY=           -112.6656 XXZZ=            -72.7260 YYZZ=            -77.4957
 XXYZ=              0.0013 YYXZ=              1.9513 ZZXY=             -0.0007
 N-N= 2.359653298108D+02 E-N=-1.014657340861D+03  KE= 2.327012164969D+02
  Exact polarizability:       0.000       0.000       0.000       0.000       0.000       0.000
 Approx polarizability:     119.818      -0.002      93.357       3.570      -0.000      85.572
 No NMR shielding tensors so no spin-rotation constants.
 Leave Link  601 at Fri Mar 25 22:12:02 2022, MaxMem=  1073741824 cpu:               1.5 elap:               0.2
 (Enter /home/saurabh/gaussian/g16/l701.exe)
 ... and contract with generalized density number  0.
 Compute integral second derivatives.
 Leave Link  701 at Fri Mar 25 22:12:03 2022, MaxMem=  1073741824 cpu:               1.9 elap:               0.3
 (Enter /home/saurabh/gaussian/g16/l702.exe)
 L702 exits ... SP integral derivatives will be done elsewhere.
 Leave Link  702 at Fri Mar 25 22:12:03 2022, MaxMem=  1073741824 cpu:               0.1 elap:               0.0
 (Enter /home/saurabh/gaussian/g16/l703.exe)
 Integral derivatives from FoFJK, PRISM(SPDF).
 Compute integral second derivatives, UseDBF=F ICtDFT=           0.
 Calling FoFJK, ICntrl=    100127 FMM=F ISym2X=0 I1Cent= 0 IOpClX= 0 NMat=1 NMatS=1 NMatT=0.
 FoFJK:  IHMeth= 1 ICntrl=  100127 DoSepK=F KAlg= 0 I1Cent=           0 FoldK=F
 IRaf=         0 NMat=       1 IRICut=       1 DoRegI=T DoRafI=F ISym2E= 0 IDoP0=0 IntGTp=1.
 FoFCou: FMM=F IPFlag=           0 FMFlag=      100000 FMFlg1=         800
         NFxFlg=           0 DoJE=F BraDBF=F KetDBF=F FulRan=T
         wScrn=  0.000000 ICntrl=    100127 IOpCl=  0 I1Cent=           0 NGrid=           0
         NMat0=    1 NMatS0=      1 NMatT0=    0 NMatD0=    1 NMtDS0=    0 NMtDT0=    0
 Symmetry not used in FoFCou.
 Leave Link  703 at Fri Mar 25 22:15:09 2022, MaxMem=  1073741824 cpu:            1485.7 elap:             185.7
 (Enter /home/saurabh/gaussian/g16/l716.exe)
 Dipole        =-3.64730641D-06-1.18425678D-01 2.13988159D-05
 Polarizability= 0.00000000D+00 0.00000000D+00 0.00000000D+00
                 0.00000000D+00 0.00000000D+00 0.00000000D+00
 ***** Axes restored to original set *****
 -------------------------------------------------------------------
 Center     Atomic                   Forces (Hartrees/Bohr)
 Number     Number              X              Y              Z
 -------------------------------------------------------------------
      1        6          -0.004253213   -0.008779848    0.002943118
      2        6          -0.006927702    0.010066750    0.000207197
      3        6          -0.011783468   -0.003022410    0.001178711
      4        6           0.002209600    0.009548993   -0.002793630
      5        6           0.011594939    0.000230802   -0.002613578
      6        6           0.008810498   -0.007916231    0.001099224
      7        1          -0.008411349    0.010910799    0.005050848
      8        1          -0.001834699   -0.002256402   -0.013322907
      9        1           0.001845801    0.002262582    0.013338579
     10        1          -0.014074959   -0.002455014   -0.003398956
     11        1          -0.001511064   -0.008659376    0.010694591
     12        1          -0.000295467   -0.000307027   -0.012163768
     13        1           0.007824539   -0.009335519   -0.001192264
     14        1           0.012083147    0.001835923   -0.000281980
     15        1           0.001552295   -0.000169767    0.012065706
     16        1           0.003171102    0.008045742   -0.010810891
 -------------------------------------------------------------------
 Cartesian Forces:  Max     0.014074959 RMS     0.007319199
 FormGI is forming the generalized inverse of G from B-inverse, IUseBI=4.
 Leave Link  716 at Fri Mar 25 22:15:09 2022, MaxMem=  1073741824 cpu:               0.2 elap:               0.0
 (Enter /home/saurabh/gaussian/g16/l103.exe)

 GradGradGradGradGradGradGradGradGradGradGradGradGradGradGradGradGradGrad
 Berny optimization.
 Red2BG is reusing G-inverse.
 Internal  Forces:  Max     0.014651117 RMS     0.004673568
 Search for a local minimum.
 Step number   1 out of a maximum of  100
 All quantities printed in internal units (Hartrees-Bohrs-Radians)
 RMS Force = .46736D-02 SwitMx=.10000D-02 MixMth= 1
 Mixed Optimization -- RFO/linear search
 Second derivative matrix not updated -- analytic derivatives used.
 ITU=  0
     Eigenvalues ---    0.00263   0.00478   0.00908   0.01337   0.01724
     Eigenvalues ---    0.02913   0.03148   0.03863   0.03910   0.04147
     Eigenvalues ---    0.04175   0.04533   0.05663   0.05924   0.06704
     Eigenvalues ---    0.07279   0.07581   0.07851   0.08799   0.09824
     Eigenvalues ---    0.10069   0.11460   0.12067   0.17450   0.19417
     Eigenvalues ---    0.20574   0.24372   0.24549   0.25017   0.27696
     Eigenvalues ---    0.27970   0.28087   0.28210   0.28229   0.28398
     Eigenvalues ---    0.29203   0.29253   0.29909   0.30744   0.31364
     Eigenvalues ---    0.31417   0.54370
 RFO step:  Lambda=-6.93402984D-03 EMin= 2.62829201D-03
 Linear search not attempted -- first point.
 Iteration  1 RMS(Cart)=  0.02008169 RMS(Int)=  0.00025133
 Iteration  2 RMS(Cart)=  0.00025026 RMS(Int)=  0.00005322
 Iteration  3 RMS(Cart)=  0.00000006 RMS(Int)=  0.00005322
 ITry= 1 IFail=0 DXMaxC= 6.76D-02 DCOld= 1.00D+10 DXMaxT= 3.00D-01 DXLimC= 3.00D+00 Rises=F
 Variable       Old X    -DE/DX   Delta X   Delta X   Delta X     New X
                                 (Linear)    (Quad)   (Total)
    R1        2.84587   0.00023   0.00000  -0.00013  -0.00011   2.84576
    R2        2.90109  -0.00225   0.00000  -0.00516  -0.00519   2.89590
    R3        2.10782  -0.01147   0.00000  -0.03653  -0.03653   2.07129
    R4        2.10860  -0.01335   0.00000  -0.04422  -0.04422   2.06438
    R5        2.53452  -0.01151   0.00000  -0.02099  -0.02096   2.51356
    R6        2.08608  -0.01222   0.00000  -0.03762  -0.03762   2.04846
    R7        2.84588   0.00023   0.00000  -0.00014  -0.00012   2.84576
    R8        2.08612  -0.01224   0.00000  -0.03767  -0.03767   2.04846
    R9        2.90111  -0.00225   0.00000  -0.00516  -0.00520   2.89591
   R10        2.10859  -0.01335   0.00000  -0.04421  -0.04421   2.06438
   R11        2.10783  -0.01147   0.00000  -0.03654  -0.03654   2.07129
   R12        2.89798  -0.00265   0.00000  -0.00562  -0.00562   2.89237
   R13        2.10993  -0.01361   0.00000  -0.04419  -0.04419   2.06574
   R14        2.11018  -0.01465   0.00000  -0.04968  -0.04968   2.06050
   R15        2.11015  -0.01464   0.00000  -0.04964  -0.04964   2.06051
   R16        2.10987  -0.01359   0.00000  -0.04412  -0.04412   2.06575
    A1        1.95207  -0.00119   0.00000   0.00075   0.00055   1.95262
    A2        1.88534   0.00178   0.00000   0.01908   0.01917   1.90451
    A3        1.90968   0.00056   0.00000   0.00514   0.00504   1.91473
    A4        1.92824  -0.00091   0.00000  -0.00893  -0.00893   1.91931
    A5        1.90719   0.00199   0.00000   0.01772   0.01771   1.92489
    A6        1.87981  -0.00227   0.00000  -0.03525  -0.03520   1.84461
    A7        2.15052   0.00145   0.00000   0.00506   0.00500   2.15553
    A8        2.04843  -0.00073   0.00000  -0.00455  -0.00456   2.04387
    A9        2.08410  -0.00072   0.00000  -0.00032  -0.00033   2.08377
   A10        2.15055   0.00146   0.00000   0.00505   0.00500   2.15555
   A11        2.08412  -0.00072   0.00000  -0.00035  -0.00035   2.08377
   A12        2.04839  -0.00073   0.00000  -0.00453  -0.00453   2.04385
   A13        1.95212  -0.00120   0.00000   0.00072   0.00053   1.95265
   A14        1.90956   0.00056   0.00000   0.00524   0.00514   1.91470
   A15        1.88535   0.00178   0.00000   0.01907   0.01916   1.90451
   A16        1.90719   0.00199   0.00000   0.01770   0.01769   1.92488
   A17        1.92825  -0.00091   0.00000  -0.00893  -0.00892   1.91933
   A18        1.87985  -0.00228   0.00000  -0.03529  -0.03524   1.84461
   A19        1.91911   0.00038   0.00000   0.01105   0.01094   1.93005
   A20        1.91953  -0.00079   0.00000  -0.01409  -0.01410   1.90543
   A21        1.91956   0.00008   0.00000   0.00540   0.00538   1.92494
   A22        1.90308  -0.00015   0.00000  -0.00068  -0.00059   1.90249
   A23        1.93153   0.00076   0.00000   0.00340   0.00330   1.93483
   A24        1.87041  -0.00031   0.00000  -0.00577  -0.00578   1.86463
   A25        1.91912   0.00038   0.00000   0.01103   0.01091   1.93004
   A26        1.91957   0.00008   0.00000   0.00541   0.00539   1.92495
   A27        1.91953  -0.00079   0.00000  -0.01409  -0.01411   1.90542
   A28        1.93155   0.00076   0.00000   0.00339   0.00329   1.93484
   A29        1.90314  -0.00015   0.00000  -0.00075  -0.00065   1.90249
   A30        1.87031  -0.00031   0.00000  -0.00568  -0.00568   1.86462
    D1        0.28013  -0.00083   0.00000  -0.02237  -0.02238   0.25776
    D2       -2.87900  -0.00074   0.00000  -0.01037  -0.01037  -2.88937
    D3       -1.84552  -0.00013   0.00000  -0.02454  -0.02458  -1.87010
    D4        1.27853  -0.00004   0.00000  -0.01253  -0.01257   1.26596
    D5        2.39587   0.00127   0.00000   0.00397   0.00396   2.39983
    D6       -0.76326   0.00137   0.00000   0.01598   0.01596  -0.74729
    D7       -0.81390   0.00128   0.00000   0.02674   0.02678  -0.78712
    D8       -2.94523   0.00003   0.00000   0.01170   0.01170  -2.93353
    D9        1.28208   0.00084   0.00000   0.02388   0.02387   1.30596
   D10        1.28690   0.00212   0.00000   0.04531   0.04532   1.33222
   D11       -0.84443   0.00087   0.00000   0.03028   0.03024  -0.81419
   D12       -2.90030   0.00167   0.00000   0.04246   0.04241  -2.85789
   D13       -2.93108   0.00001   0.00000   0.00769   0.00768  -2.92340
   D14        1.22078  -0.00124   0.00000  -0.00734  -0.00740   1.21338
   D15       -0.83510  -0.00044   0.00000   0.00484   0.00477  -0.83033
   D16       -0.00672   0.00053   0.00000   0.02009   0.02010   0.01338
   D17       -3.13052   0.00044   0.00000   0.00796   0.00794  -3.12258
   D18       -3.13043   0.00044   0.00000   0.00789   0.00787  -3.12256
   D19        0.02895   0.00034   0.00000  -0.00424  -0.00428   0.02467
   D20        0.27988  -0.00083   0.00000  -0.02231  -0.02231   0.25757
   D21        2.39558   0.00127   0.00000   0.00405   0.00405   2.39962
   D22       -1.84583  -0.00013   0.00000  -0.02446  -0.02450  -1.87033
   D23       -2.87916  -0.00074   0.00000  -0.01038  -0.01038  -2.88954
   D24       -0.76347   0.00136   0.00000   0.01599   0.01598  -0.74749
   D25        1.27831  -0.00004   0.00000  -0.01252  -0.01256   1.26575
   D26       -0.81364   0.00128   0.00000   0.02666   0.02670  -0.78693
   D27        1.28225   0.00084   0.00000   0.02390   0.02389   1.30615
   D28       -2.94493   0.00003   0.00000   0.01161   0.01160  -2.93333
   D29       -2.93070   0.00000   0.00000   0.00752   0.00751  -2.92319
   D30       -0.83481  -0.00044   0.00000   0.00476   0.00470  -0.83011
   D31        1.22119  -0.00125   0.00000  -0.00753  -0.00759   1.21360
   D32        1.28722   0.00212   0.00000   0.04521   0.04522   1.33244
   D33       -2.90008   0.00167   0.00000   0.04245   0.04240  -2.85767
   D34       -0.84407   0.00086   0.00000   0.03015   0.03011  -0.81396
   D35        1.10199  -0.00103   0.00000  -0.02805  -0.02816   1.07382
   D36       -3.05700  -0.00018   0.00000  -0.01166  -0.01171  -3.06871
   D37       -1.00390  -0.00020   0.00000  -0.01705  -0.01711  -1.02101
   D38       -1.00385  -0.00020   0.00000  -0.01710  -0.01716  -1.02102
   D39        1.12035   0.00065   0.00000  -0.00071  -0.00071   1.11964
   D40       -3.10974   0.00063   0.00000  -0.00610  -0.00611  -3.11585
   D41       -3.05702  -0.00018   0.00000  -0.01164  -0.01170  -3.06872
   D42       -0.93282   0.00068   0.00000   0.00475   0.00476  -0.92807
   D43        1.12027   0.00065   0.00000  -0.00064  -0.00064   1.11963
         Item               Value     Threshold  Converged?
 Maximum Force            0.014651     0.000450     NO 
 RMS     Force            0.004674     0.000300     NO 
 Maximum Displacement     0.067592     0.001800     NO 
 RMS     Displacement     0.020148     0.001200     NO 
 Predicted change in Energy=-3.612170D-03
 Lowest energy point so far.  Saving SCF results.
 GradGradGradGradGradGradGradGradGradGradGradGradGradGradGradGradGradGrad

 Leave Link  103 at Fri Mar 25 22:15:09 2022, MaxMem=  1073741824 cpu:               0.2 elap:               0.0
 (Enter /home/saurabh/gaussian/g16/l202.exe)
                          Input orientation:                          
 ---------------------------------------------------------------------
 Center     Atomic      Atomic             Coordinates (Angstroms)
 Number     Number       Type             X           Y           Z
 ---------------------------------------------------------------------
      1          6           0       -0.002532   -0.000293    0.006245
      2          6           0       -0.879402    1.215905    0.146708
      3          6           0       -0.405906    2.454935    0.245805
      4          6           0        1.062118    2.788953    0.212487
      5          6           0        1.903024    1.616263   -0.303345
      6          6           0        1.458647    0.306275    0.351730
      7          1           0        2.101180   -0.519176    0.043996
      8          1           0        1.559366    0.398540    1.436311
      9          1           0        1.777460    1.533340   -1.386083
     10          1           0        2.962042    1.801541   -0.121511
     11          1           0        1.224643    3.673345   -0.407857
     12          1           0        1.389434    3.069562    1.220214
     13          1           0       -1.097876    3.281153    0.362372
     14          1           0       -1.951025    1.053192    0.160826
     15          1           0       -0.073242   -0.377234   -1.020551
     16          1           0       -0.381752   -0.803288    0.642467
 ---------------------------------------------------------------------
                    Distance matrix (angstroms):
                    1          2          3          4          5
     1  C    0.000000
     2  C    1.505912   0.000000
     3  C    2.499649   1.330117   0.000000
     4  C    2.992643   2.499662   1.505913   0.000000
     5  C    2.517984   2.846881   2.517160   1.532452   0.000000
     6  C    1.532446   2.517129   2.846843   2.517998   1.530575
     7  H    2.167087   3.450351   3.895066   3.471564   2.172558
     8  H    2.154921   2.877282   3.083563   2.731131   2.151128
     9  H    2.731114   3.083688   2.877409   2.154926   1.093144
    10  H    3.471546   3.895074   3.450350   2.167083   1.090372
    11  H    3.895261   3.282310   2.137870   1.092424   2.168573
    12  H    3.582639   3.120268   2.133187   1.096079   2.167276
    13  H    3.477714   2.087939   1.083996   2.220428   3.495775
    14  H    2.220439   1.083997   2.087941   3.477725   3.922525
    15  H    1.096081   2.133185   3.120176   3.582481   2.897247
    16  H    1.092422   2.137890   3.282368   3.895361   3.459623
                    6          7          8          9         10
     6  C    0.000000
     7  H    1.090375   0.000000
     8  H    1.093148   1.753369   0.000000
     9  H    2.151121   2.522448   3.049794   0.000000
    10  H    2.172550   2.480767   2.522443   1.753371   0.000000
    11  H    3.459608   4.306938   3.773240   2.417054   2.569863
    12  H    2.897379   3.843060   2.685131   3.050135   2.425118
    13  H    3.922477   4.977732   4.064940   3.792031   4.348141
    14  H    3.495739   4.348143   3.791870   4.065104   4.977747
    15  H    2.167262   2.425184   3.050149   2.684959   3.842953
    16  H    2.168578   2.569793   2.417131   3.773201   4.306943
                   11         12         13         14         15
    11  H    0.000000
    12  H    1.744226   0.000000
    13  H    2.478137   2.639578   0.000000
    14  H    4.156137   4.043107   2.394222   0.000000
    15  H    4.297335   4.363582   4.043037   2.639666   0.000000
    16  H    4.870721   4.297657   4.156193   2.478126   1.744227
                   16
    16  H    0.000000
 Stoichiometry    C6H10
 Framework group  C1[X(C6H10)]
 Deg. of freedom    42
 Full point group                 C1      NOp   1
 RotChk:  IX=0 Diff= 2.02D-04
 Largest Abelian subgroup         C1      NOp   1
 Largest concise Abelian subgroup C1      NOp   1
                         Standard orientation:                         
 ---------------------------------------------------------------------
 Center     Atomic      Atomic             Coordinates (Angstroms)
 Number     Number       Type             X           Y           Z
 ---------------------------------------------------------------------
      1          6           0        1.492034    0.045464    0.113185
      2          6           0        0.662921    1.301186    0.053991
      3          6           0       -0.662803    1.301236   -0.054029
      4          6           0       -1.492042    0.045590   -0.113100
      5          6           0       -0.693460   -1.187224    0.323759
      6          6           0        0.693373   -1.187241   -0.323816
      7          1           0        1.238047   -2.098451   -0.074930
      8          1           0        0.578669   -1.173870   -1.410847
      9          1           0       -0.578751   -1.173988    1.410787
     10          1           0       -1.238200   -2.098360    0.074759
     11          1           0       -2.381121    0.161652    0.510966
     12          1           0       -1.863255   -0.091756   -1.135219
     13          1           0       -1.192056    2.245656   -0.108882
     14          1           0        1.192252    2.245569    0.108768
     15          1           0        1.863039   -0.091944    1.135373
     16          1           0        2.381242    0.161424   -0.510713
 ---------------------------------------------------------------------
 Rotational constants (GHZ):           4.7488601           4.5680594           2.5663310
 Leave Link  202 at Fri Mar 25 22:15:09 2022, MaxMem=  1073741824 cpu:               0.1 elap:               0.0
 (Enter /home/saurabh/gaussian/g16/l301.exe)
 Standard basis: CC-pVTZ (5D, 7F)
 Ernie: Thresh=  0.10000D-02 Tol=  0.10000D-05 Strict=F.
 Ernie:  18 primitive shells out of 236 were deleted.
 There are   360 symmetry adapted cartesian basis functions of A   symmetry.
 There are   320 symmetry adapted basis functions of A   symmetry.
   320 basis functions,   482 primitive gaussians,   360 cartesian basis functions
    23 alpha electrons       23 beta electrons
       nuclear repulsion energy       237.1827645663 Hartrees.
 IExCor=  402 DFT=T Ex+Corr=B3LYP ExCW=0 ScaHFX=  0.200000
 ScaDFX=  0.800000  0.720000  1.000000  0.810000 ScalE2=  1.000000  1.000000
 IRadAn=      5 IRanWt=     -1 IRanGd=            0 ICorTp=0 IEmpDi=  4
 NAtoms=   16 NActive=   16 NUniq=   16 SFac= 1.00D+00 NAtFMM=   60 NAOKFM=F Big=F
 Integral buffers will be    131072 words long.
 Raffenetti 2 integral format.
 Two-electron integral symmetry is turned on.
 Leave Link  301 at Fri Mar 25 22:15:09 2022, MaxMem=  1073741824 cpu:               0.4 elap:               0.1
 (Enter /home/saurabh/gaussian/g16/l302.exe)
 NPDir=0 NMtPBC=     1 NCelOv=     1 NCel=       1 NClECP=     1 NCelD=      1
         NCelK=      1 NCelE2=     1 NClLst=     1 CellRange=     0.0.
 One-electron integrals computed using PRISM.
 One-electron integral symmetry used in STVInt
 NBasis=   320 RedAO= T EigKep=  1.62D-04  NBF=   320
 NBsUse=   320 1.00D-06 EigRej= -1.00D+00 NBFU=   320
 Precomputing XC quadrature grid using
 IXCGrd= 4 IRadAn=           5 IRanWt=          -1 IRanGd=           0 AccXCQ= 0.00D+00.
 Generated NRdTot=       0 NPtTot=           0 NUsed=           0 NTot=          32
 NSgBfM=   360   360   360   360   360 MxSgAt=    16 MxSgA2=    16.
 Leave Link  302 at Fri Mar 25 22:15:09 2022, MaxMem=  1073741824 cpu:               1.9 elap:               0.3
 (Enter /home/saurabh/gaussian/g16/l303.exe)
 DipDrv:  MaxL=1.
 Leave Link  303 at Fri Mar 25 22:15:09 2022, MaxMem=  1073741824 cpu:               0.3 elap:               0.1
 (Enter /home/saurabh/gaussian/g16/l401.exe)
 Initial guess from the checkpoint file:  "Mol_06.chk"
 B after Tr=     0.000000    0.000000    0.000000
         Rot=    1.000000    0.000000    0.000094   -0.000002 Ang=   0.01 deg.
 Guess basis will be translated and rotated to current coordinates.
 JPrj=2 DoOrth=T DoCkMO=T.
 Generating alternative initial guess.
 ExpMin= 1.03D-01 ExpMax= 8.24D+03 ExpMxC= 2.81D+02 IAcc=3 IRadAn=         5 AccDes= 0.00D+00
 Harris functional with IExCor=  402 and IRadAn=       5 diagonalized for initial guess.
 HarFok:  IExCor=  402 AccDes= 0.00D+00 IRadAn=         5 IDoV= 1 UseB2=F ITyADJ=14
 ICtDFT=  3500011 ScaDFX=  1.000000  1.000000  1.000000  1.000000
 FoFCou: FMM=F IPFlag=           0 FMFlag=      100000 FMFlg1=           0
         NFxFlg=           0 DoJE=T BraDBF=F KetDBF=T FulRan=T
         wScrn=  0.000000 ICntrl=       500 IOpCl=  0 I1Cent=   200000004 NGrid=           0
         NMat0=    1 NMatS0=      1 NMatT0=    0 NMatD0=    1 NMtDS0=    0 NMtDT0=    0
 Petite list used in FoFCou.
 Harris En= -234.806056275317    
 Leave Link  401 at Fri Mar 25 22:15:10 2022, MaxMem=  1073741824 cpu:               9.7 elap:               1.2
 (Enter /home/saurabh/gaussian/g16/l502.exe)
 Integral symmetry usage will be decided dynamically.
 Closed shell SCF:
 Using DIIS extrapolation, IDIIS=  1040.
 NGot=  1073741824 LenX=  1073476114 LenY=  1073346073
 Requested convergence on RMS density matrix=1.00D-08 within1000 cycles.
 Requested convergence on MAX density matrix=1.00D-06.
 Requested convergence on             energy=1.00D-06.
 No special actions if energy rises.
 Fock matrices will be formed incrementally for  20 cycles.
 Integral accuracy reduced to 1.0D-05 until final iterations.

 Cycle   1  Pass 0  IDiag  1:
 FoFJK:  IHMeth= 1 ICntrl=       0 DoSepK=F KAlg= 0 I1Cent=           0 FoldK=F
 IRaf= 990000000 NMat=       1 IRICut=       1 DoRegI=T DoRafI=F ISym2E= 0 IDoP0=0 IntGTp=1.
 FoFCou: FMM=F IPFlag=           0 FMFlag=      100000 FMFlg1=           0
         NFxFlg=           0 DoJE=F BraDBF=F KetDBF=F FulRan=T
         wScrn=  0.000000 ICntrl=         0 IOpCl=  0 I1Cent=           0 NGrid=           0
         NMat0=    1 NMatS0=      1 NMatT0=    0 NMatD0=    1 NMtDS0=    0 NMtDT0=    0
 Symmetry not used in FoFCou.
 E= -234.733039424273    
 DIIS: error= 1.67D-03 at cycle   1 NSaved=   1.
 NSaved= 1 IEnMin= 1 EnMin= -234.733039424273     IErMin= 1 ErrMin= 1.67D-03
 ErrMax= 1.67D-03  0.00D+00 EMaxC= 1.00D-01 BMatC= 1.39D-03 BMatP= 1.39D-03
 IDIUse=3 WtCom= 9.83D-01 WtEn= 1.67D-02
 Coeff-Com:  0.100D+01
 Coeff-En:   0.100D+01
 Coeff:      0.100D+01
 Gap=     0.746 Goal=   None    Shift=    0.000
 GapD=    0.746 DampG=2.000 DampE=1.000 DampFc=2.0000 IDamp=-1.
 RMSDP=1.10D-04 MaxDP=3.09D-03              OVMax= 8.37D-03

 Cycle   2  Pass 0  IDiag  1:
 RMSU=  1.09D-04    CP:  1.00D+00
 E= -234.733926997584     Delta-E=       -0.000887573311 Rises=F Damp=F
 DIIS: error= 7.48D-04 at cycle   2 NSaved=   2.
 NSaved= 2 IEnMin= 2 EnMin= -234.733926997584     IErMin= 2 ErrMin= 7.48D-04
 ErrMax= 7.48D-04  0.00D+00 EMaxC= 1.00D-01 BMatC= 1.25D-04 BMatP= 1.39D-03
 IDIUse=3 WtCom= 9.93D-01 WtEn= 7.48D-03
 Coeff-Com:  0.133D+00 0.867D+00
 Coeff-En:   0.000D+00 0.100D+01
 Coeff:      0.132D+00 0.868D+00
 Gap=     0.260 Goal=   None    Shift=    0.000
 RMSDP=4.98D-05 MaxDP=1.30D-03 DE=-8.88D-04 OVMax= 4.32D-03

 Cycle   3  Pass 0  IDiag  1:
 RMSU=  4.25D-05    CP:  1.00D+00  7.62D-01
 E= -234.733954334782     Delta-E=       -0.000027337199 Rises=F Damp=F
 DIIS: error= 7.65D-04 at cycle   3 NSaved=   3.
 NSaved= 3 IEnMin= 3 EnMin= -234.733954334782     IErMin= 2 ErrMin= 7.48D-04
 ErrMax= 7.65D-04  0.00D+00 EMaxC= 1.00D-01 BMatC= 1.04D-04 BMatP= 1.25D-04
 IDIUse=3 WtCom= 9.92D-01 WtEn= 7.65D-03
 Coeff-Com:  0.155D-01 0.474D+00 0.510D+00
 Coeff-En:   0.000D+00 0.445D+00 0.555D+00
 Coeff:      0.153D-01 0.474D+00 0.510D+00
 Gap=     0.260 Goal=   None    Shift=    0.000
 RMSDP=2.47D-05 MaxDP=6.36D-04 DE=-2.73D-05 OVMax= 2.03D-03

 Cycle   4  Pass 0  IDiag  1:
 RMSU=  8.89D-06    CP:  1.00D+00  8.81D-01  5.54D-01
 E= -234.734059592919     Delta-E=       -0.000105258136 Rises=F Damp=F
 DIIS: error= 1.31D-04 at cycle   4 NSaved=   4.
 NSaved= 4 IEnMin= 4 EnMin= -234.734059592919     IErMin= 4 ErrMin= 1.31D-04
 ErrMax= 1.31D-04  0.00D+00 EMaxC= 1.00D-01 BMatC= 2.53D-06 BMatP= 1.04D-04
 IDIUse=3 WtCom= 9.99D-01 WtEn= 1.31D-03
 Coeff-Com: -0.242D-02 0.144D+00 0.205D+00 0.653D+00
 Coeff-En:   0.000D+00 0.000D+00 0.000D+00 0.100D+01
 Coeff:     -0.242D-02 0.144D+00 0.205D+00 0.653D+00
 Gap=     0.260 Goal=   None    Shift=    0.000
 RMSDP=4.02D-06 MaxDP=1.12D-04 DE=-1.05D-04 OVMax= 2.84D-04

 Initial convergence to 1.0D-05 achieved.  Increase integral accuracy.
 Cycle   5  Pass 1  IDiag  1:
 E= -234.734074164265     Delta-E=       -0.000014571346 Rises=F Damp=F
 DIIS: error= 5.05D-05 at cycle   1 NSaved=   1.
 NSaved= 1 IEnMin= 1 EnMin= -234.734074164265     IErMin= 1 ErrMin= 5.05D-05
 ErrMax= 5.05D-05  0.00D+00 EMaxC= 1.00D-01 BMatC= 2.27D-07 BMatP= 2.27D-07
 IDIUse=1 WtCom= 1.00D+00 WtEn= 0.00D+00
 Coeff-Com:  0.100D+01
 Coeff:      0.100D+01
 Gap=     0.260 Goal=   None    Shift=    0.000
 RMSDP=4.02D-06 MaxDP=1.12D-04 DE=-1.46D-05 OVMax= 1.06D-04

 Cycle   6  Pass 1  IDiag  1:
 RMSU=  5.59D-06    CP:  1.00D+00
 E= -234.734074233095     Delta-E=       -0.000000068830 Rises=F Damp=F
 DIIS: error= 1.15D-05 at cycle   2 NSaved=   2.
 NSaved= 2 IEnMin= 2 EnMin= -234.734074233095     IErMin= 2 ErrMin= 1.15D-05
 ErrMax= 1.15D-05  0.00D+00 EMaxC= 1.00D-01 BMatC= 2.43D-08 BMatP= 2.27D-07
 IDIUse=1 WtCom= 1.00D+00 WtEn= 0.00D+00
 Coeff-Com:  0.153D+00 0.847D+00
 Coeff:      0.153D+00 0.847D+00
 Gap=     0.260 Goal=   None    Shift=    0.000
 RMSDP=7.01D-07 MaxDP=1.87D-05 DE=-6.88D-08 OVMax= 5.17D-05

 Cycle   7  Pass 1  IDiag  1:
 RMSU=  6.98D-07    CP:  1.00D+00  1.01D+00
 E= -234.734074237295     Delta-E=       -0.000000004200 Rises=F Damp=F
 DIIS: error= 9.65D-06 at cycle   3 NSaved=   3.
 NSaved= 3 IEnMin= 3 EnMin= -234.734074237295     IErMin= 3 ErrMin= 9.65D-06
 ErrMax= 9.65D-06  0.00D+00 EMaxC= 1.00D-01 BMatC= 1.99D-08 BMatP= 2.43D-08
 IDIUse=1 WtCom= 1.00D+00 WtEn= 0.00D+00
 Coeff-Com:  0.667D-02 0.474D+00 0.519D+00
 Coeff:      0.667D-02 0.474D+00 0.519D+00
 Gap=     0.260 Goal=   None    Shift=    0.000
 RMSDP=3.22D-07 MaxDP=8.34D-06 DE=-4.20D-09 OVMax= 2.73D-05

 Cycle   8  Pass 1  IDiag  1:
 RMSU=  1.22D-07    CP:  1.00D+00  1.01D+00  5.75D-01
 E= -234.734074256455     Delta-E=       -0.000000019160 Rises=F Damp=F
 DIIS: error= 1.06D-06 at cycle   4 NSaved=   4.
 NSaved= 4 IEnMin= 4 EnMin= -234.734074256455     IErMin= 4 ErrMin= 1.06D-06
 ErrMax= 1.06D-06  0.00D+00 EMaxC= 1.00D-01 BMatC= 3.03D-10 BMatP= 1.99D-08
 IDIUse=1 WtCom= 1.00D+00 WtEn= 0.00D+00
 Coeff-Com: -0.266D-02 0.169D+00 0.218D+00 0.615D+00
 Coeff:     -0.266D-02 0.169D+00 0.218D+00 0.615D+00
 Gap=     0.260 Goal=   None    Shift=    0.000
 RMSDP=4.33D-08 MaxDP=1.06D-06 DE=-1.92D-08 OVMax= 3.76D-06

 Cycle   9  Pass 1  IDiag  1:
 RMSU=  2.57D-08    CP:  1.00D+00  1.01D+00  5.86D-01  7.22D-01
 E= -234.734074256759     Delta-E=       -0.000000000304 Rises=F Damp=F
 DIIS: error= 1.06D-07 at cycle   5 NSaved=   5.
 NSaved= 5 IEnMin= 5 EnMin= -234.734074256759     IErMin= 5 ErrMin= 1.06D-07
 ErrMax= 1.06D-07  0.00D+00 EMaxC= 1.00D-01 BMatC= 4.14D-12 BMatP= 3.03D-10
 IDIUse=1 WtCom= 1.00D+00 WtEn= 0.00D+00
 Coeff-Com: -0.929D-03 0.489D-01 0.626D-01 0.204D+00 0.686D+00
 Coeff:     -0.929D-03 0.489D-01 0.626D-01 0.204D+00 0.686D+00
 Gap=     0.260 Goal=   None    Shift=    0.000
 RMSDP=6.90D-09 MaxDP=4.42D-07 DE=-3.04D-10 OVMax= 1.57D-06

 SCF Done:  E(RB3LYP) =  -234.734074257     A.U. after    9 cycles
            NFock=  9  Conv=0.69D-08     -V/T= 2.0072
 KE= 2.330457988858D+02 PE=-1.017382671850D+03 EE= 3.124200341410D+02
 Leave Link  502 at Fri Mar 25 22:15:43 2022, MaxMem=  1073741824 cpu:             260.3 elap:              32.6
 (Enter /home/saurabh/gaussian/g16/l701.exe)
 ... and contract with generalized density number  0.
 Compute integral first derivatives.
 Leave Link  701 at Fri Mar 25 22:15:43 2022, MaxMem=  1073741824 cpu:               1.4 elap:               0.2
 (Enter /home/saurabh/gaussian/g16/l702.exe)
 L702 exits ... SP integral derivatives will be done elsewhere.
 Leave Link  702 at Fri Mar 25 22:15:43 2022, MaxMem=  1073741824 cpu:               0.1 elap:               0.0
 (Enter /home/saurabh/gaussian/g16/l703.exe)
 Integral derivatives from FoFJK, PRISM(SPDF).
 Compute integral first derivatives, UseDBF=F ICtDFT=           0.
[...]

 Dipole orientation:
     6         -0.01647101          0.00157296         -0.01196691
     6          0.45139186          1.50326130         -2.38125373
     6          1.14631593          3.91885529         -2.38120032
     6          1.61414647          5.42044912         -0.01184631
     6          1.82711466          3.72740777          2.32821382
     6         -0.22948730          1.69452322          2.32815423
     1         -0.12497882          0.55456515          4.04437413
     1         -2.08328277          2.61019086          2.33554413
     1          3.68090930          2.81173894          2.33560546
     1          1.72257275          4.86729966          4.04447549
     1          3.33246014          6.54703065         -0.23479200
     1          0.08471322          6.79601344          0.24223405
     1          1.40560534          4.89075871         -4.16713434
     1          0.19212799          0.53143023         -4.16723025
     1          1.51296481         -1.37399308          0.24208674
     1         -1.73477503         -1.12500817         -0.23498504

 Electric dipole moment (dipole orientation):
 (Debye = 10**-18 statcoulomb cm , SI units = C m)
                  (au)            (Debye)         (10**-30 SI)
   Tot        0.126400D+00      0.321277D+00      0.107166D+01
   x          0.000000D+00      0.000000D+00      0.000000D+00
   y          0.000000D+00      0.000000D+00      0.000000D+00
   z          0.126400D+00      0.321277D+00      0.107166D+01

 Dipole polarizability, Alpha (dipole orientation).
 (esu units = cm**3 , SI units = C**2 m**2 J**-1)
 Alpha(0;0):
               (au)            (10**-24 esu)      (10**-40 SI)
   iso        0.672986D+02      0.997262D+01      0.110960D+02
   aniso      0.227770D+02      0.337521D+01      0.375543D+01
   xx         0.557805D+02      0.826581D+01      0.919695D+01
   yx         0.751074D+01      0.111298D+01      0.123835D+01
   yy         0.771831D+02      0.114374D+02      0.127258D+02
   zx         0.459158D-04      0.680402D-05      0.757050D-05
   zy         0.219302D-03      0.324972D-04      0.361580D-04
   zz         0.689321D+02      0.102147D+02      0.113654D+02

 ----------------------------------------------------------------------
 Unable to Open any file for archive entry.
 1\1\GINC-MEDIAWIKI\Freq\RB3LYP\CC-pVTZ\C6H10\SAURABH\25-Mar-2022\0\\#P
  Geom=AllCheck Guess=TCheck SCRF=Check GenChk RB3LYP/CC-pVTZ Freq\\Mol
 _06\\0,1\C,-0.0061723412,-0.000124582,0.0088685807\C,-0.8811524417,1.2
 168416631,0.1435127335\C,-0.4074145832,2.4552418949,0.2491600801\C,1.0
 589652579,2.7913341769,0.2104380378\C,1.9066733518,1.6189051086,-0.295
 1067448\C,1.4585945503,0.3022957,0.343194352\H,2.097544688,-0.52051147
 06,0.0168710834\H,1.5707646602,0.3756016807,1.4290961329\H,1.801806603
 ,1.5428508104,-1.3815491266\H,2.9637106482,1.8036416511,-0.0943576346\
 H,1.2165225474,3.6702975348,-0.4210196946\H,1.3896592899,3.0903712313,
 1.2125322685\H,-1.0999365716,3.2816954794,0.3670418693\H,-1.95350933,1
 .0543772941,0.1563112019\H,-0.0857958488,-0.3936145344,-1.0118174787\H
 ,-0.3840814803,-0.7961896383,0.6566373393\\Version=ES64L-G16RevC.01\St
 ate=1-A\HF=-234.7341374\RMSD=2.133e-09\RMSF=4.091e-06\ZeroPoint=0.1457
 941\Thermal=0.1513076\ETot=-234.5828298\HTot=-234.5818856\GTot=-234.61
 69836\Dipole=0.1180223,-0.0443999,-0.0087388\DipoleDeriv=0.0245674,0.0
 143119,0.0028113,0.0265673,0.0430012,-0.0168527,-0.0040432,-0.0485797,
 0.216121,0.0539151,-0.0963295,-0.0250055,-0.0551177,0.1285218,0.037700
 4,-0.0206196,0.0600418,-0.2205533,0.1679856,0.0708107,-0.0034302,0.026
 8942,0.0186467,0.0203331,0.00592,0.0345028,-0.2247405,0.0103282,0.0068
 939,0.0138906,-0.0008143,0.0581092,-0.0185962,-0.002354,-0.0482675,0.2
 152548,0.1190102,-0.0048442,0.0253749,-0.0120032,0.0343444,0.0108838,0
 .0089455,0.0104269,0.1354229,0.089578,-0.0420472,-0.007929,-0.034099,0
 .0608199,0.0258698,0.0044933,0.0156764,0.1383795,-0.060201,0.1087366,0
 .022299,0.1091809,-0.1175318,-0.0285796,0.0477574,-0.0539314,0.0423349
 ,0.0125901,-0.0195152,-0.0098764,-0.0298882,0.0310108,-0.0272175,-0.04
 25916,0.0187899,-0.1728431,0.0458502,0.0070636,-0.0387715,0.0129869,0.
 0001727,-0.0204476,0.0165541,-0.0063569,-0.1752655,-0.2031829,-0.04237
 34,-0.0057466,-0.0407772,0.0159753,-0.0029421,-0.0415743,-0.0051513,0.
 0518096,0.0047699,-0.0350371,0.0094103,-0.0192576,-0.1200108,0.0793187
 ,0.0441184,0.1286108,-0.0007197,-0.0390724,-0.0744357,-0.0457694,0.001
 4823,0.031287,-0.0423638,-0.0584398,-0.0948259,-0.1243287,-0.0747433,0
 .0953742,0.026161,0.0832556,-0.0712005,-0.0237778,0.0200082,-0.0189709
 ,0.1243013,-0.1650932,-0.0155373,0.0015708,-0.0038566,0.0160896,-0.005
 5591,0.0099472,-0.0044563,0.1273613,0.0237596,0.0631555,-0.0098999,-0.
 0046484,-0.027064,-0.057154,-0.0384591,-0.1142796,-0.1288084,-0.010061
 5,-0.036227,0.0449105,-0.0599052,-0.1021716,0.0693848,0.0503374,0.1267
 711,-0.0037261\Polar=70.2392913,3.5737425,78.0990299,-0.5036962,1.6870
 616,53.5573296\Quadrupole=0.0852967,0.7292931,-0.8145898,0.2970085,0.0
 053801,0.1693397\PG=C01 [X(C6H10)]\NImag=0\\0.46024839,0.03183183,0.52
 479890,-0.01545147,-0.01473193,0.54155970,-0.13136892,0.05078574,0.003
 83673,0.65062527,0.05378593,-0.16012738,-0.00601437,0.12325425,0.75504
 980,0.00829154,-0.00917489,-0.07409280,-0.00115456,0.05606892,0.152046
 36,0.01479810,0.01721197,0.00252333,-0.16924743,-0.13592364,-0.0095721
 8,0.57671706,-0.00242818,-0.03186440,-0.00474383,-0.14110553,-0.477333
 17,-0.03671718,0.04225374,0.82645959,-0.00125321,-0.00660866,0.0061509
 8,-0.00945157,-0.03714624,-0.05724087,-0.01528229,0.06944057,0.1545440
 6,-0.00122055,0.00186576,-0.00113532,-0.01372175,-0.01431685,-0.001547
 80,-0.19625289,-0.02250774,0.00251812,0.45879616,0.00079532,0.00206076
 ,-0.00077973,-0.03419357,-0.00401486,-0.00189700,-0.01972779,-0.095710
 91,0.00002590,0.02442312,0.53057804,-0.00046151,-0.00111250,-0.0076376
 0,-0.00412297,-0.00056855,0.00682137,0.00809240,-0.00015880,-0.0736248
 1,0.01382973,-0.02515881,0.53723126,-0.01440033,-0.03144056,0.01608703
 ,0.00328569,0.00062777,0.00074807,-0.02607404,0.02820693,0.01138700,-0
 .10898614,0.03800409,0.01969536,0.56804961,-0.01156801,-0.00754585,0.0
 0346466,-0.00055160,-0.00051049,0.00070078,0.00437613,0.00809775,0.002
 10858,0.03854618,-0.13543371,-0.02638133,0.02516711,0.43451437,0.00115
 827,-0.00528122,0.00396743,-0.00056584,-0.00003844,0.00053893,0.000949
 40,0.00004310,0.00013316,0.01976769,-0.02633980,-0.09181966,0.03190524
 ,0.01263689,0.55240072,-0.16567836,-0.01720908,-0.02347743,-0.02782899
 ,0.00323291,-0.00334960,0.00160773,-0.00249440,-0.00035916,0.00802672,
 0.01595877,-0.00953017,-0.08868008,-0.02351131,0.01297827,0.48178424,-
 0.01775489,-0.08545497,-0.00439089,0.02760944,0.00900101,0.00598150,-0
 .00116704,0.00113319,0.00120965,-0.00186957,-0.03220175,0.01175966,-0.
 02240578,-0.14896771,0.03522602,-0.06446656,0.51416923,-0.02353100,-0.
 00438249,-0.08510635,0.00431467,0.00067510,0.00098477,0.00020283,-0.00
 004973,0.00057322,-0.00498836,-0.00710296,0.00619634,0.01105370,0.0360
 3190,-0.09968496,-0.00954192,0.03726987,0.55901122,-0.01919297,0.02467
 349,0.00912348,-0.00544826,-0.00379307,-0.00138585,-0.00021133,-0.0003
 9266,0.00007297,-0.00007285,-0.00216640,0.00134112,0.00664171,-0.00869
 316,-0.00440211,-0.13341147,0.11120556,0.04602105,0.14745088,-0.004946
 07,0.00653064,0.00230120,-0.00126449,0.00004108,-0.00029783,-0.0008075
 9,0.00042826,0.00005736,-0.00315577,-0.00368228,0.00446868,0.01642157,
 -0.02195090,-0.01014917,0.11158493,-0.19075440,-0.05921262,-0.12033014
 ,0.20919158,-0.00637168,0.00670362,0.00134775,-0.00177333,-0.00080576,
 0.00060528,0.00013987,0.00005726,0.00001139,0.00128957,0.00218348,-0.0
 0085980,-0.00925498,0.01206157,0.00450431,0.04754822,-0.06084229,-0.07
 434567,-0.04998774,0.06475254,0.07665482,-0.00584721,-0.00397497,-0.03
 285173,0.00114401,-0.00140543,-0.00024486,0.00001389,0.00027472,0.0001
 6761,0.00023930,0.00071932,-0.00076151,0.00067211,0.00033523,0.0112580
 3,-0.05019321,0.00068034,-0.02207038,0.00171913,0.00079683,0.01900347,
 0.05596635,-0.00224256,-0.00187697,-0.00760422,0.00042894,-0.00003090,
 0.00074889,0.00016757,0.00008173,-0.00013152,-0.00001272,0.00183531,0.
 00055814,0.00247316,0.00012143,0.03098167,0.00079695,-0.04978878,-0.01
 948744,-0.00255967,-0.00172317,-0.02443556,0.00475691,0.05435616,-0.00
 135850,-0.00120098,-0.00694551,0.00029598,-0.00046079,0.00044035,-0.00
 026482,0.00057522,0.00012407,-0.00005265,-0.00097256,0.00071812,-0.000
 41697,0.00071672,-0.01611940,-0.02390057,-0.01895043,-0.29196342,-0.00
 016577,-0.00154774,-0.01021654,0.02597567,0.01852392,0.32003619,0.0006
 3248,0.00023288,0.00096402,-0.00012393,-0.00000518,-0.00018088,0.00112
 252,0.00034322,0.00060775,0.00141475,0.00205382,0.01864010,-0.05361137
 ,-0.00236538,-0.02752107,0.00042902,0.00016358,0.00991833,0.00014225,0
 .00027946,-0.00048724,0.00017137,-0.00164940,0.00141730,0.05318367,0.0
 0112112,0.00153608,-0.00018593,0.00003071,0.00025804,0.00001356,-0.001
 34370,-0.00001885,0.00055996,-0.00201840,-0.00525741,-0.02719556,-0.00
 246131,-0.04693324,-0.01710045,0.00252041,0.00020262,0.03148898,0.0005
 6489,0.00109300,-0.00060011,-0.00225538,-0.00492790,0.00276342,0.00128
 038,0.05736600,-0.00053849,-0.00076473,0.00062417,0.00061365,0.0002692
 8,0.00008558,-0.00068223,-0.00022165,0.00044975,-0.00096419,-0.0019980
 0,-0.01082704,-0.02579597,-0.01791677,-0.29140091,-0.00124568,0.001047
 98,-0.01595754,-0.00025287,0.00036970,0.00058685,0.00068915,0.00299251
 ,0.00042899,0.02761253,0.01824319,0.31980920,0.00126788,-0.00169551,0.
 00159232,0.00064240,0.00020524,-0.00008898,-0.00030806,0.00398559,0.00
 115775,-0.01690599,-0.00299867,-0.00309361,-0.28493737,-0.04131209,-0.
 04834732,-0.00799527,-0.00162481,-0.00186731,0.00074084,-0.00045099,-0
 .00012760,0.00019845,0.00015031,0.00049272,-0.00311025,-0.00057274,-0.
 00185503,0.31080651,-0.00041806,-0.00507922,0.00413412,0.00061297,-0.0
 0045197,-0.00001068,0.00156555,-0.00467774,-0.00160751,0.02652204,0.00
 477881,0.00450387,-0.04155163,-0.05431247,-0.00814953,-0.02913122,-0.0
 0540034,-0.00732229,0.00042915,0.00088451,-0.00084122,0.00056959,0.001
 13187,0.00006614,-0.00187338,-0.00078253,-0.00057997,0.04475979,0.0618
 4810,0.00018012,0.00252868,-0.00080360,-0.00011929,0.00008670,0.000037
 88,0.00099361,-0.00256587,0.00018390,0.01290394,0.00143684,0.00081258,
 -0.05058507,-0.00840857,-0.05926178,0.01513824,0.00276864,0.00259077,-
 0.00048362,-0.00064211,0.00040865,0.00004692,-0.00077195,0.00049179,-0
 .03147069,-0.00545859,-0.00632780,0.05209289,0.00957337,0.06064279,-0.
 00014107,0.00000191,0.00064925,-0.00485064,0.00167371,0.00037725,-0.00
 746852,-0.03005875,0.02004451,-0.05096212,-0.02677500,0.02155856,0.003
 25130,0.01530916,-0.01134798,-0.00255193,0.00224438,0.00181695,0.00047
 456,0.00119051,-0.00027446,-0.00006173,-0.00027475,0.00011561,0.000842
 26,-0.00070085,-0.00004559,0.00006569,-0.00050977,-0.00043912,0.058735
 08,0.00062450,0.00046910,0.00043868,-0.00080482,0.00158854,0.00059354,
 -0.00376057,-0.00717149,0.00296991,-0.02602011,-0.20464063,0.11711160,
 -0.00391280,-0.02034251,0.01397200,0.00414647,-0.00268390,-0.00278054,
 -0.00073823,-0.00148620,0.00063173,0.00010043,0.00038118,-0.00001783,-
 0.00070957,0.00087714,-0.00042028,0.00037817,0.00039701,0.00012851,0.0
 2998099,0.22558070,0.00009301,0.00030126,0.00023414,0.00053094,-0.0008
 4059,-0.00026401,-0.00064608,-0.00084966,0.00086176,0.02147850,0.11881
 733,-0.13259654,-0.00225684,-0.01156418,0.00640312,0.00145382,-0.00174
 545,-0.00050105,-0.00005869,-0.00060191,0.00045379,-0.00002212,-0.0002
 5409,0.00034785,-0.00042423,0.00007210,0.00111695,-0.00028121,0.000594
 47,0.00002908,-0.02390008,-0.12814093,0.14363656,-0.00035831,0.0001285
 0,-0.00155152,-0.00312193,0.00181225,0.00075520,-0.01305656,-0.0122762
 5,-0.02961852,-0.06681940,-0.01849833,-0.07082864,0.00419442,0.0056759
 2,0.01907554,-0.00024852,-0.00111285,0.00001523,0.00000391,-0.00010556
 ,0.00000373,0.00018639,-0.00005585,-0.00024017,-0.00137403,0.00378059,
 0.00154938,0.00103207,-0.00055824,0.00013394,0.00151569,0.00147830,0.0
 0365128,0.07759481,-0.00003307,-0.00035673,-0.00050568,-0.00113764,0.0
 0131077,0.00012209,-0.00681733,-0.00424588,-0.00759737,-0.01562954,-0.
 06223216,-0.05700151,-0.00637217,-0.00707651,-0.02404731,-0.00025535,0
 .00138171,-0.00127985,0.00016042,0.00012736,0.00037066,-0.00002812,-0.
 00032362,0.00075032,0.00240427,-0.00345623,-0.00151752,-0.00037478,0.0
 0138915,0.00061198,0.00815004,0.00640863,0.02406624,0.02037112,0.06739
 071,0.00026630,0.00026635,0.00023139,0.00022018,0.00126069,0.00034499,
 -0.00216302,-0.00037186,0.00393018,-0.06561601,-0.05754290,-0.24932394
 ,-0.00141396,-0.00278677,-0.01118258,-0.00010286,0.00024135,0.00029404
 ,0.00004682,-0.00008220,0.00010825,-0.00024764,-0.00048789,0.00043366,
 0.00154800,-0.00201175,0.00075007,0.00055468,0.00016436,0.00071408,-0.
 00596405,-0.00361006,-0.02014001,0.07358508,0.06520556,0.27420575,-0.0
 0026653,-0.00204818,0.00034471,0.00975552,-0.01124575,-0.00121021,-0.1
 6758609,0.13380826,0.01927237,-0.01503846,0.02332454,0.00459779,-0.004
 71694,-0.00353402,-0.00138990,0.00004017,-0.00064369,0.00007344,0.0001
 4007,0.00011558,-0.00000190,0.00005846,0.00005007,-0.00005892,0.000023
 61,0.00000739,0.00018446,-0.00097440,0.00149805,0.00070199,0.00124516,
 -0.00036924,0.00057006,0.00001238,-0.00021220,-0.00077283,0.17552925,-
 0.00382935,-0.00177770,-0.00121918,0.02182241,-0.02276931,-0.00350363,
 0.12928095,-0.21073166,-0.02397339,-0.00612408,0.00761315,0.00138859,-
 0.00180036,0.00011721,-0.00001683,-0.00055438,0.00025307,-0.00008866,0
 .00010994,0.00007111,0.00000701,0.00008295,0.00005725,0.00008028,0.000
 00682,-0.00005699,0.00000613,-0.00038957,0.00038245,0.00014486,0.00074
 086,0.00083351,0.00000605,0.00058714,0.00002320,-0.00028678,-0.1403738
 8,0.22668572,-0.00060444,-0.00126960,0.01271131,0.00234478,-0.00189359
 ,0.00433424,0.01784316,-0.02462126,-0.04092578,0.00126140,0.00073187,0
 .00197496,0.00071236,0.00011899,0.00128544,0.00008526,-0.00045280,-0.0
 0021340,0.00013804,-0.00002471,-0.00011178,0.00002065,-0.00014948,-0.0
 0012096,-0.00026512,0.00028769,0.00006114,0.00021104,-0.00029191,0.000
 07048,-0.00040224,-0.00044426,0.00044501,0.00091586,-0.00012949,-0.000
 15310,-0.02185650,0.02684711,0.02855225,-0.01378081,-0.00431441,-0.000
 69015,-0.32006305,-0.04084848,0.00403493,-0.01005695,-0.00026435,0.000
 45107,0.00198084,-0.00145209,0.00026122,0.00065091,0.00019741,-0.00021
 684,0.00013935,0.00357778,0.00135727,-0.00101394,-0.00033262,-0.000306
 07,0.00001525,-0.00002927,-0.00012989,-0.00001213,-0.00000930,0.000082
 77,-0.00001838,-0.00004092,-0.00000811,-0.00045561,-0.00020410,-0.0001
 1199,-0.00020095,-0.00014918,-0.00001891,0.00141849,-0.00035450,-0.000
 28994,0.34079442,0.02509944,0.00608654,0.00103107,-0.03621139,-0.06117
 740,-0.00173926,-0.03339684,-0.00332164,0.00051200,0.00036465,-0.00389
 795,-0.00156092,0.00015540,-0.00041686,-0.00004902,0.00174108,-0.00457
 815,-0.00144790,0.00161719,0.00032180,0.00037664,-0.00004323,-0.000023
 18,0.00012833,-0.00001607,0.00012682,0.00003627,-0.00003804,0.00020809
 ,0.00002472,-0.00083644,-0.00030685,0.00002205,-0.00082989,-0.00029382
 ,-0.00006090,0.00005826,0.00093865,0.00081460,0.04352953,0.06491586,0.
 00282244,0.00215608,0.00224402,0.00490631,-0.00257409,-0.03800351,-0.0
 0277658,-0.00022801,0.00469907,0.00102957,-0.00199109,0.01258419,-0.00
 046895,-0.00032357,-0.00015422,-0.00022129,-0.00019165,0.00112451,-0.0
 0013112,-0.00002652,0.00017068,0.00039346,0.00004287,0.00003570,-0.000
 12948,-0.00008663,-0.00011994,-0.00013404,0.00009366,-0.00009031,-0.00
 226474,-0.00039563,0.00001370,0.00264040,0.00071037,-0.00026577,-0.000
 42606,0.00089637,-0.00768090,-0.00437524,0.00204929,0.02505726,-0.0478
 4013,-0.00484844,-0.01107538,0.00270871,0.00714192,0.01771554,-0.00146
 223,0.00082843,-0.00020994,-0.00029122,-0.00008060,0.00089416,0.001050
 00,0.00137162,-0.00089039,-0.00454069,-0.01032914,-0.03162180,0.001635
 21,0.00037812,0.00020325,-0.00584807,-0.00208523,-0.00141061,0.0000810
 6,-0.00033536,0.00070680,0.00005159,0.00017280,0.00025855,0.00018858,-
 0.00008660,0.00000589,0.00040706,-0.00005384,0.00014161,0.00003894,0.0
 0042037,-0.00153106,-0.00021762,-0.00046991,-0.00078804,0.05352091,-0.
 00787306,-0.07297122,-0.08058419,-0.00053111,-0.01614779,-0.02631016,0
 .00362911,-0.00034738,0.00008601,-0.00010854,-0.00025917,-0.00142207,0
 .00033165,0.00004237,-0.00101877,-0.00014600,-0.00216097,-0.00519145,0
 .00023376,0.00072253,0.00052404,-0.00065819,0.00053608,-0.00005253,-0.
 00020261,-0.00013790,0.00040990,-0.00003427,0.00008913,0.00028787,-0.0
 0006344,0.00012195,0.00009045,-0.00038439,-0.00011902,0.00009166,-0.00
 002509,-0.00084483,0.00226390,0.00042410,0.00021405,0.00047084,0.00423
 439,0.08293921,-0.01549605,-0.07793769,-0.25756442,0.00151092,-0.00363
 109,0.00006690,0.00108322,0.00096260,0.00034346,0.00003926,0.00036538,
 0.00006673,0.00015483,-0.00007572,0.00033490,-0.00165708,-0.00126692,-
 0.00736301,-0.00041621,0.00044350,0.00077752,-0.00166692,-0.00024326,0
 .00123179,-0.00010119,-0.00051937,0.00035329,-0.00008389,-0.00005496,0
 .00009880,0.00002835,-0.00001663,0.00000295,-0.00011168,0.00016247,0.0
 0004490,-0.00006709,-0.00014204,0.00004536,0.00041952,-0.00065070,-0.0
 0011397,0.01691232,0.08839161,0.28273126,-0.07685167,-0.06120093,0.051
 11212,0.00761328,0.01580443,-0.01318761,-0.00253518,0.00182697,0.00049
 553,-0.00018642,0.00061346,-0.00011202,-0.00638949,0.00055682,-0.00241
 099,-0.01089870,-0.02410674,0.01884728,0.00040226,0.00062623,0.0003968
 9,0.00156550,0.00008555,-0.00029841,0.00018873,0.00039154,-0.00005867,
 -0.00055569,-0.00204672,0.00065570,0.00017329,-0.00010281,-0.00008226,
 0.00023297,-0.00002264,-0.00006339,0.00032038,0.00037469,0.00141676,0.
 00082017,-0.00072373,-0.00007664,0.00051789,0.00117369,-0.00054832,0.0
 8558268,-0.06216490,-0.17442759,0.10939023,-0.00874431,-0.02468598,0.0
 1542134,0.00445948,-0.00077741,0.00009476,0.00004158,0.00046475,0.0007
 6950,-0.00144306,0.00059710,-0.00066913,-0.00221322,-0.00414988,0.0028
 8007,-0.00032105,0.00018505,-0.00014361,0.00004900,0.00019351,-0.00040
 148,0.00005714,0.00011134,0.00004397,0.00001238,-0.00040485,0.00025491
 ,-0.00007255,-0.00002619,0.00002687,-0.00001244,0.00007242,0.00001116,
 -0.00041010,-0.00079484,-0.00178705,0.00027038,0.00120404,-0.00060228,
 0.00374147,0.00832296,-0.00578719,0.06675020,0.19411556,0.05225468,0.1
 1050871,-0.13692061,-0.00138660,-0.00438718,0.00329455,-0.00044062,-0.
 00055090,-0.00021352,0.00018656,0.00022205,0.00028382,-0.00155083,-0.0
 0038317,0.00005549,-0.00381806,-0.00766424,0.00436055,0.00054049,0.000
 19184,-0.00009550,0.00031021,-0.00028258,0.00107731,-0.00012814,-0.000
 27051,0.00036723,-0.00022241,-0.00027193,0.00040269,0.00004777,-0.0000
 1981,-0.00004328,0.00002489,0.00007904,0.00000810,0.00003860,-0.000145
 90,-0.00027429,-0.00045964,0.00051373,0.00049948,0.01068910,0.02196291
 ,-0.02105647,-0.05608599,-0.11950206,0.14825446\\0.00000150,0.00000297
 ,-0.00000436,-0.00000051,-0.00000723,-0.00000336,0.00000461,0.00000529
 ,0.00000309,-0.00000005,-0.00000349,0.00000413,-0.00000063,-0.00000560
 ,-0.00000955,0.00000432,0.00000415,0.00000926,-0.00000533,0.00000800,0
 .00000282,0.00000128,-0.00000229,-0.00000206,0.00000272,0.00000080,0.0
 0000183,-0.00000961,-0.00000239,-0.00000171,0.00000119,-0.00000354,0.0
 0000635,0.00000219,0.00000222,0.00000205,-0.00000173,0.00000175,0.0000
 0147,-0.00000234,-0.00000004,-0.00000116,-0.00000008,-0.00000293,-0.00
 000208,0.00000247,0.00000235,-0.00000673\\\@
 The archive entry for this job was punched.


 MODELS ARE TO BE USED, NOT BELIEVED.

    -- PARAPHRASED BY H. THIEL IN "PRINCIPLES OF ECONOMETRICS"
 Job cpu time:       0 days  0 hours 55 minutes 11.5 seconds.
 Elapsed time:       0 days  0 hours  6 minutes 54.4 seconds.
 File lengths (MBytes):  RWF=    128 Int=      0 D2E=      0 Chk=      9 Scr=      1
 Normal termination of Gaussian 16 at Fri Mar 25 22:24:37 2022.
