 Entering Gaussian System, Link 0=g16
 Initial command:
 /apps/chpc/chem/gaussian16/B01/g16/l1.exe "/mnt/lustre/users/lmoskaleva/Kgalaletso/4176257.sched01/Gau-55624.inp" -scrdir="/mnt/lustre/users/lmoskaleva/Kgalaletso/4176257.sched01/"
 Entering Link 1 = /apps/chpc/chem/gaussian16/B01/g16/l1.exe PID=     55626.
  
 Copyright (c) 1988-2017, Gaussian, Inc.  All Rights Reserved.
  
 This is part of the Gaussian(R) 16 program.  It is based on
 the Gaussian(R) 09 system (copyright 2009, Gaussian, Inc.),
 the Gaussian(R) 03 system (copyright 2003, Gaussian, Inc.),
 the Gaussian(R) 98 system (copyright 1998, Gaussian, Inc.),
 the Gaussian(R) 94 system (copyright 1995, Gaussian, Inc.),
 the Gaussian 92(TM) system (copyright 1992, Gaussian, Inc.),
 the Gaussian 90(TM) system (copyright 1990, Gaussian, Inc.),
 the Gaussian 88(TM) system (copyright 1988, Gaussian, Inc.),
 the Gaussian 86(TM) system (copyright 1986, Carnegie Mellon
 University), and the Gaussian 82(TM) system (copyright 1983,
 Carnegie Mellon University). Gaussian is a federally registered
 trademark of Gaussian, Inc.
  
 This software contains proprietary and confidential information,
 including trade secrets, belonging to Gaussian, Inc.
  
 This software is provided under written license and may be
 used, copied, transmitted, or stored only in accord with that
 written license.
  
 The following legend is applicable only to US Government
 contracts under FAR:
  
                    RESTRICTED RIGHTS LEGEND
  
 Use, reproduction and disclosure by the US Government is
 subject to restrictions as set forth in subparagraphs (a)
 and (c) of the Commercial Computer Software - Restricted
 Rights clause in FAR 52.227-19.
  
 Gaussian, Inc.
 340 Quinnipiac St., Bldg. 40, Wallingford CT 06492
  
  
 ---------------------------------------------------------------
 Warning -- This program may not be used in any manner that
 competes with the business of Gaussian, Inc. or will provide
 assistance to any competitor of Gaussian, Inc.  The licensee
 of this program is prohibited from giving any competitor of
 Gaussian, Inc. access to this program.  By using this program,
 the user acknowledges that Gaussian, Inc. is engaged in the
 business of creating and licensing software in the field of
 computational chemistry and represents and warrants to the
 licensee that it is not a competitor of Gaussian, Inc. and that
 it will not use this program in any manner prohibited above.
 ---------------------------------------------------------------
  

 Cite this work as:
 Gaussian 16, Revision B.01,
 M. J. Frisch, G. W. Trucks, H. B. Schlegel, G. E. Scuseria, 
 M. A. Robb, J. R. Cheeseman, G. Scalmani, V. Barone, 
 G. A. Petersson, H. Nakatsuji, X. Li, M. Caricato, A. V. Marenich, 
 J. Bloino, B. G. Janesko, R. Gomperts, B. Mennucci, H. P. Hratchian, 
 J. V. Ortiz, A. F. Izmaylov, J. L. Sonnenberg, D. Williams-Young, 
 F. Ding, F. Lipparini, F. Egidi, J. Goings, B. Peng, A. Petrone, 
 T. Henderson, D. Ranasinghe, V. G. Zakrzewski, J. Gao, N. Rega, 
 G. Zheng, W. Liang, M. Hada, M. Ehara, K. Toyota, R. Fukuda, 
 J. Hasegawa, M. Ishida, T. Nakajima, Y. Honda, O. Kitao, H. Nakai, 
 T. Vreven, K. Throssell, J. A. Montgomery, Jr., J. E. Peralta, 
 F. Ogliaro, M. J. Bearpark, J. J. Heyd, E. N. Brothers, K. N. Kudin, 
 V. N. Staroverov, T. A. Keith, R. Kobayashi, J. Normand, 
 K. Raghavachari, A. P. Rendell, J. C. Burant, S. S. Iyengar, 
 J. Tomasi, M. Cossi, J. M. Millam, M. Klene, C. Adamo, R. Cammi, 
 J. W. Ochterski, R. L. Martin, K. Morokuma, O. Farkas, 
 J. B. Foresman, and D. J. Fox, Gaussian, Inc., Wallingford CT, 2016.
 
 ******************************************
 Gaussian 16:  ES64L-G16RevB.01 20-Dec-2017
                10-May-2022 
 ******************************************
 %nprocshared=24
 Will use up to   24 processors via shared memory.
 %lindaworkers=cnode0983.cm.cluster,cnode1075.cm.cluster,cnode1211.cm.cluster
 %mem=20GB
 %chk=QOOH-OH-Elim-TS5-b3lyp-c.chk
 SetLPE:    new flags="-opt 'Tsnet.Node.lindarsharg: ssh'  -nodelist 'cnode0983.cm.cluster cnode1075.cm.cluster cnode1211.cm.cluster' -env GAUSS_MDEF=2684354560 -env GAUSS_EXEDIR="/apps/chpc/chem/gaussian16/B01/g16/bsd:/apps/chpc/chem/gaussian16/B01/g16""
 Will use up to    3 processors via Linda.
 ----------------------------------------------------------------------
 # opt=(calcfc,ts,noeigentest) freq ub3lyp cc-pvtz+d int=grid=ultrafine
 ----------------------------------------------------------------------
 1/5=1,10=4,11=1,18=20,26=4,38=1/1,3;
 2/9=110,12=2,17=6,18=5,40=1/2;
 3/5=16,6=1,7=9,11=2,25=1,30=1,71=2,74=-5,75=-5,116=2,140=1/1,2,3;
 4//1;
 5/5=2,38=5/2;
 8/6=4,10=90,11=11/1;
 11/6=1,8=1,9=11,15=111,16=1/1,2,10;
 10/6=1,13=1/2;
 6/7=2,8=2,9=2,10=2,28=1/1;
 7/10=1,18=20,25=1/1,2,3,16;
 1/5=1,10=4,11=1,18=20,26=4/3(2);
 2/9=110/2;
 99//99;
 2/9=110/2;
 3/5=16,6=1,7=9,11=2,25=1,30=1,71=1,74=-5,75=-5,116=2/1,2,3;
 4/5=5,16=3,69=1/1;
 5/5=2,38=5/2;
 7//1,2,3,16;
 1/5=1,11=1,18=20,26=4/3(-5);
 2/9=110/2;
 6/7=2,8=2,9=2,10=2,19=2,28=1/1;
 99/9=1/99;
 ------------------------
 QOOH-OH-Elim-TS5-b3lyp-c
 ------------------------
 Symbolic Z-matrix:
 Charge =  0 Multiplicity = 2
 C                    -0.18732   1.04247   0.01957 
 C                    -0.6126   -0.29951   0.33023 
 C                     0.37118  -1.38371  -0.11751 
 C                     1.79974  -1.00663   0.28766 
 C                     2.20536   0.33628  -0.32609 
 C                     1.24605   1.46086   0.09843 
 H                     1.42322   2.36115  -0.49479 
 H                     1.49054   1.74565   1.13709 
 H                     2.19329   0.24409  -1.41589 
 H                     3.22819   0.5913   -0.04222 
 H                     2.48881  -1.79185  -0.02883 
 H                     1.87437  -0.95105   1.3791 
 H                     0.31403  -1.46656  -1.2055 
 H                     0.073    -2.34688   0.29745 
 H                    -0.93105  -0.47896   1.36527 
 O                    -1.43535   0.34427  -0.61532 
 O                    -2.87592   0.16532   0.22942 
 H                    -3.25645   0.76158  -0.42863 
 H                    -0.9518    1.80647   0.02314 
 
 Add virtual bond connecting atoms O17        and O16        Dist= 3.17D+00.

 GradGradGradGradGradGradGradGradGradGradGradGradGradGradGradGradGradGrad
 Berny optimization.
 Initialization pass.
                           ----------------------------
                           !    Initial Parameters    !
                           ! (Angstroms and Degrees)  !
 --------------------------                            --------------------------
 ! Name  Definition              Value          Derivative Info.                !
 --------------------------------------------------------------------------------
 ! R1    R(1,2)                  1.4416         calculate D2E/DX2 analytically  !
 ! R2    R(1,6)                  1.4953         calculate D2E/DX2 analytically  !
 ! R3    R(1,16)                 1.5647         calculate D2E/DX2 analytically  !
 ! R4    R(1,19)                 1.0808         calculate D2E/DX2 analytically  !
 ! R5    R(2,3)                  1.5309         calculate D2E/DX2 analytically  !
 ! R6    R(2,15)                 1.0977         calculate D2E/DX2 analytically  !
 ! R7    R(2,16)                 1.409          calculate D2E/DX2 analytically  !
 ! R8    R(3,4)                  1.532          calculate D2E/DX2 analytically  !
 ! R9    R(3,13)                 1.0926         calculate D2E/DX2 analytically  !
 ! R10   R(3,14)                 1.0903         calculate D2E/DX2 analytically  !
 ! R11   R(4,5)                  1.5312         calculate D2E/DX2 analytically  !
 ! R12   R(4,11)                 1.0916         calculate D2E/DX2 analytically  !
 ! R13   R(4,12)                 1.0954         calculate D2E/DX2 analytically  !
 ! R14   R(5,6)                  1.5379         calculate D2E/DX2 analytically  !
 ! R15   R(5,9)                  1.0938         calculate D2E/DX2 analytically  !
 ! R16   R(5,10)                 1.0917         calculate D2E/DX2 analytically  !
 ! R17   R(6,7)                  1.0926         calculate D2E/DX2 analytically  !
 ! R18   R(6,8)                  1.1044         calculate D2E/DX2 analytically  !
 ! R19   R(16,17)                1.6795         calculate D2E/DX2 analytically  !
 ! R20   R(17,18)                0.9661         calculate D2E/DX2 analytically  !
 ! A1    A(2,1,6)              122.1333         calculate D2E/DX2 analytically  !
 ! A2    A(2,1,19)             116.6565         calculate D2E/DX2 analytically  !
 ! A3    A(6,1,16)             155.6274         calculate D2E/DX2 analytically  !
 ! A4    A(6,1,19)             118.6913         calculate D2E/DX2 analytically  !
 ! A5    A(16,1,19)             75.675          calculate D2E/DX2 analytically  !
 ! A6    A(1,2,3)              113.9944         calculate D2E/DX2 analytically  !
 ! A7    A(1,2,15)             116.1651         calculate D2E/DX2 analytically  !
 ! A8    A(3,2,15)             110.2682         calculate D2E/DX2 analytically  !
 ! A9    A(3,2,16)             120.1669         calculate D2E/DX2 analytically  !
 ! A10   A(15,2,16)            122.5513         calculate D2E/DX2 analytically  !
 ! A11   A(2,3,4)              110.3369         calculate D2E/DX2 analytically  !
 ! A12   A(2,3,13)             108.1381         calculate D2E/DX2 analytically  !
 ! A13   A(2,3,14)             109.7886         calculate D2E/DX2 analytically  !
 ! A14   A(4,3,13)             109.3162         calculate D2E/DX2 analytically  !
 ! A15   A(4,3,14)             111.8257         calculate D2E/DX2 analytically  !
 ! A16   A(13,3,14)            107.3186         calculate D2E/DX2 analytically  !
 ! A17   A(3,4,5)              110.908          calculate D2E/DX2 analytically  !
 ! A18   A(3,4,11)             109.5658         calculate D2E/DX2 analytically  !
 ! A19   A(3,4,12)             109.8486         calculate D2E/DX2 analytically  !
 ! A20   A(5,4,11)             110.3308         calculate D2E/DX2 analytically  !
 ! A21   A(5,4,12)             109.6836         calculate D2E/DX2 analytically  !
 ! A22   A(11,4,12)            106.4021         calculate D2E/DX2 analytically  !
 ! A23   A(4,5,6)              111.434          calculate D2E/DX2 analytically  !
 ! A24   A(4,5,9)              108.8162         calculate D2E/DX2 analytically  !
 ! A25   A(4,5,10)             110.4165         calculate D2E/DX2 analytically  !
 ! A26   A(6,5,9)              109.2559         calculate D2E/DX2 analytically  !
 ! A27   A(6,5,10)             109.9885         calculate D2E/DX2 analytically  !
 ! A28   A(9,5,10)             106.8046         calculate D2E/DX2 analytically  !
 ! A29   A(1,6,5)              112.259          calculate D2E/DX2 analytically  !
 ! A30   A(1,6,7)              110.9377         calculate D2E/DX2 analytically  !
 ! A31   A(1,6,8)              109.5095         calculate D2E/DX2 analytically  !
 ! A32   A(5,6,7)              110.5798         calculate D2E/DX2 analytically  !
 ! A33   A(5,6,8)              108.0642         calculate D2E/DX2 analytically  !
 ! A34   A(7,6,8)              105.2029         calculate D2E/DX2 analytically  !
 ! A35   A(1,16,17)            121.8441         calculate D2E/DX2 analytically  !
 ! A36   A(2,16,17)             96.5825         calculate D2E/DX2 analytically  !
 ! A37   A(16,17,18)            85.957          calculate D2E/DX2 analytically  !
 ! D1    D(6,1,2,3)            -36.894          calculate D2E/DX2 analytically  !
 ! D2    D(6,1,2,15)            92.9843         calculate D2E/DX2 analytically  !
 ! D3    D(19,1,2,3)           161.3608         calculate D2E/DX2 analytically  !
 ! D4    D(19,1,2,15)          -68.7609         calculate D2E/DX2 analytically  !
 ! D5    D(2,1,6,5)             35.4191         calculate D2E/DX2 analytically  !
 ! D6    D(2,1,6,7)            159.7013         calculate D2E/DX2 analytically  !
 ! D7    D(2,1,6,8)            -84.6123         calculate D2E/DX2 analytically  !
 ! D8    D(16,1,6,5)           -41.5543         calculate D2E/DX2 analytically  !
 ! D9    D(16,1,6,7)            82.7279         calculate D2E/DX2 analytically  !
 ! D10   D(16,1,6,8)          -161.5857         calculate D2E/DX2 analytically  !
 ! D11   D(19,1,6,5)          -163.1915         calculate D2E/DX2 analytically  !
 ! D12   D(19,1,6,7)           -38.9092         calculate D2E/DX2 analytically  !
 ! D13   D(19,1,6,8)            76.7772         calculate D2E/DX2 analytically  !
 ! D14   D(6,1,16,17)          169.7031         calculate D2E/DX2 analytically  !
 ! D15   D(19,1,16,17)         -60.7244         calculate D2E/DX2 analytically  !
 ! D16   D(1,2,3,4)             46.6049         calculate D2E/DX2 analytically  !
 ! D17   D(1,2,3,13)           -72.9091         calculate D2E/DX2 analytically  !
 ! D18   D(1,2,3,14)           170.2976         calculate D2E/DX2 analytically  !
 ! D19   D(15,2,3,4)           -86.1528         calculate D2E/DX2 analytically  !
 ! D20   D(15,2,3,13)          154.3333         calculate D2E/DX2 analytically  !
 ! D21   D(15,2,3,14)           37.54           calculate D2E/DX2 analytically  !
 ! D22   D(16,2,3,4)           122.4382         calculate D2E/DX2 analytically  !
 ! D23   D(16,2,3,13)            2.9242         calculate D2E/DX2 analytically  !
 ! D24   D(16,2,3,14)         -113.8691         calculate D2E/DX2 analytically  !
 ! D25   D(3,2,16,17)          131.1538         calculate D2E/DX2 analytically  !
 ! D26   D(15,2,16,17)         -16.6659         calculate D2E/DX2 analytically  !
 ! D27   D(2,3,4,5)            -58.4999         calculate D2E/DX2 analytically  !
 ! D28   D(2,3,4,11)           179.461          calculate D2E/DX2 analytically  !
 ! D29   D(2,3,4,12)            62.9157         calculate D2E/DX2 analytically  !
 ! D30   D(13,3,4,5)            60.2981         calculate D2E/DX2 analytically  !
 ! D31   D(13,3,4,11)          -61.741          calculate D2E/DX2 analytically  !
 ! D32   D(13,3,4,12)         -178.2863         calculate D2E/DX2 analytically  !
 ! D33   D(14,3,4,5)           178.995          calculate D2E/DX2 analytically  !
 ! D34   D(14,3,4,11)           56.9559         calculate D2E/DX2 analytically  !
 ! D35   D(14,3,4,12)          -59.5894         calculate D2E/DX2 analytically  !
 ! D36   D(3,4,5,6)             58.1337         calculate D2E/DX2 analytically  !
 ! D37   D(3,4,5,9)            -62.4012         calculate D2E/DX2 analytically  !
 ! D38   D(3,4,5,10)          -179.3207         calculate D2E/DX2 analytically  !
 ! D39   D(11,4,5,6)           179.7252         calculate D2E/DX2 analytically  !
 ! D40   D(11,4,5,9)            59.1903         calculate D2E/DX2 analytically  !
 ! D41   D(11,4,5,10)          -57.7292         calculate D2E/DX2 analytically  !
 ! D42   D(12,4,5,6)           -63.3788         calculate D2E/DX2 analytically  !
 ! D43   D(12,4,5,9)           176.0862         calculate D2E/DX2 analytically  !
 ! D44   D(12,4,5,10)           59.1668         calculate D2E/DX2 analytically  !
 ! D45   D(4,5,6,1)            -44.2939         calculate D2E/DX2 analytically  !
 ! D46   D(4,5,6,7)           -168.7744         calculate D2E/DX2 analytically  !
 ! D47   D(4,5,6,8)             76.5739         calculate D2E/DX2 analytically  !
 ! D48   D(9,5,6,1)             75.9825         calculate D2E/DX2 analytically  !
 ! D49   D(9,5,6,7)            -48.498          calculate D2E/DX2 analytically  !
 ! D50   D(9,5,6,8)           -163.1497         calculate D2E/DX2 analytically  !
 ! D51   D(10,5,6,1)          -167.0851         calculate D2E/DX2 analytically  !
 ! D52   D(10,5,6,7)            68.4343         calculate D2E/DX2 analytically  !
 ! D53   D(10,5,6,8)           -46.2174         calculate D2E/DX2 analytically  !
 ! D54   D(1,16,17,18)         114.5705         calculate D2E/DX2 analytically  !
 ! D55   D(2,16,17,18)         170.4248         calculate D2E/DX2 analytically  !
 --------------------------------------------------------------------------------
 Trust Radius=3.00D-01 FncErr=1.00D-07 GrdErr=1.00D-06 EigMax=2.50D+02 EigMin=1.00D-04
 Number of steps in this run=    114 maximum allowed number of steps=    114.
 Search for a saddle point of order  1.
 GradGradGradGradGradGradGradGradGradGradGradGradGradGradGradGradGradGrad

                          Input orientation:                          
 ---------------------------------------------------------------------
 Center     Atomic      Atomic             Coordinates (Angstroms)
 Number     Number       Type             X           Y           Z
 ---------------------------------------------------------------------
      1          6           0       -0.187319    1.042473    0.019570
      2          6           0       -0.612604   -0.299510    0.330230
      3          6           0        0.371181   -1.383711   -0.117514
      4          6           0        1.799735   -1.006628    0.287662
      5          6           0        2.205359    0.336280   -0.326087
      6          6           0        1.246052    1.460855    0.098430
      7          1           0        1.423218    2.361154   -0.494790
      8          1           0        1.490535    1.745646    1.137088
      9          1           0        2.193295    0.244094   -1.415886
     10          1           0        3.228195    0.591304   -0.042215
     11          1           0        2.488809   -1.791850   -0.028828
     12          1           0        1.874370   -0.951046    1.379098
     13          1           0        0.314031   -1.466564   -1.205497
     14          1           0        0.072997   -2.346875    0.297454
     15          1           0       -0.931050   -0.478964    1.365270
     16          8           0       -1.435351    0.344266   -0.615316
     17          8           0       -2.875922    0.165319    0.229421
     18          1           0       -3.256448    0.761576   -0.428628
     19          1           0       -0.951804    1.806467    0.023135
 ---------------------------------------------------------------------
                    Distance matrix (angstroms):
                    1          2          3          4          5
     1  C    0.000000
     2  C    1.441629   0.000000
     3  C    2.493408   1.530947   0.000000
     4  C    2.866892   2.514201   1.532033   0.000000
     5  C    2.518550   2.962414   2.523109   1.531215   0.000000
     6  C    1.495264   2.570451   2.983888   2.535911   1.537906
     7  H    2.144135   3.450270   3.908086   3.477923   2.177228
     8  H    2.135063   3.042512   3.552443   2.896919   2.153640
     9  H    2.892277   3.349253   2.766879   2.149714   1.093758
    10  H    3.445737   3.960303   3.474030   2.168572   1.091702
    11  H    3.898383   3.460457   2.158423   1.091587   2.167405
    12  H    3.173798   2.776628   2.164861   1.095396   2.162040
    13  H    2.836795   2.139889   1.092629   2.156011   2.756942
    14  H    3.410669   2.159358   1.090320   2.185860   3.483546
    15  H    2.163057   1.097688   2.170949   2.982760   3.655458
    16  O    1.564659   1.409049   2.548974   3.620230   3.652189
    17  O    2.835846   2.312755   3.614351   4.820645   5.114414
    18  H    3.114376   2.948166   4.225960   5.404128   5.479300
    19  H    1.080804   2.155111   3.456488   3.943912   3.500155
                    6          7          8          9         10
     6  C    0.000000
     7  H    1.092628   0.000000
     8  H    1.104395   1.745396   0.000000
     9  H    2.161233   2.433799   3.044044   0.000000
    10  H    2.169053   2.568100   2.396398   1.754578   0.000000
    11  H    3.484355   4.312777   3.856137   2.481195   2.495254
    12  H    2.802171   3.832188   2.734602   3.056470   2.496361
    13  H    3.337465   4.048064   4.146102   2.549950   3.752386
    14  H    3.989295   4.961480   4.411703   3.760893   4.324760
    15  H    3.179238   4.131425   3.296215   4.244900   4.519492
    16  O    2.991008   3.500540   3.687221   3.717260   4.705118
    17  O    4.322759   4.881473   4.731516   5.330122   6.124989
    18  H    4.586860   4.945938   5.094478   5.562568   6.498377
    19  H    2.226137   2.493322   2.685072   3.795186   4.353537
                   11         12         13         14         15
    11  H    0.000000
    12  H    1.751212   0.000000
    13  H    2.493997   3.062768   0.000000
    14  H    2.500132   2.522546   1.758382   0.000000
    15  H    3.919517   2.844896   3.022321   2.374328   0.000000
    16  O    4.506217   4.075509   2.586070   3.217220   2.203350
    17  O    5.716427   5.013312   3.859771   3.874516   2.342601
    18  H    6.299826   5.703178   4.279773   4.612469   3.188179
    19  H    4.978795   4.174898   3.718146   4.286691   2.650463
                   16         17         18         19
    16  O    0.000000
    17  O    1.679538   0.000000
    18  H    1.877603   0.966101   0.000000
    19  H    1.667174   2.537351   2.570461   0.000000
 Stoichiometry    C6H11O2(2)
 Framework group  C1[X(C6H11O2)]
 Deg. of freedom    51
 Full point group                 C1      NOp   1
 Largest Abelian subgroup         C1      NOp   1
 Largest concise Abelian subgroup C1      NOp   1
                         Standard orientation:                         
 ---------------------------------------------------------------------
 Center     Atomic      Atomic             Coordinates (Angstroms)
 Number     Number       Type             X           Y           Z
 ---------------------------------------------------------------------
      1          6           0        0.293499   -0.933489    0.089734
      2          6           0        0.620918    0.452301    0.314855
      3          6           0       -0.438193    1.433046   -0.195265
      4          6           0       -1.836058    0.980144    0.238303
      5          6           0       -2.143673   -0.423987   -0.289343
      6          6           0       -1.106059   -1.448126    0.200197
      7          1           0       -1.217688   -2.393951   -0.335331
      8          1           0       -1.329838   -1.684663    1.255499
      9          1           0       -2.137818   -0.399071   -1.382801
     10          1           0       -3.145610   -0.733752    0.013941
     11          1           0       -2.579750    1.692606   -0.123472
     12          1           0       -1.906957    0.987269    1.331379
     13          1           0       -0.386699    1.452026   -1.286514
     14          1           0       -0.210312    2.439075    0.157968
     15          1           0        0.925179    0.718154    1.335476
     16          8           0        1.488284   -0.188168   -0.592280
     17          8           0        2.911874    0.146028    0.233887
     18          1           0        3.334623   -0.461065   -0.387460
     19          1           0        1.111010   -1.638843    0.137567
 ---------------------------------------------------------------------
 Rotational constants (GHZ):           4.1576138           1.4437765           1.1681630
 Standard basis: CC-pVTZ+d (5D, 7F)
 There are   445 symmetry adapted cartesian basis functions of A   symmetry.
 There are   394 symmetry adapted basis functions of A   symmetry.
   394 basis functions,   603 primitive gaussians,   445 cartesian basis functions
    32 alpha electrons       31 beta electrons
       nuclear repulsion energy       402.3170601909 Hartrees.
 NAtoms=   19 NActive=   19 NUniq=   19 SFac= 1.00D+00 NAtFMM=   60 NAOKFM=F Big=F
 Integral buffers will be    131072 words long.
 Raffenetti 2 integral format.
 Two-electron integral symmetry is turned on.
 One-electron integrals computed using PRISM.
 NBasis=   394 RedAO= T EigKep=  2.67D-04  NBF=   394
 NBsUse=   394 1.00D-06 EigRej= -1.00D+00 NBFU=   394
 ExpMin= 1.03D-01 ExpMax= 1.53D+04 ExpMxC= 5.22D+02 IAcc=3 IRadAn=         5 AccDes= 0.00D+00
 Harris functional with IExCor=  402 and IRadAn=       5 diagonalized for initial guess.
 HarFok:  IExCor=  402 AccDes= 0.00D+00 IRadAn=         5 IDoV= 1 UseB2=F ITyADJ=14
 ICtDFT=  3500011 ScaDFX=  1.000000  1.000000  1.000000  1.000000
 FoFCou: FMM=F IPFlag=           0 FMFlag=      100000 FMFlg1=           0
         NFxFlg=           0 DoJE=T BraDBF=F KetDBF=T FulRan=T
         wScrn=  0.000000 ICntrl=       500 IOpCl=  0 I1Cent=   200000004 NGrid=           0
         NMat0=    1 NMatS0=      1 NMatT0=    0 NMatD0=    1 NMtDS0=    0 NMtDT0=    0
 Petite list used in FoFCou.
 Initial guess <Sx>= 0.0000 <Sy>= 0.0000 <Sz>= 0.5000 <S**2>= 0.7500 S= 0.5000
 Requested convergence on RMS density matrix=1.00D-08 within 128 cycles.
 Requested convergence on MAX density matrix=1.00D-06.
 Requested convergence on             energy=1.00D-06.
 No special actions if energy rises.
 Integral accuracy reduced to 1.0D-05 until final iterations.
 Initial convergence to 1.0D-05 achieved.  Increase integral accuracy.
 SCF Done:  E(UB3LYP) =  -385.596207698     A.U. after   19 cycles
            NFock= 19  Conv=0.80D-08     -V/T= 2.0051
 <Sx>= 0.0000 <Sy>= 0.0000 <Sz>= 0.5000 <S**2>= 0.7589 S= 0.5044
 <L.S>= 0.000000000000E+00
 Annihilation of the first spin contaminant:
 S**2 before annihilation     0.7589,   after     0.7500
 DoSCS=F DFT=T ScalE2(SS,OS)=  1.000000  1.000000
 Range of M.O.s used for correlation:     1   394
 NBasis=   394 NAE=    32 NBE=    31 NFC=     0 NFV=     0
 NROrb=    394 NOA=    32 NOB=    31 NVA=   362 NVB=   363

 **** Warning!!: The largest alpha MO coefficient is  0.12440800D+02


 **** Warning!!: The largest beta MO coefficient is  0.12317055D+02

 Symmetrizing basis deriv contribution to polar:
 IMax=3 JMax=2 DiffMx= 0.00D+00
 G2DrvN: will do    20 centers at a time, making    1 passes.
 Calling FoFCou, ICntrl=  3107 FMM=F I1Cent=   0 AccDes= 0.00D+00.
 End of G2Drv F.D. properties file   721 does not exist.
 End of G2Drv F.D. properties file   722 does not exist.
 End of G2Drv F.D. properties file   788 does not exist.
          IDoAtm=1111111111111111111
          Differentiating once with respect to nuclear coordinates.
 CalDSu exits because no D1Ps are significant.
          There are    60 degrees of freedom in the 1st order CPHF.  IDoFFX=6 NUNeed=     0.
     54 vectors produced by pass  0 Test12= 3.81D-14 1.67D-09 XBig12= 3.29D-01 2.03D-01.
 AX will form    54 AO Fock derivatives at one time.
     54 vectors produced by pass  1 Test12= 3.81D-14 1.67D-09 XBig12= 7.57D-02 8.32D-02.
     54 vectors produced by pass  2 Test12= 3.81D-14 1.67D-09 XBig12= 1.21D-03 6.02D-03.
     54 vectors produced by pass  3 Test12= 3.81D-14 1.67D-09 XBig12= 1.27D-05 5.67D-04.
     54 vectors produced by pass  4 Test12= 3.81D-14 1.67D-09 XBig12= 1.03D-07 3.05D-05.
     54 vectors produced by pass  5 Test12= 3.81D-14 1.67D-09 XBig12= 5.40D-10 1.95D-06.
     38 vectors produced by pass  6 Test12= 3.81D-14 1.67D-09 XBig12= 2.44D-12 1.30D-07.
      9 vectors produced by pass  7 Test12= 3.81D-14 1.67D-09 XBig12= 7.62D-15 9.11D-09.
 InvSVY:  IOpt=1 It=  1 EMax= 7.22D-16
 Solved reduced A of dimension   371 with    60 vectors.
 End of Minotr F.D. properties file   721 does not exist.
 End of Minotr F.D. properties file   722 does not exist.
 End of Minotr F.D. properties file   788 does not exist.

 **********************************************************************

            Population analysis using the SCF Density.

 **********************************************************************

 Orbital symmetries:
 Alpha Orbitals:
       Occupied  (A) (A) (A) (A) (A) (A) (A) (A) (A) (A) (A) (A)
                 (A) (A) (A) (A) (A) (A) (A) (A) (A) (A) (A) (A)
                 (A) (A) (A) (A) (A) (A) (A) (A)
       Virtual   (A) (A) (A) (A) (A) (A) (A) (A) (A) (A) (A) (A)
                 (A) (A) (A) (A) (A) (A) (A) (A) (A) (A) (A) (A)
                 (A) (A) (A) (A) (A) (A) (A) (A) (A) (A) (A) (A)
                 (A) (A) (A) (A) (A) (A) (A) (A) (A) (A) (A) (A)
                 (A) (A) (A) (A) (A) (A) (A) (A) (A) (A) (A) (A)
                 (A) (A) (A) (A) (A) (A) (A) (A) (A) (A) (A) (A)
                 (A) (A) (A) (A) (A) (A) (A) (A) (A) (A) (A) (A)
                 (A) (A) (A) (A) (A) (A) (A) (A) (A) (A) (A) (A)
                 (A) (A) (A) (A) (A) (A) (A) (A) (A) (A) (A) (A)
                 (A) (A) (A) (A) (A) (A) (A) (A) (A) (A) (A) (A)
                 (A) (A) (A) (A) (A) (A) (A) (A) (A) (A) (A) (A)
                 (A) (A) (A) (A) (A) (A) (A) (A) (A) (A) (A) (A)
                 (A) (A) (A) (A) (A) (A) (A) (A) (A) (A) (A) (A)
                 (A) (A) (A) (A) (A) (A) (A) (A) (A) (A) (A) (A)
                 (A) (A) (A) (A) (A) (A) (A) (A) (A) (A) (A) (A)
                 (A) (A) (A) (A) (A) (A) (A) (A) (A) (A) (A) (A)
                 (A) (A) (A) (A) (A) (A) (A) (A) (A) (A) (A) (A)
                 (A) (A) (A) (A) (A) (A) (A) (A) (A) (A) (A) (A)
                 (A) (A) (A) (A) (A) (A) (A) (A) (A) (A) (A) (A)
                 (A) (A) (A) (A) (A) (A) (A) (A) (A) (A) (A) (A)
                 (A) (A) (A) (A) (A) (A) (A) (A) (A) (A) (A) (A)
                 (A) (A) (A) (A) (A) (A) (A) (A) (A) (A) (A) (A)
                 (A) (A) (A) (A) (A) (A) (A) (A) (A) (A) (A) (A)
                 (A) (A) (A) (A) (A) (A) (A) (A) (A) (A) (A) (A)
                 (A) (A) (A) (A) (A) (A) (A) (A) (A) (A) (A) (A)
                 (A) (A) (A) (A) (A) (A) (A) (A) (A) (A) (A) (A)
                 (A) (A) (A) (A) (A) (A) (A) (A) (A) (A) (A) (A)
                 (A) (A) (A) (A) (A) (A) (A) (A) (A) (A) (A) (A)
                 (A) (A) (A) (A) (A) (A) (A) (A) (A) (A) (A) (A)
                 (A) (A) (A) (A) (A) (A) (A) (A) (A) (A) (A) (A)
                 (A) (A)
 Beta  Orbitals:
       Occupied  (A) (A) (A) (A) (A) (A) (A) (A) (A) (A) (A) (A)
                 (A) (A) (A) (A) (A) (A) (A) (A) (A) (A) (A) (A)
                 (A) (A) (A) (A) (A) (A) (A)
       Virtual   (A) (A) (A) (A) (A) (A) (A) (A) (A) (A) (A) (A)
                 (A) (A) (A) (A) (A) (A) (A) (A) (A) (A) (A) (A)
                 (A) (A) (A) (A) (A) (A) (A) (A) (A) (A) (A) (A)
                 (A) (A) (A) (A) (A) (A) (A) (A) (A) (A) (A) (A)
                 (A) (A) (A) (A) (A) (A) (A) (A) (A) (A) (A) (A)
                 (A) (A) (A) (A) (A) (A) (A) (A) (A) (A) (A) (A)
                 (A) (A) (A) (A) (A) (A) (A) (A) (A) (A) (A) (A)
                 (A) (A) (A) (A) (A) (A) (A) (A) (A) (A) (A) (A)
                 (A) (A) (A) (A) (A) (A) (A) (A) (A) (A) (A) (A)
                 (A) (A) (A) (A) (A) (A) (A) (A) (A) (A) (A) (A)
                 (A) (A) (A) (A) (A) (A) (A) (A) (A) (A) (A) (A)
                 (A) (A) (A) (A) (A) (A) (A) (A) (A) (A) (A) (A)
                 (A) (A) (A) (A) (A) (A) (A) (A) (A) (A) (A) (A)
                 (A) (A) (A) (A) (A) (A) (A) (A) (A) (A) (A) (A)
                 (A) (A) (A) (A) (A) (A) (A) (A) (A) (A) (A) (A)
                 (A) (A) (A) (A) (A) (A) (A) (A) (A) (A) (A) (A)
                 (A) (A) (A) (A) (A) (A) (A) (A) (A) (A) (A) (A)
                 (A) (A) (A) (A) (A) (A) (A) (A) (A) (A) (A) (A)
                 (A) (A) (A) (A) (A) (A) (A) (A) (A) (A) (A) (A)
                 (A) (A) (A) (A) (A) (A) (A) (A) (A) (A) (A) (A)
                 (A) (A) (A) (A) (A) (A) (A) (A) (A) (A) (A) (A)
                 (A) (A) (A) (A) (A) (A) (A) (A) (A) (A) (A) (A)
                 (A) (A) (A) (A) (A) (A) (A) (A) (A) (A) (A) (A)
                 (A) (A) (A) (A) (A) (A) (A) (A) (A) (A) (A) (A)
                 (A) (A) (A) (A) (A) (A) (A) (A) (A) (A) (A) (A)
                 (A) (A) (A) (A) (A) (A) (A) (A) (A) (A) (A) (A)
                 (A) (A) (A) (A) (A) (A) (A) (A) (A) (A) (A) (A)
                 (A) (A) (A) (A) (A) (A) (A) (A) (A) (A) (A) (A)
                 (A) (A) (A) (A) (A) (A) (A) (A) (A) (A) (A) (A)
                 (A) (A) (A) (A) (A) (A) (A) (A) (A) (A) (A) (A)
                 (A) (A) (A)
 The electronic state is 2-A.
 Alpha  occ. eigenvalues --  -19.18207 -19.11523 -10.22812 -10.21697 -10.18992
 Alpha  occ. eigenvalues --  -10.18252 -10.18212 -10.18010  -1.10527  -0.95080
 Alpha  occ. eigenvalues --   -0.83236  -0.76190  -0.71893  -0.63207  -0.62292
 Alpha  occ. eigenvalues --   -0.56776  -0.52475  -0.49185  -0.47871  -0.45301
 Alpha  occ. eigenvalues --   -0.43924  -0.42736  -0.41125  -0.39025  -0.37370
 Alpha  occ. eigenvalues --   -0.36842  -0.34330  -0.33650  -0.32621  -0.28925
 Alpha  occ. eigenvalues --   -0.24088  -0.20845
 Alpha virt. eigenvalues --   -0.01156   0.03439   0.05041   0.05345   0.05973
 Alpha virt. eigenvalues --    0.08020   0.08888   0.09681   0.10481   0.11351
 Alpha virt. eigenvalues --    0.12437   0.13316   0.15015   0.15896   0.18973
 Alpha virt. eigenvalues --    0.20881   0.21411   0.23217   0.25629   0.26873
 Alpha virt. eigenvalues --    0.27480   0.29152   0.30020   0.32705   0.34195
 Alpha virt. eigenvalues --    0.34893   0.38455   0.39056   0.39988   0.41132
 Alpha virt. eigenvalues --    0.42154   0.42504   0.42627   0.43359   0.44258
 Alpha virt. eigenvalues --    0.44883   0.45268   0.46197   0.46366   0.46994
 Alpha virt. eigenvalues --    0.47110   0.48192   0.49351   0.49558   0.50732
 Alpha virt. eigenvalues --    0.50930   0.52059   0.55558   0.58538   0.60603
 Alpha virt. eigenvalues --    0.62760   0.63664   0.65539   0.66976   0.69628
 Alpha virt. eigenvalues --    0.72030   0.73059   0.75368   0.76707   0.77414
 Alpha virt. eigenvalues --    0.79207   0.81105   0.83814   0.85509   0.87401
 Alpha virt. eigenvalues --    0.87769   0.89817   0.89925   0.92318   0.95457
 Alpha virt. eigenvalues --    0.96706   0.97326   0.99351   1.00011   1.01152
 Alpha virt. eigenvalues --    1.02711   1.03840   1.05690   1.06350   1.07181
 Alpha virt. eigenvalues --    1.09166   1.10552   1.12004   1.12832   1.13087
 Alpha virt. eigenvalues --    1.14962   1.15932   1.16190   1.18411   1.19338
 Alpha virt. eigenvalues --    1.20869   1.22803   1.23974   1.25015   1.26392
 Alpha virt. eigenvalues --    1.27384   1.28314   1.29896   1.31159   1.31739
 Alpha virt. eigenvalues --    1.32666   1.34902   1.35039   1.37350   1.39598
 Alpha virt. eigenvalues --    1.40677   1.41798   1.44088   1.45037   1.45490
 Alpha virt. eigenvalues --    1.47160   1.49517   1.50523   1.51091   1.53102
 Alpha virt. eigenvalues --    1.56616   1.58087   1.59071   1.60071   1.62882
 Alpha virt. eigenvalues --    1.67594   1.70642   1.72408   1.76763   1.81078
 Alpha virt. eigenvalues --    1.82138   1.85350   1.88449   1.97966   1.98963
 Alpha virt. eigenvalues --    2.03991   2.05596   2.06423   2.09424   2.19649
 Alpha virt. eigenvalues --    2.25488   2.29109   2.30882   2.34281   2.35199
 Alpha virt. eigenvalues --    2.38564   2.42060   2.42663   2.44449   2.46554
 Alpha virt. eigenvalues --    2.47439   2.49188   2.50328   2.52843   2.54344
 Alpha virt. eigenvalues --    2.56460   2.57198   2.57883   2.59309   2.61263
 Alpha virt. eigenvalues --    2.62758   2.63750   2.64586   2.65425   2.66688
 Alpha virt. eigenvalues --    2.68300   2.68905   2.71843   2.73979   2.76882
 Alpha virt. eigenvalues --    2.80527   2.83955   2.85031   2.86755   2.88343
 Alpha virt. eigenvalues --    2.89239   2.90444   2.90519   2.95854   2.97361
 Alpha virt. eigenvalues --    2.98081   2.98915   3.00514   3.00757   3.04417
 Alpha virt. eigenvalues --    3.04728   3.06796   3.07496   3.08692   3.10666
 Alpha virt. eigenvalues --    3.10968   3.12171   3.12904   3.14525   3.17241
 Alpha virt. eigenvalues --    3.17804   3.19096   3.21379   3.21538   3.22182
 Alpha virt. eigenvalues --    3.23184   3.24286   3.27321   3.28904   3.30733
 Alpha virt. eigenvalues --    3.30766   3.33113   3.35060   3.36627   3.36976
 Alpha virt. eigenvalues --    3.38125   3.38510   3.39291   3.42593   3.45001
 Alpha virt. eigenvalues --    3.46581   3.48310   3.50231   3.50936   3.54293
 Alpha virt. eigenvalues --    3.56108   3.59350   3.59712   3.62170   3.63299
 Alpha virt. eigenvalues --    3.64412   3.65455   3.66553   3.67922   3.69025
 Alpha virt. eigenvalues --    3.70401   3.71472   3.72820   3.74526   3.75326
 Alpha virt. eigenvalues --    3.76512   3.78125   3.79142   3.80279   3.82358
 Alpha virt. eigenvalues --    3.83665   3.83970   3.85630   3.87595   3.88768
 Alpha virt. eigenvalues --    3.89616   3.93326   3.94350   3.95922   3.97843
 Alpha virt. eigenvalues --    3.99276   3.99691   4.01968   4.03250   4.04258
 Alpha virt. eigenvalues --    4.05698   4.06335   4.08804   4.09552   4.10581
 Alpha virt. eigenvalues --    4.12027   4.13758   4.14717   4.16480   4.17758
 Alpha virt. eigenvalues --    4.19091   4.20750   4.21767   4.22378   4.24977
 Alpha virt. eigenvalues --    4.26033   4.28427   4.28824   4.31784   4.33768
 Alpha virt. eigenvalues --    4.34662   4.37141   4.40495   4.41017   4.42892
 Alpha virt. eigenvalues --    4.45029   4.46268   4.48884   4.54739   4.55798
 Alpha virt. eigenvalues --    4.59580   4.62173   4.64258   4.65541   4.66996
 Alpha virt. eigenvalues --    4.71034   4.73222   4.77008   4.79282   4.80587
 Alpha virt. eigenvalues --    4.84065   4.85120   4.86785   4.88334   4.89360
 Alpha virt. eigenvalues --    4.92078   4.92745   4.95740   4.96054   4.98023
 Alpha virt. eigenvalues --    4.98696   5.00909   5.05259   5.05871   5.07277
 Alpha virt. eigenvalues --    5.08915   5.11254   5.11983   5.19621   5.22767
 Alpha virt. eigenvalues --    5.24038   5.26574   5.29107   5.32242   5.34126
 Alpha virt. eigenvalues --    5.35335   5.38417   5.40147   5.42660   5.43873
 Alpha virt. eigenvalues --    5.45248   5.46591   5.48201   5.51108   5.52883
 Alpha virt. eigenvalues --    5.56232   5.59711   5.64171   5.65559   5.69083
 Alpha virt. eigenvalues --    5.73819   5.78629   5.88178   5.91638   5.97112
 Alpha virt. eigenvalues --    5.98364   6.03574   6.05388   6.12064   6.15750
 Alpha virt. eigenvalues --    6.34062   6.41882   6.43832   6.50973   6.57433
 Alpha virt. eigenvalues --    6.67239   6.72866   6.76817   6.87021   6.97046
 Alpha virt. eigenvalues --    7.10674   7.19976   7.29297   7.59643  10.67391
 Alpha virt. eigenvalues --   11.08812  11.42335  12.24444  12.65213  12.76808
 Alpha virt. eigenvalues --   12.94312  12.99767
  Beta  occ. eigenvalues --  -19.17552 -19.09592 -10.22855 -10.21411 -10.18953
  Beta  occ. eigenvalues --  -10.18226 -10.18202 -10.18010  -1.08972  -0.91033
  Beta  occ. eigenvalues --   -0.82993  -0.76013  -0.71431  -0.62899  -0.62020
  Beta  occ. eigenvalues --   -0.56349  -0.51693  -0.48520  -0.47286  -0.44613
  Beta  occ. eigenvalues --   -0.43572  -0.42086  -0.40663  -0.37311  -0.36644
  Beta  occ. eigenvalues --   -0.36481  -0.34256  -0.32524  -0.31801  -0.27523
  Beta  occ. eigenvalues --   -0.22914
  Beta virt. eigenvalues --   -0.07154   0.01412   0.03855   0.05359   0.05512
  Beta virt. eigenvalues --    0.06092   0.08138   0.09061   0.09752   0.10549
  Beta virt. eigenvalues --    0.11410   0.12560   0.13437   0.15264   0.15965
  Beta virt. eigenvalues --    0.19045   0.20945   0.21482   0.23252   0.25718
  Beta virt. eigenvalues --    0.26906   0.27579   0.29220   0.30193   0.32813
  Beta virt. eigenvalues --    0.34730   0.35379   0.38757   0.39209   0.40115
  Beta virt. eigenvalues --    0.41204   0.42256   0.42588   0.42987   0.43745
  Beta virt. eigenvalues --    0.44335   0.45037   0.45517   0.46294   0.46456
  Beta virt. eigenvalues --    0.47153   0.47214   0.48266   0.49546   0.49669
  Beta virt. eigenvalues --    0.50864   0.51058   0.52243   0.55845   0.58728
  Beta virt. eigenvalues --    0.60973   0.63482   0.63830   0.65651   0.68066
  Beta virt. eigenvalues --    0.70155   0.72511   0.73595   0.75725   0.76885
  Beta virt. eigenvalues --    0.77612   0.79342   0.81227   0.84165   0.85724
  Beta virt. eigenvalues --    0.87570   0.87972   0.89996   0.90065   0.92606
  Beta virt. eigenvalues --    0.95664   0.96876   0.97601   0.99490   1.00208
  Beta virt. eigenvalues --    1.01261   1.02820   1.03978   1.05831   1.06446
  Beta virt. eigenvalues --    1.07298   1.09262   1.10666   1.12147   1.12985
  Beta virt. eigenvalues --    1.13221   1.15240   1.16072   1.16390   1.18525
  Beta virt. eigenvalues --    1.19540   1.20973   1.23185   1.24116   1.25133
  Beta virt. eigenvalues --    1.26537   1.27515   1.28514   1.30021   1.31530
  Beta virt. eigenvalues --    1.31863   1.32845   1.35046   1.35363   1.37538
  Beta virt. eigenvalues --    1.40167   1.41130   1.41904   1.44263   1.45256
  Beta virt. eigenvalues --    1.45650   1.47390   1.49699   1.50896   1.51232
  Beta virt. eigenvalues --    1.53407   1.57129   1.58617   1.59416   1.60230
  Beta virt. eigenvalues --    1.63273   1.68348   1.71161   1.72665   1.77195
  Beta virt. eigenvalues --    1.81305   1.82714   1.85623   1.88901   1.98726
  Beta virt. eigenvalues --    2.00383   2.04898   2.06241   2.06834   2.09986
  Beta virt. eigenvalues --    2.20027   2.26202   2.29420   2.31003   2.34927
  Beta virt. eigenvalues --    2.35342   2.38710   2.42186   2.42818   2.44638
  Beta virt. eigenvalues --    2.46683   2.47520   2.49456   2.50924   2.53078
  Beta virt. eigenvalues --    2.54556   2.56786   2.57298   2.57980   2.59435
  Beta virt. eigenvalues --    2.61501   2.62850   2.63835   2.64865   2.65860
  Beta virt. eigenvalues --    2.66872   2.68381   2.69224   2.71995   2.74103
  Beta virt. eigenvalues --    2.77129   2.80887   2.84061   2.85270   2.86895
  Beta virt. eigenvalues --    2.88524   2.89495   2.90533   2.90716   2.95928
  Beta virt. eigenvalues --    2.97625   2.98261   2.99045   3.00795   3.00886
  Beta virt. eigenvalues --    3.04550   3.04970   3.07009   3.07622   3.08802
  Beta virt. eigenvalues --    3.10786   3.11304   3.12268   3.13044   3.14679
  Beta virt. eigenvalues --    3.17417   3.18011   3.19307   3.21437   3.21866
  Beta virt. eigenvalues --    3.22567   3.23435   3.24553   3.27582   3.29044
  Beta virt. eigenvalues --    3.30926   3.31064   3.33328   3.35255   3.36737
  Beta virt. eigenvalues --    3.37175   3.38364   3.38631   3.39513   3.42822
  Beta virt. eigenvalues --    3.45465   3.46745   3.48402   3.50388   3.51183
  Beta virt. eigenvalues --    3.54503   3.56482   3.59797   3.60178   3.62545
  Beta virt. eigenvalues --    3.63483   3.64736   3.65582   3.66653   3.68036
  Beta virt. eigenvalues --    3.69110   3.70519   3.71686   3.73178   3.74899
  Beta virt. eigenvalues --    3.75375   3.76694   3.78250   3.79323   3.80686
  Beta virt. eigenvalues --    3.82638   3.83859   3.84174   3.85777   3.87714
  Beta virt. eigenvalues --    3.88869   3.89716   3.93512   3.94474   3.96189
  Beta virt. eigenvalues --    3.98139   3.99335   3.99925   4.02337   4.03332
  Beta virt. eigenvalues --    4.04333   4.05884   4.06558   4.09126   4.09691
  Beta virt. eigenvalues --    4.10761   4.12281   4.13921   4.14902   4.16677
  Beta virt. eigenvalues --    4.17863   4.19195   4.21026   4.21867   4.22715
  Beta virt. eigenvalues --    4.25141   4.26173   4.28627   4.29047   4.31889
  Beta virt. eigenvalues --    4.33887   4.34938   4.37507   4.41079   4.41429
  Beta virt. eigenvalues --    4.43252   4.45504   4.46672   4.49429   4.55121
  Beta virt. eigenvalues --    4.56456   4.59796   4.62338   4.64477   4.65638
  Beta virt. eigenvalues --    4.67268   4.71281   4.73344   4.77283   4.79466
  Beta virt. eigenvalues --    4.80726   4.84306   4.85417   4.87057   4.88653
  Beta virt. eigenvalues --    4.89509   4.92350   4.93862   4.96056   4.96843
  Beta virt. eigenvalues --    4.98605   4.98846   5.01113   5.05487   5.06182
  Beta virt. eigenvalues --    5.07751   5.09036   5.11623   5.14301   5.19997
  Beta virt. eigenvalues --    5.22984   5.24231   5.26855   5.29288   5.32921
  Beta virt. eigenvalues --    5.34715   5.35911   5.38740   5.40693   5.43581
  Beta virt. eigenvalues --    5.44894   5.46682   5.46872   5.48356   5.51573
  Beta virt. eigenvalues --    5.53225   5.56324   5.61990   5.65130   5.66085
  Beta virt. eigenvalues --    5.69652   5.75576   5.79112   5.89013   5.91878
  Beta virt. eigenvalues --    5.97462   5.98485   6.03698   6.05522   6.13175
  Beta virt. eigenvalues --    6.16977   6.36420   6.43098   6.46831   6.55032
  Beta virt. eigenvalues --    6.60574   6.67904   6.76133   6.79575   6.89194
  Beta virt. eigenvalues --    6.98945   7.12500   7.22006   7.30271   7.63011
  Beta virt. eigenvalues --   10.67852  11.10210  11.43483  12.24499  12.65274
  Beta virt. eigenvalues --   12.76928  12.94394  12.99844
          Condensed to atoms (all electrons):
               1          2          3          4          5          6
     1  C    5.133384   0.350866  -0.035125  -0.010104  -0.022978   0.239434
     2  C    0.350866   4.848265   0.289510  -0.013724  -0.006472  -0.101712
     3  C   -0.035125   0.289510   4.984099   0.306632  -0.045601   0.020376
     4  C   -0.010104  -0.013724   0.306632   4.923657   0.341496  -0.055691
     5  C   -0.022978  -0.006472  -0.045601   0.341496   4.911692   0.292550
     6  C    0.239434  -0.101712   0.020376  -0.055691   0.292550   5.083327
     7  H   -0.032059   0.011437  -0.002562   0.009742  -0.028478   0.391537
     8  H   -0.033908  -0.006282   0.001097  -0.007304  -0.033312   0.399608
     9  H   -0.001937  -0.002040  -0.002415  -0.040906   0.407542  -0.032566
    10  H    0.005565  -0.000893   0.008258  -0.038070   0.409895  -0.030214
    11  H    0.000543   0.005314  -0.031145   0.414109  -0.034988   0.006800
    12  H   -0.004128   0.000077  -0.037184   0.396841  -0.037029   0.000228
    13  H    0.002218  -0.024228   0.370589  -0.027844  -0.003048  -0.004361
    14  H    0.005993  -0.038495   0.411605  -0.031511   0.006775  -0.001088
    15  H   -0.034210   0.424336  -0.056005   0.000359   0.000849   0.002463
    16  O    0.060230   0.162225  -0.019538   0.001515   0.000347   0.028337
    17  O    0.011054  -0.001371   0.000256  -0.000110   0.000029  -0.000645
    18  H   -0.001772  -0.006819  -0.000551  -0.000004   0.000024   0.000294
    19  H    0.411963   0.012502   0.006103   0.001007   0.007907  -0.084145
               7          8          9         10         11         12
     1  C   -0.032059  -0.033908  -0.001937   0.005565   0.000543  -0.004128
     2  C    0.011437  -0.006282  -0.002040  -0.000893   0.005314   0.000077
     3  C   -0.002562   0.001097  -0.002415   0.008258  -0.031145  -0.037184
     4  C    0.009742  -0.007304  -0.040906  -0.038070   0.414109   0.396841
     5  C   -0.028478  -0.033312   0.407542   0.409895  -0.034988  -0.037029
     6  C    0.391537   0.399608  -0.032566  -0.030214   0.006800   0.000228
     7  H    0.616316  -0.039597  -0.008422  -0.004216  -0.000289  -0.000308
     8  H   -0.039597   0.607985   0.008383  -0.006043  -0.000371   0.004505
     9  H   -0.008422   0.008383   0.613218  -0.034436  -0.005647   0.008636
    10  H   -0.004216  -0.006043  -0.034436   0.607528  -0.005535  -0.003940
    11  H   -0.000289  -0.000371  -0.005647  -0.005535   0.600246  -0.038233
    12  H   -0.000308   0.004505   0.008636  -0.003940  -0.038233   0.625219
    13  H    0.000267   0.000165   0.004451  -0.000056  -0.007498   0.008016
    14  H    0.000095  -0.000004  -0.000030  -0.000458  -0.004106  -0.004726
    15  H   -0.000186   0.001171   0.000151   0.000081  -0.000821   0.002956
    16  O   -0.002354   0.001652   0.000469   0.000074  -0.000264   0.000059
    17  O   -0.000035   0.000198   0.000030  -0.000000   0.000001  -0.000001
    18  H   -0.000006  -0.000046  -0.000008   0.000000  -0.000001   0.000003
    19  H    0.000483  -0.004515  -0.000355  -0.000653   0.000145  -0.000426
              13         14         15         16         17         18
     1  C    0.002218   0.005993  -0.034210   0.060230   0.011054  -0.001772
     2  C   -0.024228  -0.038495   0.424336   0.162225  -0.001371  -0.006819
     3  C    0.370589   0.411605  -0.056005  -0.019538   0.000256  -0.000551
     4  C   -0.027844  -0.031511   0.000359   0.001515  -0.000110  -0.000004
     5  C   -0.003048   0.006775   0.000849   0.000347   0.000029   0.000024
     6  C   -0.004361  -0.001088   0.002463   0.028337  -0.000645   0.000294
     7  H    0.000267   0.000095  -0.000186  -0.002354  -0.000035  -0.000006
     8  H    0.000165  -0.000004   0.001171   0.001652   0.000198  -0.000046
     9  H    0.004451  -0.000030   0.000151   0.000469   0.000030  -0.000008
    10  H   -0.000056  -0.000458   0.000081   0.000074  -0.000000   0.000000
    11  H   -0.007498  -0.004106  -0.000821  -0.000264   0.000001  -0.000001
    12  H    0.008016  -0.004726   0.002956   0.000059  -0.000001   0.000003
    13  H    0.607841  -0.027682   0.008152   0.006462   0.000372   0.000047
    14  H   -0.027682   0.585415  -0.005443   0.000037   0.000756  -0.000067
    15  H    0.008152  -0.005443   0.579711  -0.027674   0.009299  -0.000447
    16  O    0.006462   0.000037  -0.027674   8.226141  -0.134577   0.007677
    17  O    0.000372   0.000756   0.009299  -0.134577   8.130833   0.287761
    18  H    0.000047  -0.000067  -0.000447   0.007677   0.287761   0.522544
    19  H    0.000190  -0.000245  -0.005204  -0.116935   0.026371  -0.003042
              19
     1  C    0.411963
     2  C    0.012502
     3  C    0.006103
     4  C    0.001007
     5  C    0.007907
     6  C   -0.084145
     7  H    0.000483
     8  H   -0.004515
     9  H   -0.000355
    10  H   -0.000653
    11  H    0.000145
    12  H   -0.000426
    13  H    0.000190
    14  H   -0.000245
    15  H   -0.005204
    16  O   -0.116935
    17  O    0.026371
    18  H   -0.003042
    19  H    0.656425
          Atomic-Atomic Spin Densities.
               1          2          3          4          5          6
     1  C    0.208881  -0.004025  -0.015100  -0.002172   0.004347  -0.018537
     2  C   -0.004025  -0.037266   0.016834   0.001072  -0.001746   0.005434
     3  C   -0.015100   0.016834   0.018011   0.003734  -0.001948   0.003533
     4  C   -0.002172   0.001072   0.003734  -0.003171  -0.002988   0.006366
     5  C    0.004347  -0.001746  -0.001948  -0.002988   0.002093  -0.006683
     6  C   -0.018537   0.005434   0.003533   0.006366  -0.006683   0.047896
     7  H   -0.002689  -0.000188   0.000143  -0.000038  -0.000314   0.005480
     8  H   -0.000201  -0.000182  -0.000790  -0.002090   0.005301  -0.018433
     9  H    0.002450  -0.000137  -0.001018  -0.000260   0.000948  -0.003060
    10  H   -0.000137   0.000019  -0.000004   0.000666  -0.000177   0.000378
    11  H   -0.000442   0.000299   0.000688   0.000752  -0.000817   0.000627
    12  H    0.000365  -0.000645  -0.000436  -0.000394   0.000942  -0.001109
    13  H    0.004059  -0.001598  -0.002649  -0.000388   0.000682  -0.001116
    14  H    0.001012  -0.001562  -0.003750  -0.000089   0.000551  -0.000490
    15  H    0.001199  -0.000819  -0.004427  -0.001133   0.000853  -0.003083
    16  O   -0.034829   0.012112   0.001170   0.000029  -0.000224   0.003223
    17  O    0.015939  -0.009720  -0.002774  -0.000074   0.000174  -0.002278
    18  H   -0.002147   0.000911   0.000401   0.000007  -0.000036   0.000374
    19  H    0.018284   0.000258  -0.001592  -0.000207   0.000698  -0.007602
               7          8          9         10         11         12
     1  C   -0.002689  -0.000201   0.002450  -0.000137  -0.000442   0.000365
     2  C   -0.000188  -0.000182  -0.000137   0.000019   0.000299  -0.000645
     3  C    0.000143  -0.000790  -0.001018  -0.000004   0.000688  -0.000436
     4  C   -0.000038  -0.002090  -0.000260   0.000666   0.000752  -0.000394
     5  C   -0.000314   0.005301   0.000948  -0.000177  -0.000817   0.000942
     6  C    0.005480  -0.018433  -0.003060   0.000378   0.000627  -0.001109
     7  H   -0.000146  -0.001995  -0.000219   0.000145   0.000007  -0.000010
     8  H   -0.001995   0.031297   0.000708  -0.000503  -0.000202   0.000577
     9  H   -0.000219   0.000708   0.001321  -0.000397  -0.000378   0.000105
    10  H    0.000145  -0.000503  -0.000397  -0.000180   0.000146  -0.000119
    11  H    0.000007  -0.000202  -0.000378   0.000146   0.001470  -0.000408
    12  H   -0.000010   0.000577   0.000105  -0.000119  -0.000408   0.000341
    13  H   -0.000049   0.000195   0.000508  -0.000013  -0.000474   0.000168
    14  H   -0.000005   0.000102   0.000108  -0.000011  -0.000577   0.000321
    15  H   -0.000064   0.001291   0.000102  -0.000004  -0.000139   0.000489
    16  O    0.000130  -0.000731   0.000179  -0.000006  -0.000012  -0.000019
    17  O   -0.000017   0.000273   0.000028  -0.000001  -0.000008   0.000021
    18  H    0.000007  -0.000052  -0.000007   0.000000   0.000002  -0.000003
    19  H   -0.000373   0.002084   0.000140   0.000004  -0.000023   0.000048
              13         14         15         16         17         18
     1  C    0.004059   0.001012   0.001199  -0.034829   0.015939  -0.002147
     2  C   -0.001598  -0.001562  -0.000819   0.012112  -0.009720   0.000911
     3  C   -0.002649  -0.003750  -0.004427   0.001170  -0.002774   0.000401
     4  C   -0.000388  -0.000089  -0.001133   0.000029  -0.000074   0.000007
     5  C    0.000682   0.000551   0.000853  -0.000224   0.000174  -0.000036
     6  C   -0.001116  -0.000490  -0.003083   0.003223  -0.002278   0.000374
     7  H   -0.000049  -0.000005  -0.000064   0.000130  -0.000017   0.000007
     8  H    0.000195   0.000102   0.001291  -0.000731   0.000273  -0.000052
     9  H    0.000508   0.000108   0.000102   0.000179   0.000028  -0.000007
    10  H   -0.000013  -0.000011  -0.000004  -0.000006  -0.000001   0.000000
    11  H   -0.000474  -0.000577  -0.000139  -0.000012  -0.000008   0.000002
    12  H    0.000168   0.000321   0.000489  -0.000019   0.000021  -0.000003
    13  H   -0.000496   0.001350   0.000517  -0.000300   0.000844  -0.000117
    14  H    0.001350   0.004537   0.001556  -0.000184   0.000452  -0.000050
    15  H    0.000517   0.001556   0.018214  -0.009689   0.008073  -0.000951
    16  O   -0.000300  -0.000184  -0.009689   0.377417  -0.223190   0.014993
    17  O    0.000844   0.000452   0.008073  -0.223190   0.884239  -0.006387
    18  H   -0.000117  -0.000050  -0.000951   0.014993  -0.006387  -0.017487
    19  H    0.000218   0.000087   0.001437  -0.016911   0.008255  -0.001086
              19
     1  C    0.018284
     2  C    0.000258
     3  C   -0.001592
     4  C   -0.000207
     5  C    0.000698
     6  C   -0.007602
     7  H   -0.000373
     8  H    0.002084
     9  H    0.000140
    10  H    0.000004
    11  H   -0.000023
    12  H    0.000048
    13  H    0.000218
    14  H    0.000087
    15  H    0.001437
    16  O   -0.016911
    17  O    0.008255
    18  H   -0.001086
    19  H   -0.002866
 Mulliken charges and spin densities:
               1          2
     1  C   -0.045029   0.176257
     2  C    0.097506  -0.020949
     3  C   -0.168398   0.010027
     4  C   -0.170090  -0.000375
     5  C   -0.167200   0.001656
     6  C   -0.154531   0.010918
     7  H    0.088634  -0.000195
     8  H    0.106619   0.016649
     9  H    0.085882   0.001122
    10  H    0.093113  -0.000196
    11  H    0.101741   0.000510
    12  H    0.079435   0.000233
    13  H    0.085946   0.001341
    14  H    0.103179   0.003355
    15  H    0.100460   0.013420
    16  O   -0.193883   0.123155
    17  O   -0.330219   0.673849
    18  H    0.194413  -0.011629
    19  H    0.092423   0.000853
 Sum of Mulliken charges =  -0.00000   1.00000
 Mulliken charges and spin densities with hydrogens summed into heavy atoms:
               1          2
     1  C    0.047394   0.177110
     2  C    0.197966  -0.007529
     3  C    0.020727   0.014722
     4  C    0.011085   0.000367
     5  C    0.011795   0.002582
     6  C    0.040722   0.027372
    16  O   -0.193883   0.123155
    17  O   -0.135806   0.662220
 APT charges:
               1
     1  C   -0.363651
     2  C   -0.291549
     3  C   -0.673627
     4  C   -0.800559
     5  C   -0.856779
     6  C   -0.719306
     7  H    0.427068
     8  H    0.401780
     9  H    0.301998
    10  H    0.544076
    11  H    0.528632
    12  H    0.304366
    13  H    0.264180
    14  H    0.440595
    15  H    0.335624
    16  O    0.161627
    17  O   -0.852177
    18  H    0.504794
    19  H    0.342909
 Sum of APT charges =  -0.00000
 APT charges with hydrogens summed into heavy atoms:
               1
     1  C   -0.020742
     2  C    0.044075
     3  C    0.031147
     4  C    0.032439
     5  C   -0.010706
     6  C    0.109542
    16  O    0.161627
    17  O   -0.347383
 Electronic spatial extent (au):  <R**2>=           1052.6068
 Charge=             -0.0000 electrons
 Dipole moment (field-independent basis, Debye):
    X=             -2.6917    Y=             -0.7519    Z=             -0.2196  Tot=              2.8034
 Quadrupole moment (field-independent basis, Debye-Ang):
   XX=            -52.6837   YY=            -47.4791   ZZ=            -49.7924
   XY=             -2.9956   XZ=             -2.8597   YZ=              0.8240
 Traceless Quadrupole moment (field-independent basis, Debye-Ang):
   XX=             -2.6986   YY=              2.5060   ZZ=              0.1926
   XY=             -2.9956   XZ=             -2.8597   YZ=              0.8240
 Octapole moment (field-independent basis, Debye-Ang**2):
  XXX=             12.6924  YYY=             -0.2760  ZZZ=             -0.5083  XYY=              5.7755
  XXY=            -12.0975  XXZ=            -10.5961  XZZ=              3.7457  YZZ=              0.4998
  YYZ=             -1.0962  XYZ=              3.4852
 Hexadecapole moment (field-independent basis, Debye-Ang**3):
 XXXX=           -867.5872 YYYY=           -354.5929 ZZZZ=           -112.4497 XXXY=            -39.2392
 XXXZ=            -41.7586 YYYX=             -2.1705 YYYZ=              4.2425 ZZZX=             -2.8851
 ZZZY=              0.9742 XXYY=           -203.5848 XXZZ=           -168.6718 YYZZ=            -79.0769
 XXYZ=              3.9204 YYXZ=             -2.2700 ZZXY=              1.4531
 N-N= 4.023170601909D+02 E-N=-1.704994353429D+03  KE= 3.836328710791D+02
  Exact polarizability:   0.000   0.000   0.000   0.000   0.000   0.000
 Approx polarizability: 146.677  12.728 114.969  -4.885   2.776 102.357
                          Isotropic Fermi Contact Couplings
        Atom                 a.u.       MegaHertz       Gauss      10(-4) cm-1
     1  C(13)              0.04509      50.69407      18.08890      16.90972
     2  C(13)             -0.01023     -11.50140      -4.10399      -3.83645
     3  C(13)              0.01519      17.07130       6.09147       5.69437
     4  C(13)             -0.00106      -1.19501      -0.42641      -0.39861
     5  C(13)             -0.00069      -0.78081      -0.27861      -0.26045
     6  C(13)              0.01342      15.08466       5.38258       5.03170
     7  H(1)               0.00043       1.92031       0.68522       0.64055
     8  H(1)               0.00619      27.65783       9.86900       9.22566
     9  H(1)              -0.00005      -0.24568      -0.08766      -0.08195
    10  H(1)               0.00000       0.00818       0.00292       0.00273
    11  H(1)               0.00032       1.43798       0.51311       0.47966
    12  H(1)               0.00001       0.04157       0.01483       0.01387
    13  H(1)              -0.00005      -0.21382      -0.07630      -0.07132
    14  H(1)               0.00085       3.80334       1.35713       1.26866
    15  H(1)               0.00562      25.10979       8.95980       8.37572
    16  O(17)              0.56308    -341.33764    -121.79776    -113.85798
    17  O(17)              0.12387     -75.09140     -26.79448     -25.04779
    18  H(1)              -0.00954     -42.65348     -15.21982     -14.22767
    19  H(1)               0.00017       0.75039       0.26776       0.25030
 --------------------------------------------------------
       Center         ----  Spin Dipole Couplings  ----
                      3XX-RR        3YY-RR        3ZZ-RR
 --------------------------------------------------------
     1   Atom       -0.076340     -0.100199      0.176539
     2   Atom        0.005379      0.003635     -0.009014
     3   Atom        0.008822      0.004595     -0.013417
     4   Atom        0.002059     -0.000285     -0.001774
     5   Atom        0.004340     -0.001418     -0.002922
     6   Atom        0.026940     -0.011752     -0.015189
     7   Atom        0.001434      0.002019     -0.003453
     8   Atom        0.002036     -0.003233      0.001197
     9   Atom        0.003571     -0.002204     -0.001368
    10   Atom        0.002641     -0.001417     -0.001224
    11   Atom        0.001615     -0.000399     -0.001216
    12   Atom        0.001827     -0.000652     -0.001175
    13   Atom        0.000121      0.000304     -0.000425
    14   Atom        0.000561      0.002765     -0.003326
    15   Atom        0.005949     -0.004800     -0.001150
    16   Atom       -0.139201     -0.220139      0.359340
    17   Atom        1.986771     -1.064690     -0.922081
    18   Atom        0.019147     -0.012842     -0.006306
    19   Atom        0.002329      0.009877     -0.012205
 --------------------------------------------------------
                        XY            XZ            YZ
 --------------------------------------------------------
     1   Atom        0.019465     -0.077549     -0.040431
     2   Atom       -0.017137     -0.001603      0.010958
     3   Atom       -0.020049      0.000534     -0.000499
     4   Atom       -0.002951     -0.000825      0.000701
     5   Atom       -0.000069      0.000131      0.000425
     6   Atom        0.017364     -0.014558     -0.004676
     7   Atom        0.006042      0.000717      0.001587
     8   Atom        0.002658     -0.001882     -0.001790
     9   Atom       -0.000231      0.002122     -0.000380
    10   Atom       -0.000109      0.000014     -0.000167
    11   Atom       -0.001312      0.000015     -0.000037
    12   Atom       -0.001386     -0.001535      0.000708
    13   Atom       -0.004215      0.003507     -0.003058
    14   Atom       -0.002851      0.000225      0.001071
    15   Atom       -0.004981     -0.009959      0.007496
    16   Atom       -0.474211      0.471850     -0.365502
    17   Atom        1.130309      1.329850      0.458455
    18   Atom       -0.053317     -0.051844      0.087493
    19   Atom       -0.000066      0.009109     -0.012246
 --------------------------------------------------------


 ---------------------------------------------------------------------------------
              Anisotropic Spin Dipole Couplings in Principal Axis System
 ---------------------------------------------------------------------------------

       Atom             a.u.   MegaHertz   Gauss  10(-4) cm-1        Axes

              Baa    -0.1112   -14.916    -5.322    -4.975 -0.5242  0.8513 -0.0217
     1 C(13)  Bbb    -0.0937   -12.571    -4.486    -4.193  0.8069  0.5046  0.3071
              Bcc     0.2048    27.487     9.808     9.169 -0.2723 -0.1435  0.9514
 
              Baa    -0.0187    -2.505    -0.894    -0.836 -0.4097 -0.6361  0.6539
     2 C(13)  Bbb    -0.0054    -0.722    -0.258    -0.241  0.6251  0.3263  0.7090
              Bcc     0.0241     3.228     1.152     1.077 -0.6644  0.6993  0.2639
 
              Baa    -0.0135    -1.806    -0.644    -0.602  0.5947  0.6726  0.4405
     3 C(13)  Bbb    -0.0134    -1.801    -0.643    -0.601 -0.3068 -0.3165  0.8976
              Bcc     0.0269     3.607     1.287     1.203  0.7431 -0.6689  0.0181
 
              Baa    -0.0023    -0.312    -0.111    -0.104  0.4933  0.8166 -0.2997
     4 C(13)  Bbb    -0.0019    -0.259    -0.092    -0.086  0.3100  0.1569  0.9377
              Bcc     0.0043     0.571     0.204     0.190  0.8127 -0.5555 -0.1757
 
              Baa    -0.0030    -0.408    -0.145    -0.136 -0.0195 -0.2547  0.9668
     5 C(13)  Bbb    -0.0013    -0.175    -0.063    -0.058  0.0058  0.9670  0.2549
              Bcc     0.0043     0.583     0.208     0.194  0.9998 -0.0106  0.0174
 
              Baa    -0.0200    -2.682    -0.957    -0.895  0.3905 -0.3369  0.8567
     6 C(13)  Bbb    -0.0180    -2.414    -0.861    -0.805 -0.1982  0.8780  0.4356
              Bcc     0.0380     5.096     1.818     1.700  0.8990  0.3399 -0.2761
 
              Baa    -0.0047    -2.485    -0.887    -0.829 -0.5784  0.6428 -0.5022
     7 H(1)   Bbb    -0.0034    -1.790    -0.639    -0.597 -0.4536  0.2582  0.8530
              Bcc     0.0080     4.275     1.525     1.426  0.6780  0.7212  0.1422
 
              Baa    -0.0045    -2.409    -0.860    -0.804 -0.3236  0.9281  0.1842
     8 H(1)   Bbb    -0.0003    -0.159    -0.057    -0.053  0.5935  0.0475  0.8034
              Bcc     0.0048     2.568     0.916     0.857  0.7369  0.3693 -0.5662
 
              Baa    -0.0025    -1.315    -0.469    -0.439 -0.1942  0.7483  0.6343
     9 H(1)   Bbb    -0.0019    -1.019    -0.364    -0.340 -0.2949 -0.6612  0.6898
              Bcc     0.0044     2.335     0.833     0.779  0.9356 -0.0530  0.3491
 
              Baa    -0.0015    -0.809    -0.289    -0.270  0.0211  0.8673  0.4974
    10 H(1)   Bbb    -0.0011    -0.602    -0.215    -0.201 -0.0177 -0.4971  0.8675
              Bcc     0.0026     1.411     0.503     0.471  0.9996 -0.0271  0.0048
 
              Baa    -0.0012    -0.651    -0.232    -0.217  0.0598  0.1406  0.9883
    11 H(1)   Bbb    -0.0010    -0.556    -0.198    -0.185  0.4382  0.8858 -0.1525
              Bcc     0.0023     1.207     0.431     0.403  0.8969 -0.4422  0.0086
 
              Baa    -0.0018    -0.983    -0.351    -0.328  0.3217 -0.1786  0.9298
    12 H(1)   Bbb    -0.0013    -0.678    -0.242    -0.226  0.4200  0.9070  0.0290
              Bcc     0.0031     1.661     0.593     0.554  0.8486 -0.3812 -0.3668
 
              Baa    -0.0041    -2.197    -0.784    -0.733  0.7853  0.5444 -0.2949
    13 H(1)   Bbb    -0.0031    -1.666    -0.594    -0.556 -0.1054  0.5869  0.8028
              Bcc     0.0072     3.863     1.378     1.288  0.6101 -0.5993  0.5183
 
              Baa    -0.0037    -1.958    -0.699    -0.653 -0.2221 -0.2551  0.9411
    14 H(1)   Bbb    -0.0011    -0.599    -0.214    -0.200  0.8030  0.4995  0.3250
              Bcc     0.0048     2.556     0.912     0.853 -0.5530  0.8279  0.0939
 
              Baa    -0.0112    -5.979    -2.133    -1.994  0.2222 -0.6634  0.7145
    15 H(1)   Bbb    -0.0052    -2.754    -0.983    -0.919  0.6486  0.6478  0.3997
              Bcc     0.0164     8.733     3.116     2.913  0.7280 -0.3747 -0.5742
 
              Baa    -0.6594    47.717    17.027    15.917  0.7088  0.7013 -0.0767
    16 O(17)  Bbb    -0.2648    19.159     6.837     6.391 -0.4747  0.5545  0.6836
              Bcc     0.9242   -66.877   -23.863   -22.308  0.5219 -0.4481  0.7259
 
              Baa    -1.4576   105.472    37.635    35.182  0.0404  0.7072 -0.7058
    17 O(17)  Bbb    -1.4225   102.934    36.729    34.335 -0.4539  0.6423  0.6176
              Bcc     2.8802  -208.407   -74.365   -69.517  0.8902  0.2954  0.3470
 
              Baa    -0.0972   -51.860   -18.505   -17.299  0.0286  0.7283 -0.6847
    18 H(1)   Bbb    -0.0313   -16.706    -5.961    -5.573  0.8265  0.3680  0.4260
              Bcc     0.1285    68.567    24.466    22.871 -0.5622  0.5781  0.5914
 
              Baa    -0.0207   -11.041    -3.940    -3.683 -0.3440  0.3485  0.8719
    19 H(1)   Bbb     0.0042     2.243     0.800     0.748  0.8914  0.4131  0.1865
              Bcc     0.0165     8.798     3.139     2.935 -0.2952  0.8414 -0.4528
 

 ---------------------------------------------------------------------------------

 Calling FoFJK, ICntrl=    100147 FMM=F ISym2X=0 I1Cent= 0 IOpClX= 1 NMat=1 NMatS=1 NMatT=0.
 ***** Axes restored to original set *****
 -------------------------------------------------------------------
 Center     Atomic                   Forces (Hartrees/Bohr)
 Number     Number              X              Y              Z
 -------------------------------------------------------------------
      1        6           0.004905927    0.047503079    0.038821409
      2        6           0.024401492    0.009801118    0.037531955
      3        6          -0.006176012    0.002505933   -0.009669749
      4        6          -0.000420312   -0.000078725    0.001119698
      5        6           0.002947231    0.000652456    0.000144173
      6        6           0.020288173   -0.003009904   -0.039716932
      7        1           0.002627783    0.000404844   -0.000327769
      8        1          -0.013102487   -0.003735825   -0.001863411
      9        1           0.000369901    0.000273184    0.000181858
     10        1           0.000286519   -0.000384402   -0.000027843
     11        1          -0.000159007    0.000187128    0.000052430
     12        1           0.000076355   -0.000130432    0.000003950
     13        1           0.000724233   -0.001231073   -0.000191094
     14        1           0.000099743    0.000330974    0.000047206
     15        1          -0.019288659   -0.001416251   -0.013055856
     16        8           0.051369626   -0.083132758   -0.094533549
     17        8          -0.077473037    0.006110576    0.025033831
     18        1          -0.013184097   -0.002751863    0.006714604
     19        1           0.021706627    0.028101943    0.049735091
 -------------------------------------------------------------------
 Cartesian Forces:  Max     0.094533549 RMS     0.025783019
 FormGI is forming the generalized inverse of G from B-inverse, IUseBI=4.

 GradGradGradGradGradGradGradGradGradGradGradGradGradGradGradGradGradGrad
 Berny optimization.
 Internal  Forces:  Max     0.093371317 RMS     0.015653591
 Search for a saddle point.
 Step number   1 out of a maximum of  114
 All quantities printed in internal units (Hartrees-Bohrs-Radians)
 Swapping is turned off.
 Second derivative matrix not updated -- analytic derivatives used.
 ITU=  0
     Eigenvalues ---   -0.06829   0.00208   0.00446   0.00524   0.00612
     Eigenvalues ---    0.00979   0.01303   0.02080   0.02572   0.02833
     Eigenvalues ---    0.03423   0.03606   0.03855   0.03902   0.04176
     Eigenvalues ---    0.04394   0.05279   0.05601   0.06055   0.06381
     Eigenvalues ---    0.06673   0.07034   0.07201   0.07454   0.08402
     Eigenvalues ---    0.09219   0.10098   0.10167   0.12251   0.15274
     Eigenvalues ---    0.19198   0.21506   0.22411   0.24089   0.24897
     Eigenvalues ---    0.25447   0.27842   0.28440   0.29171   0.30594
     Eigenvalues ---    0.31228   0.32042   0.32278   0.32382   0.32838
     Eigenvalues ---    0.33006   0.33231   0.33511   0.33803   0.34941
     Eigenvalues ---    0.50999
 Eigenvectors required to have negative eigenvalues:
                          R3        R19       D22       A35       A3
   1                   -0.53904   0.42919  -0.22238  -0.21211  -0.20031
                          D4        D23       D24       D15       D25
   1                    0.18974  -0.18680  -0.18644   0.17292   0.17039
 RFO step:  Lambda0=1.001650849D-02 Lambda=-8.42274997D-02.
 Linear search not attempted -- option 19 set.
 Maximum step size (   0.300) exceeded in Quadratic search.
    -- Step size scaled by   0.551
 Iteration  1 RMS(Cart)=  0.06689461 RMS(Int)=  0.00391302
 Iteration  2 RMS(Cart)=  0.00622256 RMS(Int)=  0.00077676
 Iteration  3 RMS(Cart)=  0.00002282 RMS(Int)=  0.00077662
 Iteration  4 RMS(Cart)=  0.00000002 RMS(Int)=  0.00077662
 Variable       Old X    -DE/DX   Delta X   Delta X   Delta X     New X
                                 (Linear)    (Quad)   (Total)
    R1        2.72428   0.00561   0.00000  -0.00754  -0.00845   2.71584
    R2        2.82564   0.00563   0.00000  -0.00910  -0.00943   2.81621
    R3        2.95678   0.07131   0.00000   0.24306   0.24220   3.19897
    R4        2.04242   0.00468   0.00000  -0.01309  -0.01309   2.02933
    R5        2.89307   0.00265   0.00000   0.01414   0.01371   2.90678
    R6        2.07433  -0.00648   0.00000  -0.00379  -0.00379   2.07054
    R7        2.66272   0.01085   0.00000   0.00015   0.00122   2.66393
    R8        2.89512   0.00218   0.00000   0.00181   0.00203   2.89715
    R9        2.06477   0.00024   0.00000  -0.00141  -0.00141   2.06336
   R10        2.06041  -0.00030   0.00000   0.00050   0.00050   2.06091
   R11        2.89358   0.00186   0.00000   0.00182   0.00271   2.89629
   R12        2.06280  -0.00025   0.00000  -0.00017  -0.00017   2.06263
   R13        2.07000   0.00000   0.00000   0.00006   0.00006   2.07006
   R14        2.90622  -0.00311   0.00000  -0.00309  -0.00263   2.90359
   R15        2.06690  -0.00021   0.00000  -0.00056  -0.00056   2.06634
   R16        2.06302   0.00017   0.00000  -0.00037  -0.00037   2.06265
   R17        2.06477   0.00094   0.00000  -0.00037  -0.00037   2.06440
   R18        2.08700  -0.00562   0.00000  -0.00337  -0.00337   2.08364
   R19        3.17387   0.09337   0.00000   0.04966   0.04966   3.22353
   R20        1.82567  -0.00108   0.00000   0.00059   0.00059   1.82626
    A1        2.13163   0.00932   0.00000   0.04026   0.04100   2.17263
    A2        2.03604   0.01006   0.00000  -0.03522  -0.03656   1.99948
    A3        2.71621  -0.04458   0.00000  -0.04800  -0.04799   2.66822
    A4        2.07155  -0.01925   0.00000   0.00389   0.00403   2.07559
    A5        1.32078   0.05038   0.00000   0.03291   0.03370   1.35448
    A6        1.98958  -0.01146   0.00000  -0.03004  -0.02949   1.96009
    A7        2.02746   0.00013   0.00000   0.02136   0.02142   2.04889
    A8        1.92454   0.01209   0.00000   0.00954   0.00867   1.93321
    A9        2.09731  -0.05001   0.00000  -0.06569  -0.06973   2.02758
   A10        2.13892   0.02574   0.00000  -0.00266  -0.00559   2.13333
   A11        1.92574   0.00771   0.00000   0.01587   0.01521   1.94096
   A12        1.88737   0.00131   0.00000  -0.00344  -0.00346   1.88390
   A13        1.91617  -0.00531   0.00000  -0.00408  -0.00365   1.91252
   A14        1.90793  -0.00474   0.00000  -0.00256  -0.00260   1.90533
   A15        1.95173  -0.00016   0.00000  -0.00688  -0.00648   1.94525
   A16        1.87306   0.00102   0.00000   0.00068   0.00055   1.87361
   A17        1.93571   0.00008   0.00000   0.00071   0.00080   1.93651
   A18        1.91228   0.00079   0.00000  -0.00125  -0.00145   1.91084
   A19        1.91722  -0.00082   0.00000   0.00092   0.00104   1.91826
   A20        1.92564  -0.00246   0.00000  -0.00379  -0.00361   1.92203
   A21        1.91434   0.00244   0.00000   0.00416   0.00391   1.91825
   A22        1.85707  -0.00003   0.00000  -0.00080  -0.00078   1.85629
   A23        1.94489  -0.00245   0.00000  -0.00650  -0.00682   1.93807
   A24        1.89920   0.00063   0.00000  -0.00016  -0.00004   1.89916
   A25        1.92713   0.00074   0.00000   0.00394   0.00400   1.93113
   A26        1.90688  -0.00012   0.00000  -0.00178  -0.00154   1.90533
   A27        1.91966   0.00179   0.00000   0.00522   0.00518   1.92484
   A28        1.86409  -0.00052   0.00000  -0.00058  -0.00063   1.86346
   A29        1.95929   0.00188   0.00000  -0.00004  -0.00076   1.95853
   A30        1.93623   0.00427   0.00000   0.00780   0.00796   1.94419
   A31        1.91130  -0.01135   0.00000  -0.02441  -0.02413   1.88717
   A32        1.92998  -0.00172   0.00000   0.00316   0.00372   1.93370
   A33        1.88608   0.00492   0.00000   0.00904   0.00875   1.89483
   A34        1.83614   0.00181   0.00000   0.00428   0.00417   1.84030
   A35        2.12658   0.00411   0.00000   0.08491   0.08608   2.21266
   A36        1.68568   0.00594   0.00000   0.05693   0.05971   1.74539
   A37        1.50023   0.02728   0.00000   0.06111   0.06111   1.56134
    D1       -0.64392   0.01223   0.00000   0.03903   0.03938  -0.60454
    D2        1.62288   0.01878   0.00000   0.04401   0.04331   1.66620
    D3        2.81628   0.01529   0.00000   0.00769   0.00818   2.82446
    D4       -1.20010   0.02183   0.00000   0.01266   0.01211  -1.18799
    D5        0.61818  -0.00761   0.00000  -0.02650  -0.02759   0.59059
    D6        2.78731  -0.00524   0.00000  -0.01649  -0.01719   2.77012
    D7       -1.47676  -0.00732   0.00000  -0.02130  -0.02195  -1.49871
    D8       -0.72526   0.00723   0.00000   0.01758   0.01749  -0.70777
    D9        1.44387   0.00960   0.00000   0.02759   0.02790   1.47177
   D10       -2.82020   0.00751   0.00000   0.02277   0.02314  -2.79707
   D11       -2.84823  -0.00548   0.00000  -0.00117  -0.00177  -2.84999
   D12       -0.67909  -0.00310   0.00000   0.00884   0.00864  -0.67046
   D13        1.34001  -0.00519   0.00000   0.00403   0.00388   1.34389
   D14        2.96188   0.01514   0.00000  -0.01662  -0.01802   2.94386
   D15       -1.05984   0.02743   0.00000   0.01010   0.00830  -1.05154
   D16        0.81341  -0.00590   0.00000  -0.02517  -0.02541   0.78800
   D17       -1.27250  -0.00546   0.00000  -0.02926  -0.02907  -1.30157
   D18        2.97225  -0.00450   0.00000  -0.02588  -0.02578   2.94647
   D19       -1.50365  -0.00706   0.00000  -0.03720  -0.03703  -1.54068
   D20        2.69362  -0.00661   0.00000  -0.04129  -0.04068   2.65294
   D21        0.65520  -0.00566   0.00000  -0.03791  -0.03740   0.61780
   D22        2.13695   0.00608   0.00000   0.07126   0.07005   2.20700
   D23        0.05104   0.00653   0.00000   0.06717   0.06640   0.11744
   D24       -1.98739   0.00748   0.00000   0.07055   0.06968  -1.91771
   D25        2.28907  -0.01981   0.00000  -0.11777  -0.11482   2.17425
   D26       -0.29087   0.00289   0.00000   0.00417   0.00468  -0.28619
   D27       -1.02102  -0.00516   0.00000  -0.00975  -0.00923  -1.03025
   D28        3.13219  -0.00264   0.00000  -0.00461  -0.00426   3.12793
   D29        1.09809  -0.00259   0.00000  -0.00345  -0.00308   1.09501
   D30        1.05240  -0.00182   0.00000  -0.00595  -0.00587   1.04653
   D31       -1.07758   0.00070   0.00000  -0.00081  -0.00089  -1.07848
   D32       -3.11168   0.00075   0.00000   0.00035   0.00028  -3.11140
   D33        3.12405  -0.00372   0.00000  -0.01103  -0.01083   3.11323
   D34        0.99407  -0.00121   0.00000  -0.00589  -0.00585   0.98821
   D35       -1.04003  -0.00116   0.00000  -0.00473  -0.00467  -1.04471
   D36        1.01462  -0.00096   0.00000  -0.00180  -0.00149   1.01314
   D37       -1.08911   0.00031   0.00000   0.00459   0.00470  -1.08441
   D38       -3.12974   0.00015   0.00000   0.00314   0.00320  -3.12654
   D39        3.13680  -0.00158   0.00000  -0.00547  -0.00521   3.13159
   D40        1.03307  -0.00031   0.00000   0.00092   0.00098   1.03404
   D41       -1.00756  -0.00047   0.00000  -0.00053  -0.00052  -1.00809
   D42       -1.10617  -0.00161   0.00000  -0.00620  -0.00595  -1.11212
   D43        3.07328  -0.00034   0.00000   0.00019   0.00023   3.07352
   D44        1.03266  -0.00050   0.00000  -0.00126  -0.00127   1.03139
   D45       -0.77307   0.00588   0.00000   0.02125   0.02124  -0.75183
   D46       -2.94567   0.00021   0.00000   0.00869   0.00853  -2.93714
   D47        1.33647  -0.00380   0.00000  -0.00317  -0.00347   1.33299
   D48        1.32615   0.00504   0.00000   0.01576   0.01590   1.34204
   D49       -0.84645  -0.00063   0.00000   0.00320   0.00319  -0.84326
   D50       -2.84750  -0.00465   0.00000  -0.00866  -0.00882  -2.85632
   D51       -2.91619   0.00537   0.00000   0.01703   0.01722  -2.89897
   D52        1.19440  -0.00030   0.00000   0.00447   0.00451   1.19891
   D53       -0.80665  -0.00431   0.00000  -0.00739  -0.00750  -0.81414
   D54        1.99963   0.00954   0.00000   0.02910   0.02963   2.02926
   D55        2.97447  -0.00688   0.00000  -0.02815  -0.02867   2.94580
         Item               Value     Threshold  Converged?
 Maximum Force            0.093371     0.000450     NO 
 RMS     Force            0.015654     0.000300     NO 
 Maximum Displacement     0.290001     0.001800     NO 
 RMS     Displacement     0.072077     0.001200     NO 
 Predicted change in Energy=-3.344794D-02
 GradGradGradGradGradGradGradGradGradGradGradGradGradGradGradGradGradGrad

[...]
 16,-0.16642387,-0.01987799,0.00833624,0.47764828,-0.00102691,0.0010602
 5,0.00111123,0.02577778,0.01091754,-0.00606224,-0.01608995,-0.08540442
 ,0.00438409,-0.04390751,0.51757714,0.00055217,0.00090795,0.00114117,0.
 00948618,-0.00245327,-0.00404152,0.00816231,0.00174620,-0.07944681,0.0
 2037540,0.05698428,0.55022237,-0.01833851,0.02617082,0.02062972,0.0021
 0835,0.00076592,0.00074954,-0.00573671,-0.02999512,0.01955477,-0.08230
 863,-0.01007457,0.00444314,0.59532060,0.00698551,0.00769494,-0.0003545
 4,0.00012413,-0.00037714,-0.00054966,-0.00862798,-0.00572736,0.0053617
 0,-0.01005011,-0.15002549,0.04397057,0.02190970,0.42937331,0.00808770,
 -0.01029059,-0.00912749,-0.00002282,-0.00031135,0.00175157,0.00474933,
 0.00560680,-0.00415134,0.00574646,0.03996596,-0.10523299,0.02248732,-0
 .00410431,0.54025852,-0.18482331,-0.01994043,0.06068347,-0.00830518,-0
 .00728240,0.00070971,-0.00089937,0.00035813,-0.00012084,0.00218807,0.0
 0125673,-0.00394712,-0.08780685,0.02063815,0.01952260,0.46932072,-0.01
 964540,-0.09389421,-0.00177099,-0.02402948,0.00370785,0.01102728,0.001
 41145,0.00242093,0.00015043,0.01098527,-0.03464419,-0.01479660,0.02168
 752,-0.13336290,-0.03886890,0.01186106,0.52586046,0.06834090,0.0056071
 5,-0.08828215,-0.00067626,-0.00082156,0.00171693,0.00102909,-0.0015896
 9,0.00008466,-0.00767561,0.01002060,0.01073398,0.02001383,-0.04045121,
 -0.10969179,0.01048385,-0.03110933,0.49504405,-0.00602799,-0.03072189,
 0.01518275,-0.00251251,0.00153834,0.00384385,-0.00021650,0.00039071,0.
 00010499,-0.00079676,0.00165598,0.00184386,-0.00000535,0.00854141,-0.0
 0712234,-0.04165509,0.00445460,0.00249405,0.05036245,-0.00622950,-0.00
 520358,0.00347574,-0.00024704,-0.00040181,0.00252262,0.00040963,0.0005
 5207,-0.00006735,0.00278296,-0.00259839,-0.00440574,-0.00034793,-0.019
 48672,0.01269933,0.00748056,-0.22424769,0.10961809,-0.00333362,0.24660
 120,0.00140251,0.01023027,-0.00422603,-0.00009323,-0.00210498,-0.00163
 305,0.00023848,0.00025407,0.00005863,0.00166995,-0.00261308,-0.0024729
 8,-0.00113549,-0.01702168,0.01094792,0.00157571,0.11326425,-0.11609631
 ,-0.00115316,-0.12270542,0.12567094,-0.02525572,-0.00790244,-0.0194228
 1,-0.00223936,0.00027066,-0.00037209,-0.00008748,0.00004195,0.00007835
 ,-0.00013460,-0.00071202,0.00018036,0.00716692,0.00301419,0.01005085,-
 0.13490701,-0.02222075,-0.11789198,-0.00029792,0.00059477,-0.00207722,
 0.15320122,-0.00832123,-0.00219637,-0.00402050,-0.00071764,-0.00115034
 ,0.00068011,-0.00018399,-0.00008411,0.00010026,-0.00089202,0.00164980,
 -0.00134399,-0.01446365,-0.00590438,-0.02017172,-0.02043677,-0.0467388
 5,-0.02954582,0.01724905,0.00288450,0.02083898,0.02552449,0.05287987,0
 .00452471,0.00162243,0.01074091,0.00048183,0.00058559,-0.00048056,0.00
 004556,0.00006332,-0.00012239,0.00019962,0.00124563,0.00058353,-0.0104
 5167,-0.00423364,-0.01721861,-0.10658002,-0.02758159,-0.17613062,-0.01
 259063,-0.00111164,-0.01541271,0.12331830,0.03301318,0.19847898,0.0009
 9575,0.00005451,0.00027420,0.00003421,-0.00000696,0.00049273,0.0008793
 1,0.00034356,0.00068247,0.00226203,0.00043761,0.00458406,-0.11148636,-
 0.00319308,-0.11064316,0.00549461,0.00001893,0.01077249,0.00047654,-0.
 00059991,-0.00035285,-0.00000117,0.00150837,0.00190589,0.11660135,-0.0
 0117738,0.00012559,0.00074021,-0.00010800,-0.00009800,-0.00017771,0.00
 044012,0.00160851,-0.00065934,0.01512511,-0.00037542,0.02806475,-0.002
 96218,-0.04743737,-0.00387062,-0.01199957,-0.00307982,-0.02399113,-0.0
 0068106,0.00083344,0.00036464,0.00238079,-0.00335653,-0.00359755,0.002
 28090,0.05660494,-0.00093598,0.00015243,0.00046358,0.00010044,0.000265
 38,-0.00125812,-0.00019615,-0.00061905,0.00056875,-0.00755629,0.001590
 08,-0.01499912,-0.10679967,-0.00500904,-0.24348947,-0.00783835,-0.0019
 1596,-0.01608012,0.00005266,-0.00008433,0.00092502,0.00157382,-0.00239
 440,-0.00094942,0.11909949,0.00479372,0.26622962,0.00062335,0.00229304
 ,0.00065195,0.00059317,0.00013227,-0.00067419,0.00151432,-0.00078473,0
 .00078762,-0.00265347,-0.00051982,-0.00005332,-0.29196374,-0.03415004,
 0.04512852,-0.00958261,-0.00147517,0.00150601,-0.00018093,0.00040629,-
 0.00014950,0.00107452,-0.00020580,0.00028647,-0.01521909,-0.00210854,0
 .00236198,0.31588593,0.00102923,-0.00455240,-0.00227608,0.00045086,-0.
 00071519,0.00003922,0.00134983,-0.00490612,0.00401619,-0.03046574,-0.0
 0498780,0.00442742,-0.03477954,-0.05163382,0.00678275,0.02642845,0.003
 36876,-0.00619956,-0.00016182,0.00048703,0.00078222,-0.00037548,0.0013
 7487,0.00046606,-0.00053034,-0.00055361,-0.00004703,0.03729212,0.05962
 381,0.00075098,-0.00381345,-0.00116452,-0.00053847,0.00017184,-0.00058
 383,-0.00048026,0.00253336,-0.00101780,0.01611809,0.00252625,-0.003353
 58,0.04246471,0.00652133,-0.05686950,0.01914703,0.00168987,-0.00598218
 ,-0.00035793,0.00007347,0.00039071,0.00006858,0.00084854,0.00059243,-0
 .02727194,-0.00393280,0.00669426,-0.05073826,-0.00606905,0.06007092,-0
 .00001920,-0.00046195,0.00002645,-0.00468687,-0.00424711,0.00249890,-0
 .01695413,0.02481979,0.01492680,-0.09010962,0.08057170,0.05400302,0.00
 170002,-0.00425685,-0.00351256,0.00051021,-0.00136228,0.00086935,0.000
 34210,-0.00051816,-0.00004660,0.00006065,0.00024986,0.00012690,-0.0001
 1606,0.00031246,0.00004020,0.00051757,0.00007164,-0.00048416,0.1016104
 0,-0.00070494,0.00023668,0.00062661,-0.00130264,-0.00005661,0.00033229
 ,-0.00378921,0.00629856,0.00337734,0.08089564,-0.19193276,-0.09840748,
 0.01088345,-0.02184445,-0.01569839,-0.00104806,-0.00412488,0.00499424,
 0.00081017,-0.00143392,-0.00112740,-0.00013071,0.00020992,-0.00001729,
 0.00036890,0.00097455,0.00018106,-0.00059871,0.00097581,-0.00046670,-0
 .08589766,0.21029947,0.00000214,0.00024929,-0.00000691,-0.00028709,0.0
 0105368,0.00037647,0.00050644,-0.00250518,-0.00164294,0.05561964,-0.10
 055587,-0.11727005,-0.00761884,0.01421696,0.00956922,0.00048771,0.0026
 8154,-0.00162759,-0.00012407,0.00084242,0.00065014,0.00013976,0.000308
 76,0.00020349,-0.00028270,-0.00077183,0.00062648,-0.00019430,-0.000948
 96,0.00070334,-0.06027305,0.10748150,0.12310201,-0.00029265,0.00050663
 ,0.00041810,0.00035085,-0.00182327,-0.00050722,-0.01772653,-0.00466249
 ,-0.02799250,-0.10021724,-0.00431904,-0.09912970,0.00236884,0.00059064
 ,0.00413143,0.00014605,0.00023295,-0.00042235,0.00007663,0.00007663,0.
 00013367,0.00009823,0.00031099,-0.00000569,0.00093381,-0.00111433,0.00
 039847,0.00043672,0.00056889,0.00006987,0.00640931,-0.00016276,0.01181
 175,0.11136460,0.00003837,-0.00011102,-0.00011691,0.00031869,-0.000159
 72,0.00037199,-0.00480419,-0.00191962,-0.00561532,-0.00394515,-0.04936
 739,-0.01420189,0.01402053,-0.00138516,0.02849000,0.00054438,0.0019624
 4,0.00090991,-0.00032150,0.00038648,-0.00007794,-0.00033799,-0.0002092
 3,-0.00045790,-0.00088488,-0.00513106,0.00301137,-0.00014550,0.0011163
 3,-0.00074381,-0.01158206,-0.00108561,-0.02213291,0.00930593,0.0545669
 1,-0.00031383,0.00022995,0.00024442,-0.00018563,0.00014788,0.00005261,
 0.00357355,0.00074613,0.00515381,-0.10053014,-0.01386805,-0.24003556,-
 0.00780439,0.00112874,-0.01764931,0.00042701,-0.00138460,0.00106702,0.
 00029203,-0.00004237,0.00027269,-0.00006494,0.00086012,0.00060470,0.00
 142397,0.00330296,-0.00021136,0.00050420,-0.00011913,0.00018835,-0.007
 28038,-0.00144612,-0.01585304,0.10936121,0.01050537,0.26332183,-0.0020
 0722,0.00183313,0.00053704,0.00649555,0.00879671,0.01446783,-0.0836785
 2,-0.04640189,-0.07996415,-0.01588762,-0.01284391,-0.02594093,0.000288
 67,0.00093724,-0.00071068,-0.00013466,-0.00011053,-0.00010830,0.000102
 11,-0.00001763,0.00001455,-0.00003393,0.00013378,0.00011339,0.00025194
 ,-0.00038390,0.00055721,0.00016717,0.00001802,0.00024715,0.00168607,0.
 00038452,-0.00028669,-0.00555803,-0.00193248,0.00131708,0.09620937,0.0
 0340728,-0.00298479,-0.00133467,-0.00788672,-0.01864513,-0.02269620,-0
 .04679974,-0.09899259,-0.09327999,-0.00146611,-0.00260423,-0.00458231,
 -0.00016831,0.00012515,-0.00059566,0.00035316,0.00030404,-0.00007718,-
 0.00002872,0.00000702,0.00001308,0.00004258,-0.00004096,0.00000350,-0.
 00007877,-0.00020243,0.00024661,0.00006439,-0.00001029,0.00020895,0.00
 061675,0.00105547,0.00043634,-0.00039850,0.00057659,0.00024850,0.04709
 897,0.10897595,0.00095286,0.00065135,-0.00021801,-0.00190803,-0.003229
 35,-0.00570874,-0.08018827,-0.09646651,-0.21867697,0.00286161,0.003837
 31,0.00630010,0.00005604,-0.00044638,0.00062929,-0.00009460,0.00011604
 ,0.00003757,-0.00003723,0.00000008,0.00000403,0.00001107,0.00001165,-0
 .00002267,-0.00018092,-0.00018565,-0.00008935,-0.00007143,-0.00009320,
 -0.00005211,-0.00064221,0.00030546,0.00123305,0.00165763,0.00055433,0.
 00116230,0.08749081,0.10462195,0.23474918,-0.00058299,0.00002383,0.000
 23890,0.00131884,0.00936845,-0.01477498,-0.04866246,-0.01510639,0.0206
 3845,-0.00454171,-0.02254117,0.02452655,-0.00658744,0.00053495,0.00063
 630,0.00009673,0.00062326,0.00023722,0.00008594,-0.00010154,-0.0001205
 1,0.00007615,-0.00006116,-0.00009080,0.00003879,0.00025420,-0.00002313
 ,-0.00040963,-0.00186202,0.00082218,0.00005644,0.00058439,0.00017823,0
 .00177353,-0.00022133,-0.00036477,0.00131914,0.00786046,-0.00863510,0.
 05830961,0.00085039,-0.00043560,-0.00065917,-0.00406669,-0.01503436,0.
 02197589,-0.01447533,-0.14791209,0.12168026,-0.00158812,-0.00404264,0.
 00484525,-0.00174475,0.00049960,-0.00000309,-0.00001607,0.00033640,0.0
 0010192,0.00002781,0.00004087,0.00003162,-0.00013796,-0.00004560,0.000
 00934,0.00006579,0.00005167,-0.00003532,0.00002142,-0.00044503,0.00023
 888,-0.00039609,-0.00014879,0.00003452,0.00010171,0.00050419,-0.000341
 56,0.00237292,0.01059257,-0.01111233,0.01538014,0.15943282,-0.00015742
 ,-0.00016780,-0.00011007,0.00067725,-0.00609847,0.00410463,0.01921553,
 0.12497190,-0.20214002,-0.00097048,0.00135524,-0.00241190,0.00098718,-
 0.00076757,0.00073152,0.00004002,-0.00010027,-0.00005729,-0.00001209,0
 .00004579,0.00001397,0.00000247,0.00002477,0.00003309,-0.00012515,-0.0
 0032810,0.00028392,0.00000256,0.00037532,0.00006948,0.00035371,0.00004
 416,-0.00022662,0.00021317,-0.00026286,0.00159023,0.00295116,0.0171644
 9,-0.02051862,-0.02216921,-0.13627126,0.21660349,-0.01336185,-0.002520
 20,0.00991432,-0.19064470,-0.03080111,0.12494788,-0.01115122,-0.001981
 83,0.00958680,-0.00013971,0.00291591,0.00127902,0.00069532,0.00019764,
 -0.00052506,0.00116043,-0.00265743,0.00030784,-0.00079472,-0.00023510,
 0.00021675,-0.00012273,-0.00007556,0.00005098,-0.00001597,0.00003952,0
 .00009084,0.00002437,-0.00000905,-0.00002384,-0.00094276,-0.00018577,0
 .00006629,-0.00008903,-0.00002838,-0.00010223,-0.00057368,0.00061754,0
 .00038782,0.00039503,0.00020769,-0.00051539,0.19890512,-0.02117975,-0.
 00517288,0.01346142,-0.02756045,-0.05841846,0.02272451,0.02101394,0.00
 399821,-0.01428823,0.00095572,-0.00410848,-0.00173761,0.00008546,-0.00
 051857,0.00011766,0.00054681,-0.00334688,-0.00010723,-0.00105981,-0.00
 022092,0.00045603,-0.00032102,-0.00013323,0.00018432,-0.00001166,0.000
 10322,-0.00001455,-0.00003505,0.00021351,-0.00003497,0.00156023,0.0002
 5307,-0.00011499,0.00012099,0.00001713,0.00011252,0.00004403,-0.000668
 44,-0.00054790,0.00007214,0.00140489,0.00018685,0.02966324,0.06748596,
 -0.00968838,-0.00136805,0.00862322,0.12347642,0.01838066,-0.14591873,0
 .00635815,0.00239173,-0.00096718,-0.00046934,-0.00161937,0.00036484,-0
 .00012272,-0.00003851,-0.00015918,-0.00050557,-0.00175401,-0.00022594,
 -0.00042789,-0.00034447,0.00014292,-0.00009847,-0.00011892,0.00008052,
 -0.00008327,0.00010898,0.00011727,0.00007374,0.00001243,0.00007624,0.0
 0039242,0.00015641,-0.00000505,0.00015994,-0.00001227,0.00001765,-0.00
 034382,0.00002573,0.00015393,-0.00056993,-0.00020999,0.00129683,-0.130
 91870,-0.03534797,0.17106000,0.02671514,0.00658353,0.05400079,-0.06600
 288,0.06541234,-0.04880531,-0.00473869,0.01353970,-0.02305830,0.002178
 85,0.00011942,-0.00033113,-0.00137056,0.00236108,0.00168509,-0.0031176
 8,-0.00232079,0.00305011,0.00071578,0.00071325,-0.00173761,0.00401456,
 0.00110243,-0.00230872,-0.00074774,-0.00105063,-0.00190946,-0.00026290
 ,-0.00095312,-0.00122760,-0.00036042,-0.00057545,0.00024083,-0.0004283
 9,0.00004408,-0.00032084,0.00174997,-0.00369121,-0.00115571,-0.0036662
 5,0.00427310,-0.00065622,0.01432717,-0.00364782,0.01086353,-0.00635877
 ,0.03979043,0.00992676,0.04856262,0.01421230,-0.08472819,0.04477262,0.
 01549856,-0.01596526,0.03097911,0.00002235,-0.00099873,0.00037638,0.00
 055760,0.00161024,0.00010416,-0.00248957,-0.00170258,0.00249468,0.0012
 5755,0.00102433,-0.00182137,0.00301935,0.00098845,-0.00158971,0.000471
 55,-0.00049059,-0.00079809,0.00019342,-0.00038897,-0.00040432,0.000263
 54,-0.00016701,-0.00022877,-0.00007451,0.00018135,-0.00031015,-0.00036
 711,0.00209014,0.00107797,0.00468653,-0.00442751,-0.00050562,0.0035044
 0,-0.00050961,0.01823665,-0.12421068,0.08159253,0.01139470,-0.01107224
 ,0.02046506,-0.01183604,0.11304155,-0.16702503,-0.00834710,0.00979338,
 -0.00168895,0.00081612,0.00174818,0.00014160,-0.00006978,0.00248306,-0
 .00089928,0.00326484,-0.00243378,0.01009070,-0.00060405,0.00004319,-0.
 00064618,0.00535779,0.00150882,-0.00211140,0.00024688,-0.00050949,0.00
 040123,0.00040922,-0.00085178,0.00017526,-0.00103269,-0.00051573,0.000
 17011,-0.00045122,-0.00009491,-0.00004467,0.00018851,-0.00157812,0.000
 97038,-0.00101535,-0.00007465,0.00053657,-0.01474798,0.01688630,-0.037
 88943,-0.02200852,-0.17554133,0.16317346,-0.03032890,-0.01285851,-0.04
 626198,-0.01028133,-0.01962948,-0.00027937,-0.00120011,-0.00099447,0.0
 0160774,-0.00044226,-0.00028799,-0.00016258,0.00022700,-0.00182926,-0.
 00035943,-0.00156621,0.00010546,-0.00526530,-0.00039492,0.00000537,0.0
 0154875,-0.00338751,-0.00034182,0.00199921,-0.00026672,0.00062623,0.00
 072155,-0.00016192,0.00055993,0.00039836,0.00015883,0.00043782,0.00008
 865,0.00029381,-0.00013485,0.00014430,-0.00096130,0.00127205,-0.000530
 44,0.00075569,-0.00055357,0.00022537,0.00141434,-0.00033401,0.00119841
 ,0.04328128,0.03978118,0.04113260,0.25723754,-0.02448487,-0.00878734,-
 0.03738950,-0.00131954,-0.00414713,0.00038870,0.00121935,0.00036012,0.
 00067096,-0.00064819,-0.00034716,0.00016391,0.00022219,-0.00152150,-0.
 00026022,-0.00148307,0.00009139,-0.00462744,-0.00024495,-0.00000598,0.
 00132856,-0.00292439,-0.00038496,0.00172151,-0.00031125,0.00048213,0.0
 0067529,-0.00004560,0.00054298,0.00037271,0.00021594,0.00037666,-0.000
 02272,0.00045110,-0.00003729,0.00016124,-0.00035568,0.00130124,0.00050
 051,0.00029494,-0.00004302,0.00024352,0.00070635,-0.00171013,0.0005565
 0,0.05849116,0.00539199,0.05172513,-0.26477336,0.28416390,-0.02044611,
 -0.00758339,-0.02678171,-0.01256200,-0.02007375,-0.00239431,0.00085743
 ,-0.00027965,0.00141889,-0.00020893,-0.00028559,-0.00007746,-0.0000668
 8,-0.00097717,-0.00059623,-0.00122595,-0.00076052,-0.00355573,-0.00048
 778,-0.00010649,0.00088669,-0.00234860,-0.00024578,0.00122212,-0.00025
 235,0.00038843,0.00060605,-0.00006550,0.00032734,0.00036585,0.00004450
 ,0.00029072,0.00000654,0.00016651,-0.00012301,0.00014741,-0.00071093,0
 .00091197,-0.00013876,0.00047636,-0.00019605,0.00024280,0.00104879,-0.
 00172292,0.00344552,0.03621598,0.03460755,0.01590842,0.03875084,-0.037
 94414,0.01650186,-0.00146412,-0.00096986,-0.00097460,-0.00113485,-0.00
 109223,-0.00056485,-0.00001093,-0.00029699,0.00037618,-0.00005496,0.00
 005664,-0.00001558,-0.00004081,0.00007379,-0.00001216,0.00013019,0.000
 28840,0.00000676,0.00005222,-0.00006340,-0.00012021,0.00011006,-0.0000
 5570,-0.00003892,-0.00003988,0.00001747,0.00003525,0.00006108,-0.00002
 672,-0.00000352,0.00004402,-0.00005367,-0.00001556,-0.00001404,-0.0000
 0441,0.00002248,0.00017229,-0.00025810,0.00001752,0.00007770,-0.000266
 13,-0.00005765,0.00007701,-0.00000154,0.00035734,-0.00859825,0.0082077
 9,-0.00298572,-0.25343807,0.23529231,-0.03884844,0.26409722,-0.0011554
 6,0.00052487,-0.00138699,-0.00179075,-0.00331182,-0.00053592,0.0000432
 4,-0.00075458,-0.00059931,0.00003394,0.00007338,0.00031217,0.00002566,
 -0.00015496,-0.00007853,-0.00017984,-0.00025427,-0.00018890,-0.0001353
 5,0.00006601,0.00012528,-0.00016046,0.00004746,0.00010805,0.00001920,0
 .00002770,0.00002100,-0.00002917,0.00005141,0.00000285,-0.00004782,0.0
 0002513,0.00001042,0.00014118,0.00002863,-0.00000341,0.00002862,0.0003
 9676,0.00051818,0.00008092,0.00004667,0.00011618,0.00041557,0.00036807
 ,0.00013536,-0.01532224,0.00591935,-0.00632817,0.25874706,-0.27671569,
 0.03343220,-0.24071294,0.27373292,-0.00085213,0.00002034,-0.00102168,-
 0.00264941,-0.00091786,-0.00130366,-0.00004031,-0.00045240,0.00004223,
 -0.00006144,-0.00005083,-0.00008414,0.00003901,0.00003540,0.00003765,0
 .00007866,-0.00001433,0.00009052,0.00002198,0.00003262,-0.00001074,0.0
 0005802,0.00000761,-0.00003701,-0.00002672,-0.00003011,0.00000493,0.00
 003657,-0.00000257,-0.00001252,0.00004609,-0.00001821,-0.00000700,0.00
 000040,0.00001898,0.00000334,0.00021954,0.00000841,-0.00011656,0.00004
 417,-0.00003711,0.00001149,-0.00015755,0.00016828,-0.00025951,-0.00526
 150,0.00523066,-0.00164029,-0.03434915,0.02189274,-0.00695761,0.042905
 64,-0.02572119,0.01123569,-0.12151162,0.10499601,0.07827290,0.00578384
 ,-0.01141483,-0.00743277,-0.00157303,-0.00096700,-0.00131743,-0.000004
 45,-0.00046888,0.00014432,-0.00423077,-0.00380112,0.00068262,-0.006249
 03,0.02215294,0.01292831,0.00066892,-0.00077562,0.00018601,0.00066510,
 -0.00032361,-0.00098642,-0.00007536,0.00010878,0.00022713,-0.00046391,
 0.00139485,0.00103905,0.00009344,0.00008469,-0.00005914,0.00007352,0.0
 0007074,-0.00009869,0.00039269,-0.00055701,0.00000857,0.00014690,-0.00
 005625,-0.00000481,0.00083758,0.00008856,0.00034814,0.00266976,-0.0043
 2468,0.00028780,-0.00093925,-0.00030243,-0.00033694,-0.00002587,-0.000
 00134,-0.00005187,0.12374153,0.09960701,-0.20792063,-0.10807346,0.0157
 4140,-0.01574656,-0.01055065,-0.00392999,-0.00141670,-0.00192672,-0.00
 052638,0.00015898,0.00013002,-0.00179281,0.00007659,0.00048672,-0.0045
 9165,0.00734400,0.00496246,0.00076310,0.00071604,-0.00021713,0.0003344
 5,0.00020970,-0.00043359,0.00004757,-0.00008691,-0.00001919,-0.0003048
 3,0.00043873,0.00027707,0.00008808,0.00008870,-0.00003420,0.00014728,0
 .00006605,0.00007198,0.00076519,-0.00127606,-0.00011350,0.00012942,-0.
 00037503,-0.00002626,0.00022659,0.00096354,0.00080910,-0.00086816,0.00
 065331,0.00177057,0.00020224,0.00098977,0.00034026,-0.00013470,-0.0001
 1704,-0.00017043,-0.10590381,0.21523351,0.07889590,-0.10106081,-0.0932
 3285,-0.00325272,-0.00017050,0.00177844,0.00009110,0.00116723,0.000709
 09,0.00013116,0.00028619,-0.00006148,0.00264418,0.00023595,0.00115952,
 0.00389185,-0.00643852,-0.00113568,-0.00091902,-0.00048554,0.00053433,
 0.00143674,-0.00036167,-0.00005438,-0.00026313,0.00029064,0.00015584,0
 .00019767,-0.00062158,-0.00029080,-0.00005669,-0.00009248,-0.00000163,
 -0.00001347,-0.00002221,-0.00003239,-0.00003877,0.00025460,0.00030195,
 -0.00003455,0.00002286,-0.00005351,-0.00090658,-0.00038150,0.00004608,
 0.00272461,-0.00524305,-0.00008757,-0.00060753,-0.00015726,-0.00025033
 ,-0.00008398,0.00006072,0.00002487,-0.08383678,0.11271695,0.09049050\\
 -0.00001257,0.00000107,0.00001369,0.00000561,-0.00000930,-0.00000017,0
 .00000849,0.00000178,-0.00000040,-0.00000396,-0.00000298,0.00000308,-0
 .00000094,0.00000206,-0.00000077,-0.00000088,-0.00000577,-0.00001126,-
 0.00000255,-0.00000097,-0.00000150,0.00000064,0.00000231,-0.00000098,0
 .00000297,0.00000204,-0.00000254,0.00000100,-0.00000193,0.00000250,-0.
 00000052,0.00000007,-0.00000074,0.00000149,-0.00000249,-0.00000001,0.0
 0000012,-0.00000046,0.00000030,0.00000099,0.00000053,0.00000125,-0.000
 00084,0.00000518,0.00000121,0.00000387,-0.00000064,-0.00000504,0.00000
 214,0.00001089,0.00000499,-0.00000084,-0.00000225,-0.00000064,-0.00000
 424,0.00000086,-0.00000297\\\@


 IF YOU'RE NOT PART OF THE SOLUTION,
 THEN YOU'RE PART OF THE PRECIPITATE.
 Job cpu time:       0 days  0 hours  0 minutes 33.0 seconds.
 Elapsed time:       0 days  0 hours  8 minutes  9.6 seconds.
 File lengths (MBytes):  RWF=    421 Int=      0 D2E=      0 Chk=     18 Scr=      1
 Normal termination of Gaussian 16 at Tue May 10 20:22:00 2022.
