 Entering Gaussian System, Link 0=g16
 Initial command:
 /apps/chpc/chem/gaussian16/B01/g16/l1.exe "/mnt/lustre/users/lmoskaleva/Kgalaletso/4178051.sched01/Gau-68009.inp" -scrdir="/mnt/lustre/users/lmoskaleva/Kgalaletso/4178051.sched01/"
 Entering Link 1 = /apps/chpc/chem/gaussian16/B01/g16/l1.exe PID=     68011.
  
 Copyright (c) 1988-2017, Gaussian, Inc.  All Rights Reserved.
  
 This is part of the Gaussian(R) 16 program.  It is based on
 the Gaussian(R) 09 system (copyright 2009, Gaussian, Inc.),
 the Gaussian(R) 03 system (copyright 2003, Gaussian, Inc.),
 the Gaussian(R) 98 system (copyright 1998, Gaussian, Inc.),
 the Gaussian(R) 94 system (copyright 1995, Gaussian, Inc.),
 the Gaussian 92(TM) system (copyright 1992, Gaussian, Inc.),
 the Gaussian 90(TM) system (copyright 1990, Gaussian, Inc.),
 the Gaussian 88(TM) system (copyright 1988, Gaussian, Inc.),
 the Gaussian 86(TM) system (copyright 1986, Carnegie Mellon
 University), and the Gaussian 82(TM) system (copyright 1983,
 Carnegie Mellon University). Gaussian is a federally registered
 trademark of Gaussian, Inc.
  
 This software contains proprietary and confidential information,
 including trade secrets, belonging to Gaussian, Inc.
  
 This software is provided under written license and may be
 used, copied, transmitted, or stored only in accord with that
 written license.
  
 The following legend is applicable only to US Government
 contracts under FAR:
  
                    RESTRICTED RIGHTS LEGEND
  
 Use, reproduction and disclosure by the US Government is
 subject to restrictions as set forth in subparagraphs (a)
 and (c) of the Commercial Computer Software - Restricted
 Rights clause in FAR 52.227-19.
  
 Gaussian, Inc.
 340 Quinnipiac St., Bldg. 40, Wallingford CT 06492
  
  
 ---------------------------------------------------------------
 Warning -- This program may not be used in any manner that
 competes with the business of Gaussian, Inc. or will provide
 assistance to any competitor of Gaussian, Inc.  The licensee
 of this program is prohibited from giving any competitor of
 Gaussian, Inc. access to this program.  By using this program,
 the user acknowledges that Gaussian, Inc. is engaged in the
 business of creating and licensing software in the field of
 computational chemistry and represents and warrants to the
 licensee that it is not a competitor of Gaussian, Inc. and that
 it will not use this program in any manner prohibited above.
 ---------------------------------------------------------------
  

 Cite this work as:
 Gaussian 16, Revision B.01,
 M. J. Frisch, G. W. Trucks, H. B. Schlegel, G. E. Scuseria, 
 M. A. Robb, J. R. Cheeseman, G. Scalmani, V. Barone, 
 G. A. Petersson, H. Nakatsuji, X. Li, M. Caricato, A. V. Marenich, 
 J. Bloino, B. G. Janesko, R. Gomperts, B. Mennucci, H. P. Hratchian, 
 J. V. Ortiz, A. F. Izmaylov, J. L. Sonnenberg, D. Williams-Young, 
 F. Ding, F. Lipparini, F. Egidi, J. Goings, B. Peng, A. Petrone, 
 T. Henderson, D. Ranasinghe, V. G. Zakrzewski, J. Gao, N. Rega, 
 G. Zheng, W. Liang, M. Hada, M. Ehara, K. Toyota, R. Fukuda, 
 J. Hasegawa, M. Ishida, T. Nakajima, Y. Honda, O. Kitao, H. Nakai, 
 T. Vreven, K. Throssell, J. A. Montgomery, Jr., J. E. Peralta, 
 F. Ogliaro, M. J. Bearpark, J. J. Heyd, E. N. Brothers, K. N. Kudin, 
 V. N. Staroverov, T. A. Keith, R. Kobayashi, J. Normand, 
 K. Raghavachari, A. P. Rendell, J. C. Burant, S. S. Iyengar, 
 J. Tomasi, M. Cossi, J. M. Millam, M. Klene, C. Adamo, R. Cammi, 
 J. W. Ochterski, R. L. Martin, K. Morokuma, O. Farkas, 
 J. B. Foresman, and D. J. Fox, Gaussian, Inc., Wallingford CT, 2016.
 
 ******************************************
 Gaussian 16:  ES64L-G16RevB.01 20-Dec-2017
                11-May-2022 
 ******************************************
 %nprocshared=24
 Will use up to   24 processors via shared memory.
 %lindaworkers=cnode1121.cm.cluster,cnode1151.cm.cluster,cnode1159.cm.cluster
 %mem=20GB
 %chk=QOOH-OOH-Elim-QST2-TS4-b3lyP-c-A.chk
 SetLPE:    new flags="-opt 'Tsnet.Node.lindarsharg: ssh'  -nodelist 'cnode1121.cm.cluster cnode1151.cm.cluster cnode1159.cm.cluster' -env GAUSS_MDEF=2684354560 -env GAUSS_EXEDIR="/apps/chpc/chem/gaussian16/B01/g16/bsd:/apps/chpc/chem/gaussian16/B01/g16""
 Will use up to    3 processors via Linda.
 ----------------------------------------------------------------------
 # opt=(calcfc,qst2,modredundant) freq ub3lyp cc-pvtz+d int(grid=ultraf
 ine)
 ----------------------------------------------------------------------
 1/5=1,10=4,18=120,26=4,27=202,38=1/1,3;
 2/9=110,12=2,17=6,18=5,40=1/2;
 3/5=16,6=1,7=9,11=2,25=1,30=1,71=2,74=-5,75=-5,116=2,140=1/1,2,3;
 4//1;
 5/5=2,38=5/2;
 8/6=4,10=90,11=11/1;
 11/6=1,8=1,9=11,15=111,16=1/1,2,10;
 10/6=1,13=1/2;
 6/7=2,8=2,9=2,10=2,28=1/1;
 7/10=1,18=20,25=1/1,2,3,16;
 1/5=1,10=4,18=20,26=4,27=202/3(2);
 2/9=110/2;
 99//99;
 2/9=110/2;
 3/5=16,6=1,7=9,11=2,25=1,30=1,71=1,74=-5,75=-5,116=2/1,2,3;
 4/5=5,16=3,69=1/1;
 5/5=2,38=5/2;
 7//1,2,3,16;
 1/5=1,18=20,26=4,27=202/3(-5);
 2/9=110/2;
 6/7=2,8=2,9=2,10=2,19=2,28=1/1;
 99/9=1/99;
 --------------------------------
 QOOH-OOH-Elim-QST2-TS4-b3lyP-c-A
 --------------------------------
 Symbolic Z-matrix:
 Charge =  0 Multiplicity = 2
 C                    -0.10138   1.11896  -0.12494 
 C                    -0.62253  -0.22057   0.26327 
 C                     0.32427  -1.35288  -0.15008 
 C                     1.7614   -1.05201   0.2876 
 C                     2.25883   0.27604  -0.28675 
 C                     1.3345    1.43798   0.11488 
 H                     1.61536   2.35382  -0.40873 
 H                     1.4966    1.64901   1.18583 
 H                     2.29244   0.20536  -1.37748 
 H                     3.27755   0.47845   0.0499 
 H                     2.41454  -1.86811  -0.0271 
 H                     1.81222  -1.01927   1.38101 
 H                     0.2838   -1.45332  -1.23767 
 H                    -0.02985  -2.2913    0.27735 
 H                    -0.76985  -0.26996   1.35508 
 O                    -1.87672  -0.5429   -0.3497 
 O                    -2.88854   0.32579   0.22986 
 H                    -3.18856   0.79367  -0.5603 
 H                    -0.81265   1.91346  -0.30308 
 
 The following ModRedundant input section has been read:
 B       2      16 B                                                           
 
 -------------------
 Title Card Required
 -------------------
 Symbolic Z-matrix:
 Charge =  0 Multiplicity = 2
 C                     0.35373   0.48828   1.38104 
 C                     0.33576  -0.83083   1.17282 
 C                     0.90485  -1.48577  -0.05736 
 C                     1.7975   -0.53051  -0.85776 
 C                     1.1518    0.85157  -0.98383 
 C                     0.91551   1.47668   0.39561 
 H                     0.24391   2.33543   0.31381 
 H                     1.85291   1.87814   0.79862 
 H                     0.19382   0.75354  -1.50066 
 H                     1.77424   1.51149  -1.59022 
 H                     2.00158  -0.94909  -1.84443 
 H                     2.76264  -0.43321  -0.35156 
 H                     0.08576  -1.85333  -0.68532 
 H                     1.46759  -2.37498   0.2388 
 H                    -0.08099  -1.48272   1.93383 
 O                    -2.50742   0.03368  -1.06802 
 O                    -2.65378  -0.03528   0.25032 
 H                    -1.73559  -0.0729    0.61005 
 H                    -0.03116   0.88384   2.31552 
 
 Add virtual bond connecting atoms H18        and C1         Dist= 4.34D+00.
 Add virtual bond connecting atoms H18        and C2         Dist= 4.30D+00.
 The following ModRedundant input section has been read:
 B       2      16 B                                                           
 
 Iteration  1 RMS(Cart)=  0.07320261 RMS(Int)=  0.59769671
 Iteration  2 RMS(Cart)=  0.05856525 RMS(Int)=  0.57579599
 Iteration  3 RMS(Cart)=  0.04973533 RMS(Int)=  0.56320683
 Iteration  4 RMS(Cart)=  0.04552362 RMS(Int)=  0.55578185
 Iteration  5 RMS(Cart)=  0.03862796 RMS(Int)=  0.55096835
 Iteration  6 RMS(Cart)=  0.03614874 RMS(Int)=  0.54722782
 Iteration  7 RMS(Cart)=  0.04007282 RMS(Int)=  0.54434641
 Iteration  8 RMS(Cart)=  0.04189901 RMS(Int)=  0.54272910
 Iteration  9 RMS(Cart)=  0.03393603 RMS(Int)=  0.54226447
 Iteration 10 RMS(Cart)=  0.02170297 RMS(Int)=  0.54234077
 Iteration 11 RMS(Cart)=  0.01105865 RMS(Int)=  0.54232334
 Iteration 12 RMS(Cart)=  0.00411140 RMS(Int)=  0.54197836
 Iteration 13 RMS(Cart)=  0.00231476 RMS(Int)=  0.54167711
 Iteration 14 RMS(Cart)=  0.00145117 RMS(Int)=  0.54144276
 Iteration 15 RMS(Cart)=  0.00099713 RMS(Int)=  0.54126541
 Iteration 16 RMS(Cart)=  0.00071174 RMS(Int)=  0.54113261
 Iteration 17 RMS(Cart)=  0.00051763 RMS(Int)=  0.54103349
 Iteration 18 RMS(Cart)=  0.00038009 RMS(Int)=  0.54095950
 Iteration 19 RMS(Cart)=  0.00028065 RMS(Int)=  0.54090422
 Iteration 20 RMS(Cart)=  0.00020794 RMS(Int)=  0.54086287
 Iteration 21 RMS(Cart)=  0.00015444 RMS(Int)=  0.54083191
 Iteration 22 RMS(Cart)=  0.00011490 RMS(Int)=  0.54080870
 Iteration 23 RMS(Cart)=  0.00008561 RMS(Int)=  0.54079129
 Iteration 24 RMS(Cart)=  0.00006386 RMS(Int)=  0.54077822
 Iteration 25 RMS(Cart)=  0.00004769 RMS(Int)=  0.54076841
 Iteration 26 RMS(Cart)=  0.00003565 RMS(Int)=  0.54076104
 Iteration 27 RMS(Cart)=  0.00002667 RMS(Int)=  0.54075549
 Iteration 28 RMS(Cart)=  0.00001997 RMS(Int)=  0.54075132
 Iteration 29 RMS(Cart)=  0.00001496 RMS(Int)=  0.54074819
 Iteration 30 RMS(Cart)=  0.00001122 RMS(Int)=  0.54074583
 Iteration 31 RMS(Cart)=  0.00000842 RMS(Int)=  0.54074405
 Iteration 32 RMS(Cart)=  0.00000632 RMS(Int)=  0.54074271
 Iteration 33 RMS(Cart)=  0.00000475 RMS(Int)=  0.54074170
 Iteration 34 RMS(Cart)=  0.00000357 RMS(Int)=  0.54074094
 Iteration 35 RMS(Cart)=  0.00000268 RMS(Int)=  0.54074037
 Iteration 36 RMS(Cart)=  0.00000202 RMS(Int)=  0.54073994
 Iteration 37 RMS(Cart)=  0.00000152 RMS(Int)=  0.54073962
 Iteration 38 RMS(Cart)=  0.00000114 RMS(Int)=  0.54073937
 Iteration 39 RMS(Cart)=  0.00000086 RMS(Int)=  0.54073919
 Iteration  1 RMS(Cart)=  0.00000065 RMS(Int)=  0.54073905
 Iteration  1 RMS(Cart)=  0.00000049 RMS(Int)=  0.54073894
 Iteration  1 RMS(Cart)=  0.00000037 RMS(Int)=  0.54073886
 Iteration  1 RMS(Cart)=  0.00000028 RMS(Int)=  0.54073880
 Iteration  1 RMS(Cart)=  0.00000021 RMS(Int)=  0.54073876
 Iteration  1 RMS(Cart)=  0.00000016 RMS(Int)=  0.54073872
 Iteration  1 RMS(Cart)=  0.00000012 RMS(Int)=  0.54073870
 Iteration  1 RMS(Cart)=  0.00000009 RMS(Int)=  0.54073868
 Iteration  1 RMS(Cart)=  0.00000007 RMS(Int)=  0.54073866
   Var     Old X     New X   DQ Goal   DQ Act.  Rel. Err.   Overall
     1    2.8135    2.4870   -0.1448   -0.3265    2.2542
     2    2.8163    2.7458    0.0134   -0.0704   -5.2470
     3    5.9236    4.9919   -0.7918   -0.9317    1.1767
     4    2.0431    2.0470    0.0039    0.0039
     5    2.8965    2.8210   -0.0259   -0.0756    2.9180
     6    2.0840    2.0674   -0.0166   -0.0166    1.0000
     7    2.7074    4.8261    2.1630    2.1187    0.9795
     8    5.4414    5.1043   -0.5699   -0.3372    0.5916
     9    2.8953    2.9875    0.0008    0.0922
    10    2.0654    2.0679    0.0025    0.0025
    11    2.0603    2.0631    0.0028    0.0028
    12    2.8914    2.9424    0.0006    0.0510
    13    2.0629    2.0623   -0.0005   -0.0005
    14    2.0694    2.0685   -0.0009   -0.0009
    15    2.9066    2.9543   -0.0050    0.0477
    16    2.0665    2.0659   -0.0006   -0.0006
    17    2.0633    2.0626   -0.0006   -0.0006
    18    2.0630    2.0645    0.0015    0.0015
    19    2.0853    2.0787   -0.0066   -0.0066
    20    2.7478    2.7754   -0.1189    0.0276   -0.2325
    21    1.8256    1.6846    0.0197   -0.1410   -7.1733
    22    2.0805    2.3412    0.0374    0.2607    6.9694
    23    2.0645    1.9393    0.0089   -0.1251
    24    3.0270    2.4457   -0.5861   -0.5813    0.9919
    25    2.0979    1.9849   -0.0263   -0.1131    4.3001
    26    0.9341    0.8898    0.3461   -0.0443   -0.1280
    27    1.9586    2.0648    0.0985    0.1062    1.0783
    28    1.9232    2.0586    0.0793    0.1353    1.7060
    29    1.9794    1.7220   -0.2671   -0.2574    0.9637
    30    1.8927    2.0367    0.0763    0.1440    1.8882
    31    1.8330    1.6842   -0.1822   -0.1488    0.8162
    32    2.3943    2.2591   -0.2663   -0.1352    0.5079
    33    1.8719    1.7724   -0.0147   -0.0995    6.7700
    34    1.7517    1.6184   -0.0785   -0.1333    1.6990
    35    0.6037    0.6071   -0.1022    0.0034   -0.0330
    36    1.9362    1.8915    0.0099   -0.0447
    37    1.8895    1.8940    0.0097    0.0045
    38    1.9066    1.9437   -0.0013    0.0371
    39    1.9146    1.9516    0.0043    0.0371
    40    1.9409    1.9346   -0.0070   -0.0063
    41    1.8744    1.8485   -0.0166   -0.0259    1.5645
    42    1.9478    1.9620   -0.0044    0.0141
    43    1.9093    1.8642    0.0053   -0.0451
    44    1.9120    1.8912   -0.0038   -0.0208
    45    1.9243    1.9539    0.0025    0.0296
    46    1.9111    1.8954   -0.0020   -0.0157
    47    1.8571    1.8954    0.0026    0.0382
    48    1.9415    1.9783   -0.0017    0.0367
    49    1.9053    1.8589   -0.0003   -0.0464
    50    1.9268    1.9725    0.0014    0.0457
    51    1.9047    1.8786   -0.0004   -0.0261
    52    1.9179    1.8706    0.0007   -0.0473
    53    1.8659    1.9020    0.0003    0.0361
    54    1.9555    1.8338    0.0021   -0.1217
    55    1.9286    2.0104   -0.0078    0.0817
    56    1.9163    1.8923   -0.0104   -0.0240    2.3088
    57    1.9325    1.9275   -0.0033   -0.0051
    58    1.8856    1.9826    0.0205    0.0971    4.7375
    59    1.8413    1.8217   -0.0011   -0.0197
    60    1.8799    1.5658   -0.4312   -0.3141    0.7285
    61    1.7512    1.3923    0.0420   -0.3589   -8.5550
    62    1.1927    2.1599    0.8316    0.9672    1.1630
    63    0.8213    1.6855    1.0005    0.8642    0.8638
    64   -0.7737   -0.4661    0.4000    0.3075    0.7688
    65    1.3375    2.1465    0.8987    0.8090    0.9003
    66   -2.8472   -2.2506    0.7557    0.5966    0.7895
    67    2.6684    2.8961   -2.8782    0.2278   -0.0791
    68   -1.5037   -0.7744    0.7621    0.7293    0.9570
    69    0.5948    1.1117    0.6190    0.5169    0.8350
    70    0.7638    0.5014   -0.2635   -0.2624    0.9959
    71    2.9278    2.6264   -0.2720   -0.3015    1.1085
    72   -1.3313   -1.6240   -0.2836   -0.2926    1.0319
    73   -2.9695   -1.8726    0.9128    1.0970    1.2017
    74   -0.8055    0.2524    0.9044    1.0579    1.1698
    75    1.2184    2.2852    0.8928    1.0668    1.1949
    76   -2.6841   -2.8651   -0.1237   -0.1811    1.4641
    77   -0.5201   -0.7402   -0.1321   -0.2201    1.6657
    78    1.5039    1.2927   -0.1437   -0.2113    1.4698
    79   -1.9530    2.9485    0.5686    4.9015    8.6209
    80   -2.2605   -1.9269    1.7655    0.3336    0.1890
    81    0.8577    0.5695   -0.3054   -0.2882    0.9438
    82   -1.2439   -1.5532   -0.3236   -0.3093    0.9558
    83    3.0033    2.7019   -0.3085   -0.3014    0.9768
    84   -1.2709   -2.0497   -0.7957   -0.7788    0.9788
    85    2.9107    2.1108   -0.8139   -0.7999    0.9828
    86    0.8747    0.0827   -0.7988   -0.7920    0.9914
    87    3.0156    2.3760   -0.7093   -0.6396    0.9017
    88    0.9140    0.2533   -0.7275   -0.6607    0.9081
    89   -1.1220   -1.7748   -0.7125   -0.6528    0.9162
    90    2.7483    2.1592   -0.5405   -0.5891    1.0899
    91    0.6467    0.0365   -0.5587   -0.6102    1.0921
    92   -1.3893   -1.9915   -0.5437   -0.6022    1.1077
    93   -1.2072   -1.3077   -0.0817   -0.1005    1.2300
    94    2.9314    2.8810   -0.0995   -0.0505    0.5071
    95    0.9202    0.8040   -0.1116   -0.1161    1.0402
    96   -0.5318   -0.5560    0.1484   -0.0242   -0.1629
    97    1.9210    1.4500   -0.5431   -0.4710    0.8672
    98   -0.3849   -0.7914   -0.4283   -0.4065    0.9493
    99    1.4550    1.0662   -0.2197   -0.3889    1.7700
   100   -0.9979   -0.8476    0.1136    0.1503    1.3234
   101   -3.1322   -2.9971    0.1097    0.1351    1.2310
   102    1.1215    1.2471    0.1057    0.1256    1.1882
   103    1.0888    1.2393    0.1352    0.1506    1.1135
   104   -1.0455   -0.9102    0.1313    0.1353    1.0301
   105   -3.0750   -2.9491    0.1273    0.1258    0.9882
   106   -3.1236   -2.9855    0.1133    0.1380    1.2186
   107    1.0254    1.1481    0.1094    0.1228    1.1221
   108   -1.0041   -0.8908    0.1054    0.1133    1.0751
   109    0.9919    0.9794    0.0280   -0.0124   -0.4440
   110   -1.1111   -1.0831    0.0298    0.0280    0.9412
   111    3.1259    3.1122   -3.1129   -0.0137    0.0044
   112    3.1175    3.0778   -3.1081   -0.0397    0.0128
   113    1.0145    1.0153    0.0352    0.0008    0.0220
   114   -1.0317   -1.0726    0.0342   -0.0409   -1.1963
   115   -1.1281   -1.1129    0.0369    0.0153    0.4133
   116    3.0521    3.1078    0.0387    0.0557    1.4404
   117    1.0059    1.0199    0.0376    0.0140    0.3732
   118   -0.8432   -0.7062    0.0414    0.1370    3.3096
   119   -3.0050   -2.8843    0.0524    0.1207    2.3038
   120    1.2698    1.3592    0.0437    0.0894    2.0457
   121    1.2601    1.3448    0.0397    0.0847    2.1346
   122   -0.9017   -0.8333    0.0507    0.0684    1.3500
   123   -2.9101   -2.8729    0.0420    0.0371    0.8841
   124   -2.9823   -2.8947    0.0403    0.0876    2.1771
   125    1.1390    1.2104    0.0513    0.0714    1.3920
   126   -0.8693   -0.8293    0.0426    0.0401    0.9408
   127    2.0817    1.1865   -0.9318   -0.8952    0.9607
   128   -0.9899   -1.2421    1.2244   -0.2522   -0.2060
   129   -0.6002   -1.0808   -0.3420   -0.4806    1.4052

 GradGradGradGradGradGradGradGradGradGradGradGradGradGradGradGradGradGrad
 Berny optimization.
 Initialization pass.
                           ----------------------------
                           !    Initial Parameters    !
                           ! (Angstroms and Degrees)  !
 --------------------------                            --------------------------
 ! Name  Definition         TS        Reactant Product Derivative Info.         !
 --------------------------------------------------------------------------------
 ! R1    R(1,2)             1.3161    1.4888    1.3356 calculate D2E/DX2 analyti!
 ! R2    R(1,6)             1.453     1.4903    1.5045 calculate D2E/DX2 analyti!
 ! R3    R(1,18)            2.6416    3.1347    2.2966 calculate D2E/DX2 analyti!
 ! R4    R(1,19)            1.0832    1.0811    1.0853 calculate D2E/DX2 analyti!
 ! R5    R(2,3)             1.4928    1.5328    1.5054 calculate D2E/DX2 analyti!
 ! R6    R(2,15)            1.094     1.1028    1.0853 calculate D2E/DX2 analyti!
 ! R7    R(2,16)            2.5539    1.4327    3.7219 calculate D2E/DX2 analyti!
 ! R8    R(2,18)            2.7011    2.8795    2.2763 calculate D2E/DX2 analyti!
 ! R9    R(3,4)             1.5809    1.5321    1.533  calculate D2E/DX2 analyti!
 ! R10   R(3,13)            1.0943    1.093     1.0956 calculate D2E/DX2 analyti!
 ! R11   R(3,14)            1.0917    1.0903    1.0932 calculate D2E/DX2 analyti!
 ! R12   R(4,5)             1.5571    1.53      1.5307 calculate D2E/DX2 analyti!
 ! R13   R(4,11)            1.0913    1.0916    1.091  calculate D2E/DX2 analyti!
 ! R14   R(4,12)            1.0946    1.0951    1.0942 calculate D2E/DX2 analyti!
 ! R15   R(5,6)             1.5634    1.5381    1.5328 calculate D2E/DX2 analyti!
 ! R16   R(5,9)             1.0932    1.0935    1.0929 calculate D2E/DX2 analyti!
 ! R17   R(5,10)            1.0915    1.0918    1.0912 calculate D2E/DX2 analyti!
 ! R18   R(6,7)             1.0925    1.0917    1.0932 calculate D2E/DX2 analyti!
 ! R19   R(6,8)             1.1       1.1035    1.0965 calculate D2E/DX2 analyti!
 ! R20   R(16,17)           1.4687    1.4541    1.3282 calculate D2E/DX2 analyti!
 ! R21   R(17,18)           0.8914    0.9661    0.9869 calculate D2E/DX2 analyti!
 ! A1    A(2,1,6)         134.1381  119.2018  123.4881 calculate D2E/DX2 analyti!
 ! A2    A(2,1,19)        111.1164  118.2847  119.3045 calculate D2E/DX2 analyti!
 ! A3    A(6,1,18)        140.1293  173.4371  106.28   calculate D2E/DX2 analyti!
 ! A4    A(6,1,19)        113.7252  120.2029  117.1901 calculate D2E/DX2 analyti!
 ! A5    A(18,1,19)        50.9818   53.5196   93.181  calculate D2E/DX2 analyti!
 ! A6    A(1,2,3)         118.3037  112.2167  123.5065 calculate D2E/DX2 analyti!
 ! A7    A(1,2,15)        117.9467  110.1936  119.2827 calculate D2E/DX2 analyti!
 ! A8    A(1,2,16)         98.6615  113.4085   82.8035 calculate D2E/DX2 analyti!
 ! A9    A(3,2,15)        116.6969  108.4464  117.1852 calculate D2E/DX2 analyti!
 ! A10   A(3,2,16)         96.4974  105.0204   84.1363 calculate D2E/DX2 analyti!
 ! A11   A(3,2,18)        129.4348  137.1834  106.6681 calculate D2E/DX2 analyti!
 ! A12   A(15,2,16)       101.5503  107.2512  105.567  calculate D2E/DX2 analyti!
 ! A13   A(15,2,18)        92.7248  100.3632   91.3715 calculate D2E/DX2 analyti!
 ! A14   A(16,2,18)        34.7834   34.5903   22.8816 calculate D2E/DX2 analyti!
 ! A15   A(2,3,4)         108.3746  110.9346  112.0673 calculate D2E/DX2 analyti!
 ! A16   A(2,3,13)        108.5199  108.2621  109.3737 calculate D2E/DX2 analyti!
 ! A17   A(2,3,14)        111.3637  109.2376  109.0936 calculate D2E/DX2 analyti!
 ! A18   A(4,3,13)        111.8193  109.6964  110.1894 calculate D2E/DX2 analyti!
 ! A19   A(4,3,14)        110.8449  111.2034  110.3994 calculate D2E/DX2 analyti!
 ! A20   A(13,3,14)       105.9125  107.3962  105.4995 calculate D2E/DX2 analyti!
 ! A21   A(3,4,5)         112.4119  111.6023  111.1014 calculate D2E/DX2 analyti!
 ! A22   A(3,4,11)        106.808   109.394   110.0007 calculate D2E/DX2 analyti!
 ! A23   A(3,4,12)        108.3563  109.5502  109.117  calculate D2E/DX2 analyti!
 ! A24   A(5,4,11)        111.9498  110.2529  110.5379 calculate D2E/DX2 analyti!
 ! A25   A(5,4,12)        108.5959  109.4976  109.2628 calculate D2E/DX2 analyti!
 ! A26   A(11,4,12)       108.5971  106.4056  106.7081 calculate D2E/DX2 analyti!
 ! A27   A(4,5,6)         113.3466  111.2423  111.0472 calculate D2E/DX2 analyti!
 ! A28   A(4,5,9)         106.5068  109.1663  109.1304 calculate D2E/DX2 analyti!
 ! A29   A(4,5,10)        113.0167  110.3965  110.5619 calculate D2E/DX2 analyti!
 ! A30   A(6,5,9)         107.6378  109.132   109.0886 calculate D2E/DX2 analyti!
 ! A31   A(6,5,10)        107.1777  109.886   109.9635 calculate D2E/DX2 analyti!
 ! A32   A(9,5,10)        108.9764  106.908   106.9456 calculate D2E/DX2 analyti!
 ! A33   A(1,6,5)         105.07    112.041   112.2775 calculate D2E/DX2 analyti!
 ! A34   A(1,6,7)         115.187   110.5034  109.6129 calculate D2E/DX2 analyti!
 ! A35   A(1,6,8)         108.4197  109.7934  108.6034 calculate D2E/DX2 analyti!
 ! A36   A(5,6,7)         110.4363  110.726   110.3473 calculate D2E/DX2 analyti!
 ! A37   A(5,6,8)         113.5961  108.0351  110.3827 calculate D2E/DX2 analyti!
 ! A38   A(7,6,8)         104.3746  105.5016  105.3722 calculate D2E/DX2 analyti!
 ! A39   A(2,16,17)        89.7123  107.7111   58.3001 calculate D2E/DX2 analyti!
 ! A40   A(16,17,18)       79.7744  100.3374  105.1446 calculate D2E/DX2 analyti!
 ! A41   A(1,18,17)       123.7507   68.3339  163.633  calculate D2E/DX2 analyti!
 ! A42   A(2,18,17)        96.5727   47.0564  161.704  calculate D2E/DX2 analyti!
 ! D1    D(6,1,2,3)       -26.7077  -44.3269    1.5064 calculate D2E/DX2 analyti!
 ! D2    D(6,1,2,15)      122.9855   76.6304  179.6122 calculate D2E/DX2 analyti!
 ! D3    D(6,1,2,16)     -128.9498 -163.1344  -76.5416 calculate D2E/DX2 analyti!
 ! D4    D(19,1,2,3)      165.937   152.8872 -176.9359 calculate D2E/DX2 analyti!
 ! D5    D(19,1,2,15)     -44.3698  -86.1554    1.1699 calculate D2E/DX2 analyti!
 ! D6    D(19,1,2,16)      63.6949   34.0797  105.0161 calculate D2E/DX2 analyti!
 ! D7    D(2,1,6,5)        28.7294   43.765    13.5712 calculate D2E/DX2 analyti!
 ! D8    D(2,1,6,7)       150.4799  167.7533  136.5878 calculate D2E/DX2 analyti!
 ! D9    D(2,1,6,8)       -93.0467  -76.2806 -108.7748 calculate D2E/DX2 analyti!
 ! D10   D(18,1,6,5)     -107.2908 -170.1426  -65.5395 calculate D2E/DX2 analyti!
 ! D11   D(18,1,6,7)       14.4598  -46.1543   57.4771 calculate D2E/DX2 analyti!
 ! D12   D(18,1,6,8)      130.9331   69.8119  172.1145 calculate D2E/DX2 analyti!
 ! D13   D(19,1,6,5)     -164.1592 -153.7854 -167.9559 calculate D2E/DX2 analyti!
 ! D14   D(19,1,6,7)      -42.4087  -29.7971  -44.9393 calculate D2E/DX2 analyti!
 ! D15   D(19,1,6,8)       74.0647   86.169    69.6981 calculate D2E/DX2 analyti!
 ! D16   D(6,1,18,17)     168.9391 -111.8977  -46.7449 calculate D2E/DX2 analyti!
 ! D17   D(19,1,18,17)   -110.4016 -129.5179   72.7928 calculate D2E/DX2 analyti!
 ! D18   D(1,2,3,4)        32.6305   49.1437   14.1502 calculate D2E/DX2 analyti!
 ! D19   D(1,2,3,13)      -88.9911  -71.2695 -108.3507 calculate D2E/DX2 analyti!
 ! D20   D(1,2,3,14)      154.8086  172.0758  136.721  calculate D2E/DX2 analyti!
 ! D21   D(15,2,3,4)     -117.4373  -72.8149 -163.9925 calculate D2E/DX2 analyti!
 ! D22   D(15,2,3,13)     120.9411  166.7719   73.5067 calculate D2E/DX2 analyti!
 ! D23   D(15,2,3,14)       4.7408   50.1173  -41.4217 calculate D2E/DX2 analyti!
 ! D24   D(16,2,3,4)      136.1328  172.78     91.4985 calculate D2E/DX2 analyti!
 ! D25   D(16,2,3,13)      14.5113   52.3667  -31.0023 calculate D2E/DX2 analyti!
 ! D26   D(16,2,3,14)    -101.689   -64.2879 -145.9306 calculate D2E/DX2 analyti!
 ! D27   D(18,2,3,4)      123.7154  157.4671   95.5291 calculate D2E/DX2 analyti!
 ! D28   D(18,2,3,13)       2.0938   37.0539  -26.9717 calculate D2E/DX2 analyti!
 ! D29   D(18,2,3,14)    -114.1065  -79.6008 -141.9001 calculate D2E/DX2 analyti!
 ! D30   D(1,2,16,17)     -74.928   -69.1695  -78.533  calculate D2E/DX2 analyti!
 ! D31   D(3,2,16,17)     165.0677  167.9587  156.5556 calculate D2E/DX2 analyti!
 ! D32   D(15,2,16,17)     46.0686   52.7214   39.9306 calculate D2E/DX2 analyti!
 ! D33   D(18,2,16,17)    -31.8577  -30.4726  -13.472  calculate D2E/DX2 analyti!
 ! D34   D(3,2,18,17)      83.0803  110.0654   47.8316 calculate D2E/DX2 analyti!
 ! D35   D(15,2,18,17)    -45.3451  -22.0515  -71.1292 calculate D2E/DX2 analyti!
 ! D36   D(16,2,18,17)     61.0859   83.367    58.1912 calculate D2E/DX2 analyti!
 ! D37   D(2,3,4,5)       -48.5638  -57.1775  -44.1605 calculate D2E/DX2 analyti!
 ! D38   D(2,3,4,11)     -171.7224 -179.4611 -166.8875 calculate D2E/DX2 analyti!
 ! D39   D(2,3,4,12)       71.4548   64.2593   76.3709 calculate D2E/DX2 analyti!
 ! D40   D(13,3,4,5)       71.0079   62.3809   77.8757 calculate D2E/DX2 analyti!
 ! D41   D(13,3,4,11)     -52.1507  -59.9028  -44.8514 calculate D2E/DX2 analyti!
 ! D42   D(13,3,4,12)    -168.9735 -176.1824 -161.5929 calculate D2E/DX2 analyti!
 ! D43   D(14,3,4,5)     -171.0582 -178.9669 -165.9869 calculate D2E/DX2 analyti!
 ! D44   D(14,3,4,11)      65.7832   58.7495   71.2861 calculate D2E/DX2 analyti!
 ! D45   D(14,3,4,12)     -51.0396  -57.5302  -45.4555 calculate D2E/DX2 analyti!
 ! D46   D(3,4,5,6)        56.1166   56.8295   60.0403 calculate D2E/DX2 analyti!
 ! D47   D(3,4,5,9)       -62.0551  -63.6603  -60.2493 calculate D2E/DX2 analyti!
 ! D48   D(3,4,5,10)      178.3157  179.0985 -177.6113 calculate D2E/DX2 analyti!
 ! D49   D(11,4,5,6)      176.3447  178.6183 -177.5432 calculate D2E/DX2 analyti!
 ! D50   D(11,4,5,9)       58.1729   58.1285   62.1672 calculate D2E/DX2 analyti!
 ! D51   D(11,4,5,10)     -61.4562  -59.1127  -55.1948 calculate D2E/DX2 analyti!
 ! D52   D(12,4,5,6)      -63.7631  -64.6377  -60.4049 calculate D2E/DX2 analyti!
 ! D53   D(12,4,5,9)      178.0652  174.8725  179.3055 calculate D2E/DX2 analyti!
 ! D54   D(12,4,5,10)      58.436    57.6313   61.9435 calculate D2E/DX2 analyti!
 ! D55   D(4,5,6,1)       -40.4605  -48.3108  -43.5668 calculate D2E/DX2 analyti!
 ! D56   D(4,5,6,7)      -165.2571 -172.1746 -166.1692 calculate D2E/DX2 analyti!
 ! D57   D(4,5,6,8)        77.8792   72.7554   77.7648 calculate D2E/DX2 analyti!
 ! D58   D(9,5,6,1)        77.0536   72.1992   76.7476 calculate D2E/DX2 analyti!
 ! D59   D(9,5,6,7)       -47.743   -51.6647  -45.8548 calculate D2E/DX2 analyti!
 ! D60   D(9,5,6,8)      -164.6066 -166.7346 -161.9208 calculate D2E/DX2 analyti!
 ! D61   D(10,5,6,1)     -165.8534 -170.8746 -166.2618 calculate D2E/DX2 analyti!
 ! D62   D(10,5,6,7)       69.35     65.2615   71.1358 calculate D2E/DX2 analyti!
 ! D63   D(10,5,6,8)      -47.5137  -49.8084  -44.9301 calculate D2E/DX2 analyti!
 ! D64   D(2,16,17,18)     67.9836  119.2746   12.5015 calculate D2E/DX2 analyti!
 ! D65   D(16,17,18,1)    -71.1668  -56.7178   83.5839 calculate D2E/DX2 analyti!
 ! D66   D(16,17,18,2)    -61.9262  -34.3875  -73.5824 calculate D2E/DX2 analyti!
 --------------------------------------------------------------------------------
 Trust Radius=3.00D-01 FncErr=1.00D-07 GrdErr=1.00D-06 EigMax=2.50D+02 EigMin=1.00D-04
 Number of steps in this run=    114 maximum allowed number of steps=    114.
 Search for a saddle point of order  1.
 GradGradGradGradGradGradGradGradGradGradGradGradGradGradGradGradGradGrad

                          Input orientation:                          
 ---------------------------------------------------------------------
 Center     Atomic      Atomic             Coordinates (Angstroms)
 Number     Number       Type             X           Y           Z
 ---------------------------------------------------------------------
      1          6           0       -0.012913    0.930492    0.344583
      2          6           0       -0.470947   -0.278498    0.590777
      3          6           0        0.345485   -1.448016    0.150221
      4          6           0        1.873409   -1.053589    0.246059
      5          6           0        2.174262    0.321913   -0.418699
      6          6           0        1.314826    1.491757    0.161785
      7          1           0        1.364669    2.363766   -0.494431
      8          1           0        1.673036    1.860873    1.134128
      9          1           0        1.920232    0.217688   -1.476876
     10          1           0        3.221393    0.617636   -0.332518
     11          1           0        2.438168   -1.863527   -0.218752
     12          1           0        2.149357   -0.997863    1.303866
     13          1           0        0.056042   -1.708500   -0.872439
     14          1           0        0.133641   -2.331555    0.755514
     15          1           0       -1.092711   -0.420045    1.479754
     16          8           0       -2.208133   -0.419154   -1.275936
     17          8           0       -3.086241    0.480382   -0.516447
     18          1           0       -2.425996    1.042072   -0.724373
     19          1           0       -0.786159    1.676383    0.482733
 ---------------------------------------------------------------------
                    Distance matrix (angstroms):
                    1          2          3          4          5
     1  C    0.000000
     2  C    1.316079   0.000000
     3  C    2.413198   1.492790   0.000000
     4  C    2.739433   2.493111   1.580921   0.000000
     5  C    2.395141   2.894247   2.607824   1.557055   0.000000
     6  C    1.453039   2.550848   3.095484   2.607279   1.563371
     7  H    2.157765   3.395397   3.997999   3.533476   2.197804
     8  H    2.081204   3.077142   3.698541   3.053342   2.242966
     9  H    2.750064   3.199864   2.811022   2.141692   1.093222
    10  H    3.319199   3.910104   3.573626   2.223692   1.091496
    11  H    3.759213   3.410367   2.165205   1.091331   2.210378
    12  H    3.051915   2.809266   2.188033   1.094627   2.170175
    13  H    2.906919   2.112729   1.094287   2.232212   2.969059
    14  H    3.291093   2.146557   1.091741   2.218002   3.547365
    15  H    2.068461   1.094033   2.211965   3.274332   3.850681
    16  O    3.044112   2.553863   3.100556   4.402041   4.526524
    17  O    3.223246   2.939660   3.992481   5.247152   5.263797
    18  H    2.641607   2.701063   3.827083   4.880412   4.666309
    19  H    1.083213   1.983077   3.339619   3.818647   3.378056
                    6          7          8          9         10
     6  C    0.000000
     7  H    1.092476   0.000000
     8  H    1.100005   1.732108   0.000000
     9  H    2.162170   2.424767   3.094916   0.000000
    10  H    2.154860   2.553940   2.468623   1.778352   0.000000
    11  H    3.558741   4.370172   4.035699   2.486482   2.604334
    12  H    2.863389   3.892320   2.903113   3.043451   2.537095
    13  H    3.591073   4.294036   4.402432   2.747863   3.965082
    14  H    4.045420   5.012368   4.482135   3.830681   4.406331
    15  H    3.344887   4.205441   3.601583   4.269215   4.792976
    16  O    4.257917   4.595683   5.105918   4.182026   5.607560
    17  O    4.566428   4.833034   5.223109   5.104527   6.311808
    18  H    3.870561   4.021056   4.574552   4.487268   5.676857
    19  H    2.133362   2.460367   2.550685   3.645876   4.224460
                   11         12         13         14         15
    11  H    0.000000
    12  H    1.775149   0.000000
    13  H    2.475048   3.102140   0.000000
    14  H    2.545405   2.478414   1.744835   0.000000
    15  H    4.175605   3.297850   2.917630   2.383765   0.000000
    16  O    4.979153   5.096862   2.636610   3.642523   2.972877
    17  O    6.008462   5.736744   3.846020   4.460102   2.961376
    18  H    5.688431   5.404530   3.707841   4.485885   2.962028
    19  H    4.839353   4.055010   3.742089   4.121167   2.341589
                   16         17         18         19
    16  O    0.000000
    17  O    1.468694   0.000000
    18  H    1.576981   0.891432   0.000000
    19  H    3.083213   2.778337   2.132726   0.000000
 Stoichiometry    C6H11O2(2)
 Framework group  C1[X(C6H11O2)]
 Deg. of freedom    51
 Full point group                 C1      NOp   1
 Largest Abelian subgroup         C1      NOp   1
 Largest concise Abelian subgroup C1      NOp   1
                         Standard orientation:                         
 ---------------------------------------------------------------------
 Center     Atomic      Atomic             Coordinates (Angstroms)
 Number     Number       Type             X           Y           Z
 ---------------------------------------------------------------------
      1          6           0       -0.072182    0.926048   -0.433280
      2          6           0        0.304696   -0.290692   -0.764297
      3          6           0       -0.461639   -1.444876   -0.208409
      4          6           0       -1.972759   -1.008864   -0.048037
      5          6           0       -2.121376    0.363755    0.671858
      6          6           0       -1.335531    1.519274   -0.029105
      7          1           0       -1.252388    2.382145    0.635759
      8          1           0       -1.837392    1.912553   -0.925475
      9          1           0       -1.700639    0.236677    1.672841
     10          1           0       -3.159622    0.688279    0.761819
     11          1           0       -2.476690   -1.810647    0.494366
     12          1           0       -2.416432   -0.929691   -1.045581
     13          1           0       -0.016253   -1.728531    0.750045
     14          1           0       -0.377025   -2.324325   -0.849743
     15          1           0        0.768264   -0.434962   -1.744704
     16          8           0        2.319279   -0.505682    0.790517
     17          8           0        3.086524    0.381902   -0.092993
     18          1           0        2.485517    0.957563    0.226470
     19          1           0        0.688982    1.653313   -0.688360
 ---------------------------------------------------------------------
 Rotational constants (GHZ):           3.4391542           1.1557730           0.9875121
 Standard basis: CC-pVTZ+d (5D, 7F)
 There are   445 symmetry adapted cartesian basis functions of A   symmetry.
 There are   394 symmetry adapted basis functions of A   symmetry.
   394 basis functions,   603 primitive gaussians,   445 cartesian basis functions
    32 alpha electrons       31 beta electrons
       nuclear repulsion energy       376.5457997126 Hartrees.
 NAtoms=   19 NActive=   19 NUniq=   19 SFac= 1.00D+00 NAtFMM=   60 NAOKFM=F Big=F
 Integral buffers will be    131072 words long.
 Raffenetti 2 integral format.
 Two-electron integral symmetry is turned on.
 One-electron integrals computed using PRISM.
 NBasis=   394 RedAO= T EigKep=  2.10D-04  NBF=   394
 NBsUse=   394 1.00D-06 EigRej= -1.00D+00 NBFU=   394
 ExpMin= 1.03D-01 ExpMax= 1.53D+04 ExpMxC= 5.22D+02 IAcc=3 IRadAn=         5 AccDes= 0.00D+00
 Harris functional with IExCor=  402 and IRadAn=       5 diagonalized for initial guess.
 HarFok:  IExCor=  402 AccDes= 0.00D+00 IRadAn=         5 IDoV= 1 UseB2=F ITyADJ=14
 ICtDFT=  3500011 ScaDFX=  1.000000  1.000000  1.000000  1.000000
 FoFCou: FMM=F IPFlag=           0 FMFlag=      100000 FMFlg1=           0
         NFxFlg=           0 DoJE=T BraDBF=F KetDBF=T FulRan=T
         wScrn=  0.000000 ICntrl=       500 IOpCl=  0 I1Cent=   200000004 NGrid=           0
         NMat0=    1 NMatS0=      1 NMatT0=    0 NMatD0=    1 NMtDS0=    0 NMtDT0=    0
 Petite list used in FoFCou.
 Initial guess <Sx>= 0.0000 <Sy>= 0.0000 <Sz>= 0.5000 <S**2>= 0.7500 S= 0.5000
 Requested convergence on RMS density matrix=1.00D-08 within 128 cycles.
 Requested convergence on MAX density matrix=1.00D-06.
 Requested convergence on             energy=1.00D-06.
 No special actions if energy rises.
 Integral accuracy reduced to 1.0D-05 until final iterations.
 Initial convergence to 1.0D-05 achieved.  Increase integral accuracy.
 SCF Done:  E(UB3LYP) =  -385.622280117     A.U. after   24 cycles
            NFock= 24  Conv=0.70D-08     -V/T= 2.0059
 <Sx>= 0.0000 <Sy>= 0.0000 <Sz>= 0.5000 <S**2>= 0.7600 S= 0.5050
 <L.S>= 0.000000000000E+00
 Annihilation of the first spin contaminant:
 S**2 before annihilation     0.7600,   after     0.7501
 DoSCS=F DFT=T ScalE2(SS,OS)=  1.000000  1.000000
 Range of M.O.s used for correlation:     1   394
 NBasis=   394 NAE=    32 NBE=    31 NFC=     0 NFV=     0
 NROrb=    394 NOA=    32 NOB=    31 NVA=   362 NVB=   363

 **** Warning!!: The largest alpha MO coefficient is  0.15633932D+02


 **** Warning!!: The largest beta MO coefficient is  0.15739227D+02


 **** Warning!!: The smallest beta delta epsilon is  0.93732177D-01

 Symmetrizing basis deriv contribution to polar:
 IMax=3 JMax=2 DiffMx= 0.00D+00
 G2DrvN: will do    20 centers at a time, making    1 passes.
 Calling FoFCou, ICntrl=  3107 FMM=F I1Cent=   0 AccDes= 0.00D+00.
 End of G2Drv F.D. properties file   721 does not exist.
 End of G2Drv F.D. properties file   722 does not exist.
 End of G2Drv F.D. properties file   788 does not exist.
          IDoAtm=1111111111111111111
          Differentiating once with respect to nuclear coordinates.
 CalDSu exits because no D1Ps are significant.
          There are    60 degrees of freedom in the 1st order CPHF.  IDoFFX=6 NUNeed=     0.
     54 vectors produced by pass  0 Test12= 3.81D-14 1.67D-09 XBig12= 2.61D-01 1.61D-01.
 AX will form    54 AO Fock derivatives at one time.
     54 vectors produced by pass  1 Test12= 3.81D-14 1.67D-09 XBig12= 4.93D-02 7.42D-02.
     54 vectors produced by pass  2 Test12= 3.81D-14 1.67D-09 XBig12= 6.73D-04 3.95D-03.
     54 vectors produced by pass  3 Test12= 3.81D-14 1.67D-09 XBig12= 3.24D-06 2.66D-04.
     54 vectors produced by pass  4 Test12= 3.81D-14 1.67D-09 XBig12= 2.13D-08 1.74D-05.
     54 vectors produced by pass  5 Test12= 3.81D-14 1.67D-09 XBig12= 1.23D-10 1.32D-06.
     35 vectors produced by pass  6 Test12= 3.81D-14 1.67D-09 XBig12= 7.14D-13 9.23D-08.
      9 vectors produced by pass  7 Test12= 3.81D-14 1.67D-09 XBig12= 3.00D-15 3.76D-09.
 InvSVY:  IOpt=1 It=  1 EMax= 6.66D-16
 Solved reduced A of dimension   368 with    60 vectors.
 End of Minotr F.D. properties file   721 does not exist.
 End of Minotr F.D. properties file   722 does not exist.
 End of Minotr F.D. properties file   788 does not exist.

 **********************************************************************

            Population analysis using the SCF Density.

 **********************************************************************

 Orbital symmetries:
 Alpha Orbitals:
       Occupied  (A) (A) (A) (A) (A) (A) (A) (A) (A) (A) (A) (A)
                 (A) (A) (A) (A) (A) (A) (A) (A) (A) (A) (A) (A)
                 (A) (A) (A) (A) (A) (A) (A) (A)
       Virtual   (A) (A) (A) (A) (A) (A) (A) (A) (A) (A) (A) (A)
                 (A) (A) (A) (A) (A) (A) (A) (A) (A) (A) (A) (A)
                 (A) (A) (A) (A) (A) (A) (A) (A) (A) (A) (A) (A)
                 (A) (A) (A) (A) (A) (A) (A) (A) (A) (A) (A) (A)
                 (A) (A) (A) (A) (A) (A) (A) (A) (A) (A) (A) (A)
                 (A) (A) (A) (A) (A) (A) (A) (A) (A) (A) (A) (A)
                 (A) (A) (A) (A) (A) (A) (A) (A) (A) (A) (A) (A)
                 (A) (A) (A) (A) (A) (A) (A) (A) (A) (A) (A) (A)
                 (A) (A) (A) (A) (A) (A) (A) (A) (A) (A) (A) (A)
                 (A) (A) (A) (A) (A) (A) (A) (A) (A) (A) (A) (A)
                 (A) (A) (A) (A) (A) (A) (A) (A) (A) (A) (A) (A)
                 (A) (A) (A) (A) (A) (A) (A) (A) (A) (A) (A) (A)
                 (A) (A) (A) (A) (A) (A) (A) (A) (A) (A) (A) (A)
                 (A) (A) (A) (A) (A) (A) (A) (A) (A) (A) (A) (A)
                 (A) (A) (A) (A) (A) (A) (A) (A) (A) (A) (A) (A)
                 (A) (A) (A) (A) (A) (A) (A) (A) (A) (A) (A) (A)
                 (A) (A) (A) (A) (A) (A) (A) (A) (A) (A) (A) (A)
                 (A) (A) (A) (A) (A) (A) (A) (A) (A) (A) (A) (A)
                 (A) (A) (A) (A) (A) (A) (A) (A) (A) (A) (A) (A)
                 (A) (A) (A) (A) (A) (A) (A) (A) (A) (A) (A) (A)
                 (A) (A) (A) (A) (A) (A) (A) (A) (A) (A) (A) (A)
                 (A) (A) (A) (A) (A) (A) (A) (A) (A) (A) (A) (A)
                 (A) (A) (A) (A) (A) (A) (A) (A) (A) (A) (A) (A)
                 (A) (A) (A) (A) (A) (A) (A) (A) (A) (A) (A) (A)
                 (A) (A) (A) (A) (A) (A) (A) (A) (A) (A) (A) (A)
                 (A) (A) (A) (A) (A) (A) (A) (A) (A) (A) (A) (A)
                 (A) (A) (A) (A) (A) (A) (A) (A) (A) (A) (A) (A)
                 (A) (A) (A) (A) (A) (A) (A) (A) (A) (A) (A) (A)
                 (A) (A) (A) (A) (A) (A) (A) (A) (A) (A) (A) (A)
                 (A) (A) (A) (A) (A) (A) (A) (A) (A) (A) (A) (A)
                 (A) (A)
 Beta  Orbitals:
       Occupied  (A) (A) (A) (A) (A) (A) (A) (A) (A) (A) (A) (A)
                 (A) (A) (A) (A) (A) (A) (A) (A) (A) (A) (A) (A)
                 (A) (A) (A) (A) (A) (A) (A)
       Virtual   (A) (A) (A) (A) (A) (A) (A) (A) (A) (A) (A) (A)
                 (A) (A) (A) (A) (A) (A) (A) (A) (A) (A) (A) (A)
                 (A) (A) (A) (A) (A) (A) (A) (A) (A) (A) (A) (A)
                 (A) (A) (A) (A) (A) (A) (A) (A) (A) (A) (A) (A)
                 (A) (A) (A) (A) (A) (A) (A) (A) (A) (A) (A) (A)
                 (A) (A) (A) (A) (A) (A) (A) (A) (A) (A) (A) (A)
                 (A) (A) (A) (A) (A) (A) (A) (A) (A) (A) (A) (A)
                 (A) (A) (A) (A) (A) (A) (A) (A) (A) (A) (A) (A)
                 (A) (A) (A) (A) (A) (A) (A) (A) (A) (A) (A) (A)
                 (A) (A) (A) (A) (A) (A) (A) (A) (A) (A) (A) (A)
                 (A) (A) (A) (A) (A) (A) (A) (A) (A) (A) (A) (A)
                 (A) (A) (A) (A) (A) (A) (A) (A) (A) (A) (A) (A)
                 (A) (A) (A) (A) (A) (A) (A) (A) (A) (A) (A) (A)
                 (A) (A) (A) (A) (A) (A) (A) (A) (A) (A) (A) (A)
                 (A) (A) (A) (A) (A) (A) (A) (A) (A) (A) (A) (A)
                 (A) (A) (A) (A) (A) (A) (A) (A) (A) (A) (A) (A)
                 (A) (A) (A) (A) (A) (A) (A) (A) (A) (A) (A) (A)
                 (A) (A) (A) (A) (A) (A) (A) (A) (A) (A) (A) (A)
                 (A) (A) (A) (A) (A) (A) (A) (A) (A) (A) (A) (A)
                 (A) (A) (A) (A) (A) (A) (A) (A) (A) (A) (A) (A)
                 (A) (A) (A) (A) (A) (A) (A) (A) (A) (A) (A) (A)
                 (A) (A) (A) (A) (A) (A) (A) (A) (A) (A) (A) (A)
                 (A) (A) (A) (A) (A) (A) (A) (A) (A) (A) (A) (A)
                 (A) (A) (A) (A) (A) (A) (A) (A) (A) (A) (A) (A)
                 (A) (A) (A) (A) (A) (A) (A) (A) (A) (A) (A) (A)
                 (A) (A) (A) (A) (A) (A) (A) (A) (A) (A) (A) (A)
                 (A) (A) (A) (A) (A) (A) (A) (A) (A) (A) (A) (A)
                 (A) (A) (A) (A) (A) (A) (A) (A) (A) (A) (A) (A)
                 (A) (A) (A) (A) (A) (A) (A) (A) (A) (A) (A) (A)
                 (A) (A) (A) (A) (A) (A) (A) (A) (A) (A) (A) (A)
                 (A) (A) (A)
 The electronic state is 2-A.
 Alpha  occ. eigenvalues --  -19.20923 -19.20852 -10.18784 -10.17965 -10.17897
 Alpha  occ. eigenvalues --  -10.17869 -10.17763 -10.17155  -1.13891  -0.87320
 Alpha  occ. eigenvalues --   -0.84815  -0.75562  -0.74963  -0.63404  -0.60617
 Alpha  occ. eigenvalues --   -0.53156  -0.52333  -0.50253  -0.45727  -0.45497
 Alpha  occ. eigenvalues --   -0.44831  -0.44086  -0.42642  -0.40234  -0.38790
 Alpha  occ. eigenvalues --   -0.37732  -0.34222  -0.33097  -0.31806  -0.31121
 Alpha  occ. eigenvalues --   -0.29841  -0.23116
 Alpha virt. eigenvalues --   -0.02980  -0.00681   0.03514   0.05545   0.05975
 Alpha virt. eigenvalues --    0.06279   0.08753   0.09290   0.10543   0.11071
 Alpha virt. eigenvalues --    0.11409   0.13643   0.14555   0.16763   0.19071
 Alpha virt. eigenvalues --    0.20535   0.21780   0.22416   0.25617   0.26012
 Alpha virt. eigenvalues --    0.27906   0.29540   0.30215   0.30692   0.32203
 Alpha virt. eigenvalues --    0.34459   0.35848   0.39123   0.39676   0.41229
 Alpha virt. eigenvalues --    0.41997   0.42508   0.42861   0.43493   0.43876
 Alpha virt. eigenvalues --    0.44879   0.45221   0.45981   0.46179   0.46638
 Alpha virt. eigenvalues --    0.47913   0.48485   0.48636   0.49840   0.51303
 Alpha virt. eigenvalues --    0.51634   0.52712   0.55335   0.56801   0.58203
 Alpha virt. eigenvalues --    0.61826   0.63255   0.64776   0.66019   0.67628
 Alpha virt. eigenvalues --    0.69051   0.70035   0.72311   0.75132   0.76152
 Alpha virt. eigenvalues --    0.77146   0.79943   0.80163   0.80719   0.83183
 Alpha virt. eigenvalues --    0.86235   0.88456   0.89787   0.91455   0.93239
 Alpha virt. eigenvalues --    0.94474   0.97236   0.97594   0.99318   1.00126
 Alpha virt. eigenvalues --    1.01237   1.03451   1.04627   1.05082   1.06707
 Alpha virt. eigenvalues --    1.08244   1.08443   1.10133   1.11296   1.12254
 Alpha virt. eigenvalues --    1.14404   1.15222   1.17096   1.17819   1.18429
 Alpha virt. eigenvalues --    1.19241   1.20907   1.21531   1.23183   1.25326
 Alpha virt. eigenvalues --    1.26125   1.26827   1.27704   1.29129   1.31886
 Alpha virt. eigenvalues --    1.32427   1.34172   1.35033   1.36344   1.36499
 Alpha virt. eigenvalues --    1.39368   1.40129   1.40742   1.42637   1.44064
 Alpha virt. eigenvalues --    1.46006   1.47312   1.48873   1.49581   1.50085
 Alpha virt. eigenvalues --    1.52123   1.52290   1.56403   1.57579   1.59127
 Alpha virt. eigenvalues --    1.61127   1.64983   1.68374   1.69643   1.73847
 Alpha virt. eigenvalues --    1.77101   1.79617   1.82433   1.83332   1.85200
 Alpha virt. eigenvalues --    1.90409   1.91525   2.00048   2.04958   2.14132
 Alpha virt. eigenvalues --    2.22459   2.22805   2.29801   2.31887   2.32939
 Alpha virt. eigenvalues --    2.34046   2.37343   2.38655   2.41740   2.42719
 Alpha virt. eigenvalues --    2.44063   2.45061   2.47475   2.49501   2.51344
 Alpha virt. eigenvalues --    2.54207   2.55349   2.56913   2.57115   2.59404
 Alpha virt. eigenvalues --    2.60575   2.61369   2.62761   2.64749   2.65897
 Alpha virt. eigenvalues --    2.66633   2.68965   2.71779   2.73255   2.74115
 Alpha virt. eigenvalues --    2.75033   2.77795   2.78938   2.83724   2.85438
 Alpha virt. eigenvalues --    2.88214   2.90196   2.91425   2.93429   2.96049
 Alpha virt. eigenvalues --    2.96979   2.97615   2.99235   3.02740   3.03173
 Alpha virt. eigenvalues --    3.05045   3.06206   3.06675   3.08167   3.09069
 Alpha virt. eigenvalues --    3.10138   3.11762   3.12446   3.12538   3.14367
 Alpha virt. eigenvalues --    3.15876   3.18576   3.18917   3.20375   3.21986
 Alpha virt. eigenvalues --    3.22592   3.24294   3.24843   3.26340   3.27837
 Alpha virt. eigenvalues --    3.29451   3.30574   3.33029   3.33240   3.35005
 Alpha virt. eigenvalues --    3.38651   3.41062   3.42719   3.43269   3.43784
 Alpha virt. eigenvalues --    3.47306   3.48206   3.49373   3.50436   3.53332
 Alpha virt. eigenvalues --    3.54470   3.56125   3.58172   3.58981   3.60776
 Alpha virt. eigenvalues --    3.62268   3.63112   3.64392   3.66034   3.67085
 Alpha virt. eigenvalues --    3.67791   3.68716   3.70050   3.70945   3.73726
 Alpha virt. eigenvalues --    3.74509   3.76092   3.77139   3.78351   3.80201
 Alpha virt. eigenvalues --    3.80467   3.81652   3.84674   3.86533   3.87600
 Alpha virt. eigenvalues --    3.88427   3.90889   3.92722   3.92990   3.95521
 Alpha virt. eigenvalues --    3.96473   3.97582   4.00344   4.00556   4.02123
 Alpha virt. eigenvalues --    4.03786   4.05637   4.08554   4.09730   4.11458
 Alpha virt. eigenvalues --    4.11534   4.13077   4.13625   4.15480   4.16455
 Alpha virt. eigenvalues --    4.18566   4.19432   4.20698   4.21810   4.23291
 Alpha virt. eigenvalues --    4.26536   4.27631   4.28767   4.30770   4.33521
 Alpha virt. eigenvalues --    4.34239   4.37068   4.37946   4.39557   4.43108
 Alpha virt. eigenvalues --    4.43930   4.47837   4.48094   4.52197   4.53187
 Alpha virt. eigenvalues --    4.56073   4.58840   4.61605   4.63564   4.64307
 Alpha virt. eigenvalues --    4.66851   4.69656   4.72827   4.75577   4.76422
 Alpha virt. eigenvalues --    4.78683   4.82716   4.82836   4.83534   4.85707
 Alpha virt. eigenvalues --    4.86179   4.87834   4.91070   4.92194   4.94435
 Alpha virt. eigenvalues --    4.96490   4.99494   5.01114   5.02142   5.04698
 Alpha virt. eigenvalues --    5.06168   5.08121   5.09200   5.11850   5.13157
 Alpha virt. eigenvalues --    5.17542   5.18905   5.19562   5.21199   5.24283
 Alpha virt. eigenvalues --    5.27427   5.28191   5.33171   5.36538   5.37539
 Alpha virt. eigenvalues --    5.39530   5.41149   5.44744   5.45913   5.47245
 Alpha virt. eigenvalues --    5.49694   5.50964   5.52971   5.57789   5.62860
 Alpha virt. eigenvalues --    5.63892   5.68410   5.76366   5.76656   5.79288
 Alpha virt. eigenvalues --    5.94535   5.95285   6.01544   6.03953   6.05971
 Alpha virt. eigenvalues --    6.09798   6.24448   6.24599   6.27897   6.43271
 Alpha virt. eigenvalues --    6.47064   6.73547   6.79171   6.81361   6.87072
 Alpha virt. eigenvalues --    6.97825   7.01730   7.30693   7.55348   8.91791
 Alpha virt. eigenvalues --   10.68553  11.69952  12.26706  12.44559  12.60079
 Alpha virt. eigenvalues --   13.13732  14.20864
  Beta  occ. eigenvalues --  -19.20364 -19.18810 -10.18798 -10.17960 -10.17903
  Beta  occ. eigenvalues --  -10.17856 -10.17608 -10.17152  -1.11826  -0.84708
  Beta  occ. eigenvalues --   -0.82651  -0.75550  -0.74794  -0.63337  -0.60560
  Beta  occ. eigenvalues --   -0.52857  -0.51821  -0.50115  -0.45203  -0.44579
  Beta  occ. eigenvalues --   -0.43951  -0.42534  -0.40407  -0.38805  -0.38673
  Beta  occ. eigenvalues --   -0.36909  -0.34154  -0.33061  -0.31531  -0.28567
  Beta  occ. eigenvalues --   -0.22868
  Beta virt. eigenvalues --   -0.13494  -0.02424   0.00890   0.03672   0.05640
  Beta virt. eigenvalues --    0.06018   0.06329   0.08811   0.09351   0.10569
  Beta virt. eigenvalues --    0.11096   0.11532   0.13702   0.14646   0.16848
  Beta virt. eigenvalues --    0.19089   0.20608   0.21787   0.22420   0.25640
  Beta virt. eigenvalues --    0.26054   0.27965   0.29651   0.30419   0.30773
  Beta virt. eigenvalues --    0.32306   0.34708   0.36220   0.39447   0.39776
  Beta virt. eigenvalues --    0.41275   0.42036   0.42613   0.42940   0.43576
  Beta virt. eigenvalues --    0.43954   0.44971   0.45306   0.46061   0.46288
  Beta virt. eigenvalues --    0.46694   0.48115   0.48597   0.48706   0.49891
  Beta virt. eigenvalues --    0.51493   0.51779   0.52842   0.55496   0.57020
  Beta virt. eigenvalues --    0.59140   0.62053   0.63391   0.65239   0.66543
  Beta virt. eigenvalues --    0.68458   0.69277   0.70523   0.72478   0.75695
  Beta virt. eigenvalues --    0.76255   0.77260   0.80186   0.80411   0.81907
  Beta virt. eigenvalues --    0.83365   0.86332   0.88712   0.89871   0.91578
  Beta virt. eigenvalues --    0.93520   0.94620   0.97304   0.97741   0.99439
  Beta virt. eigenvalues --    1.00324   1.01287   1.03541   1.04686   1.05297
  Beta virt. eigenvalues --    1.06831   1.08329   1.08522   1.10217   1.11411
  Beta virt. eigenvalues --    1.12334   1.14643   1.15390   1.17311   1.17902
  Beta virt. eigenvalues --    1.18573   1.19440   1.21027   1.21637   1.23270
  Beta virt. eigenvalues --    1.25529   1.26371   1.27448   1.27865   1.29457
  Beta virt. eigenvalues --    1.32027   1.32622   1.34442   1.35340   1.36565
  Beta virt. eigenvalues --    1.36944   1.39546   1.40235   1.40943   1.42773
  Beta virt. eigenvalues --    1.44164   1.46132   1.47402   1.48954   1.49734
  Beta virt. eigenvalues --    1.50400   1.52573   1.52908   1.56796   1.57935
  Beta virt. eigenvalues --    1.60298   1.61501   1.65415   1.69292   1.70879
  Beta virt. eigenvalues --    1.73966   1.77444   1.80285   1.82592   1.83953
  Beta virt. eigenvalues --    1.86017   1.90910   1.92050   2.00562   2.07132
  Beta virt. eigenvalues --    2.14421   2.22629   2.22909   2.29892   2.32378
  Beta virt. eigenvalues --    2.33655   2.34134   2.37551   2.38843   2.41817
  Beta virt. eigenvalues --    2.42825   2.44145   2.45187   2.47565   2.49572
  Beta virt. eigenvalues --    2.51336   2.54280   2.55436   2.56984   2.57220
  Beta virt. eigenvalues --    2.59525   2.60665   2.61448   2.62824   2.64799
  Beta virt. eigenvalues --    2.66027   2.66687   2.69047   2.71814   2.73417
  Beta virt. eigenvalues --    2.74231   2.75097   2.77991   2.79015   2.83842
  Beta virt. eigenvalues --    2.85472   2.88283   2.90256   2.91493   2.93474
  Beta virt. eigenvalues --    2.96127   2.97035   2.97694   2.99321   3.02838
  Beta virt. eigenvalues --    3.03242   3.05097   3.06227   3.06730   3.08248
  Beta virt. eigenvalues --    3.09182   3.10198   3.11861   3.12522   3.12694
  Beta virt. eigenvalues --    3.14439   3.15986   3.18702   3.18980   3.20555
  Beta virt. eigenvalues --    3.22221   3.22720   3.24544   3.24954   3.26504
  Beta virt. eigenvalues --    3.27916   3.29622   3.30717   3.33153   3.33391
  Beta virt. eigenvalues --    3.35147   3.38753   3.41114   3.42857   3.43418
  Beta virt. eigenvalues --    3.44013   3.47691   3.48472   3.49498   3.50738
  Beta virt. eigenvalues --    3.53462   3.54564   3.56384   3.58537   3.60924
  Beta virt. eigenvalues --    3.61166   3.62480   3.63229   3.64784   3.66328
  Beta virt. eigenvalues --    3.67294   3.67974   3.69964   3.70946   3.71098
  Beta virt. eigenvalues --    3.74487   3.75395   3.76279   3.77622   3.78407
  Beta virt. eigenvalues --    3.80325   3.80604   3.82968   3.84833   3.86567
  Beta virt. eigenvalues --    3.87760   3.88650   3.91016   3.92866   3.93190
  Beta virt. eigenvalues --    3.95601   3.96530   3.97850   4.00393   4.00609
  Beta virt. eigenvalues --    4.02278   4.03878   4.05695   4.08610   4.09800
  Beta virt. eigenvalues --    4.11518   4.11606   4.13174   4.13706   4.15663
  Beta virt. eigenvalues --    4.16493   4.18613   4.19991   4.20758   4.21872
  Beta virt. eigenvalues --    4.23389   4.26642   4.27700   4.28955   4.30981
  Beta virt. eigenvalues --    4.33575   4.34322   4.37151   4.38016   4.39635
  Beta virt. eigenvalues --    4.43193   4.44077   4.48097   4.48196   4.52298
  Beta virt. eigenvalues --    4.53748   4.56860   4.58979   4.62012   4.63647
  Beta virt. eigenvalues --    4.64402   4.66880   4.69912   4.74500   4.75986
  Beta virt. eigenvalues --    4.77098   4.78818   4.82827   4.83372   4.85145
  Beta virt. eigenvalues --    4.85911   4.86971   4.87875   4.91208   4.92214
  Beta virt. eigenvalues --    4.94571   4.96574   4.99691   5.01151   5.02182
  Beta virt. eigenvalues --    5.05160   5.06466   5.08733   5.11617   5.14316
  Beta virt. eigenvalues --    5.16786   5.19174   5.19579   5.20262   5.22643
  Beta virt. eigenvalues --    5.24397   5.27574   5.28291   5.33250   5.36572
  Beta virt. eigenvalues --    5.37553   5.39603   5.41207   5.46004   5.46810
  Beta virt. eigenvalues --    5.48098   5.50305   5.51344   5.53026   5.57829
  Beta virt. eigenvalues --    5.62898   5.64005   5.69229   5.76512   5.79009
  Beta virt. eigenvalues --    5.80152   5.94572   5.95347   6.01816   6.04038
  Beta virt. eigenvalues --    6.06001   6.11560   6.28766   6.30274   6.34690
  Beta virt. eigenvalues --    6.45353   6.49550   6.75794   6.81933   6.83028
  Beta virt. eigenvalues --    6.88507   6.98556   7.02098   7.31483   7.56536
  Beta virt. eigenvalues --    8.94811  10.68664  11.70626  12.26713  12.44568
  Beta virt. eigenvalues --   12.60110  13.13756  14.20994
          Condensed to atoms (all electrons):
               1          2          3          4          5          6
     1  C    5.084593   0.565156  -0.065963  -0.015728  -0.054764   0.352272
     2  C    0.565156   5.065993   0.340932  -0.040411  -0.012509  -0.050266
     3  C   -0.065963   0.340932   4.879285   0.318905  -0.030423  -0.008983
     4  C   -0.015728  -0.040411   0.318905   4.909503   0.344999  -0.030773
     5  C   -0.054764  -0.012509  -0.030423   0.344999   4.882043   0.336555
     6  C    0.352272  -0.050266  -0.008983  -0.030773   0.336555   4.848791
     7  H   -0.042154   0.006105  -0.000718   0.006501  -0.030988   0.421568
     8  H   -0.034364  -0.009144   0.000564  -0.002793  -0.023426   0.404369
     9  H   -0.002926  -0.001300  -0.000842  -0.041111   0.408852  -0.032826
    10  H    0.010552  -0.000899   0.005921  -0.033395   0.408564  -0.042579
    11  H   -0.000133   0.007670  -0.035866   0.408578  -0.033451   0.005670
    12  H   -0.000817  -0.000426  -0.034326   0.403016  -0.042091  -0.000197
    13  H   -0.011781  -0.037520   0.407171  -0.029058  -0.005004   0.001242
    14  H    0.007521  -0.036496   0.413121  -0.029337   0.006277  -0.000179
    15  H   -0.058342   0.426660  -0.040433   0.006192  -0.000015   0.005958
    16  O    0.003461   0.006577  -0.002718   0.000020   0.000116  -0.000962
    17  O   -0.005446  -0.017004   0.001530  -0.000007  -0.000077   0.000518
    18  H    0.008124   0.006873  -0.000948   0.000042   0.000131  -0.000467
    19  H    0.379402  -0.091061   0.012838  -0.000201   0.009504  -0.055327
               7          8          9         10         11         12
     1  C   -0.042154  -0.034364  -0.002926   0.010552  -0.000133  -0.000817
     2  C    0.006105  -0.009144  -0.001300  -0.000899   0.007670  -0.000426
     3  C   -0.000718   0.000564  -0.000842   0.005921  -0.035866  -0.034326
     4  C    0.006501  -0.002793  -0.041111  -0.033395   0.408578   0.403016
     5  C   -0.030988  -0.023426   0.408852   0.408564  -0.033451  -0.042091
     6  C    0.421568   0.404369  -0.032826  -0.042579   0.005670  -0.000197
     7  H    0.601488  -0.044444  -0.008505  -0.002641  -0.000145  -0.000046
     8  H   -0.044444   0.605787   0.007004  -0.004650  -0.000483   0.001868
     9  H   -0.008505   0.007004   0.611962  -0.032508  -0.005907   0.008522
    10  H   -0.002641  -0.004650  -0.032508   0.614688  -0.005862  -0.004815
    11  H   -0.000145  -0.000483  -0.005907  -0.005862   0.607523  -0.034253
    12  H   -0.000046   0.001868   0.008522  -0.004815  -0.034253   0.621286
    13  H    0.000297  -0.000309   0.002344  -0.000206  -0.004305   0.006686
    14  H    0.000018   0.000166  -0.000021  -0.000187  -0.003818  -0.006620
    15  H   -0.000302  -0.000255   0.000010   0.000155  -0.000642   0.000275
    16  O    0.000124  -0.000013   0.000306   0.000002  -0.000011  -0.000010
    17  O    0.000049  -0.000033  -0.000016  -0.000001   0.000002   0.000003
    18  H   -0.000292   0.000121   0.000020   0.000006  -0.000009  -0.000008
    19  H   -0.002656  -0.006401  -0.000607  -0.001012   0.000272  -0.000128
              13         14         15         16         17         18
     1  C   -0.011781   0.007521  -0.058342   0.003461  -0.005446   0.008124
     2  C   -0.037520  -0.036496   0.426660   0.006577  -0.017004   0.006873
     3  C    0.407171   0.413121  -0.040433  -0.002718   0.001530  -0.000948
     4  C   -0.029058  -0.029337   0.006192   0.000020  -0.000007   0.000042
     5  C   -0.005004   0.006277  -0.000015   0.000116  -0.000077   0.000131
     6  C    0.001242  -0.000179   0.005958  -0.000962   0.000518  -0.000467
     7  H    0.000297   0.000018  -0.000302   0.000124   0.000049  -0.000292
     8  H   -0.000309   0.000166  -0.000255  -0.000013  -0.000033   0.000121
     9  H    0.002344  -0.000021   0.000010   0.000306  -0.000016   0.000020
    10  H   -0.000206  -0.000187   0.000155   0.000002  -0.000001   0.000006
    11  H   -0.004305  -0.003818  -0.000642  -0.000011   0.000002  -0.000009
    12  H    0.006686  -0.006620   0.000275  -0.000010   0.000003  -0.000008
    13  H    0.594250  -0.037839   0.002836   0.006680  -0.000299  -0.000102
    14  H   -0.037839   0.608018  -0.006981   0.000004  -0.000118   0.000070
    15  H    0.002836  -0.006981   0.540720  -0.001012   0.000486   0.000337
    16  O    0.006680   0.000004  -0.001012   8.087271   0.089082  -0.014581
    17  O   -0.000299  -0.000118   0.000486   0.089082   7.667937   0.361785
    18  H   -0.000102   0.000070   0.000337  -0.014581   0.361785   0.439705
    19  H    0.000222  -0.001103  -0.016281  -0.004218   0.010209   0.000185
              19
     1  C    0.379402
     2  C   -0.091061
     3  C    0.012838
     4  C   -0.000201
     5  C    0.009504
     6  C   -0.055327
     7  H   -0.002656
     8  H   -0.006401
     9  H   -0.000607
    10  H   -0.001012
    11  H    0.000272
    12  H   -0.000128
    13  H    0.000222
    14  H   -0.001103
    15  H   -0.016281
    16  O   -0.004218
    17  O    0.010209
    18  H    0.000185
    19  H    0.676066
          Atomic-Atomic Spin Densities.
               1          2          3          4          5          6
     1  C    0.147597   0.016260  -0.000328  -0.001545  -0.000418  -0.010376
     2  C    0.016260  -0.051411   0.001878   0.003326  -0.000215  -0.000883
     3  C   -0.000328   0.001878   0.000834   0.002076  -0.000074   0.000445
     4  C   -0.001545   0.003326   0.002076  -0.009095   0.000364   0.000039
     5  C   -0.000418  -0.000215  -0.000074   0.000364   0.003059   0.000252
     6  C   -0.010376  -0.000883   0.000445   0.000039   0.000252  -0.003966
     7  H   -0.000222   0.000142  -0.000138   0.000134   0.001587  -0.000585
     8  H   -0.006472  -0.000820   0.000269  -0.000276  -0.001396   0.005736
     9  H    0.000638  -0.000154   0.000128  -0.000103  -0.000668   0.000100
    10  H   -0.000113  -0.000013   0.000173  -0.000166  -0.000765   0.000394
    11  H   -0.000016   0.000208  -0.001178   0.001158   0.000298  -0.000121
    12  H    0.000106  -0.000770   0.000232   0.000534   0.000201  -0.000060
    13  H   -0.000120   0.002457  -0.001127   0.001179   0.000263  -0.000034
    14  H   -0.000046  -0.000257   0.000855  -0.000935  -0.000083   0.000033
    15  H   -0.005140   0.001555  -0.000791   0.000201  -0.000125   0.000801
    16  O   -0.011555  -0.024758   0.002586  -0.000008   0.000153  -0.000301
    17  O    0.000387   0.008413  -0.000313  -0.000002  -0.000005   0.000109
    18  H    0.000661   0.000263   0.000034   0.000007  -0.000033   0.000117
    19  H    0.009610   0.003072  -0.000516   0.000145   0.000182   0.000254
               7          8          9         10         11         12
     1  C   -0.000222  -0.006472   0.000638  -0.000113  -0.000016   0.000106
     2  C    0.000142  -0.000820  -0.000154  -0.000013   0.000208  -0.000770
     3  C   -0.000138   0.000269   0.000128   0.000173  -0.001178   0.000232
     4  C    0.000134  -0.000276  -0.000103  -0.000166   0.001158   0.000534
     5  C    0.001587  -0.001396  -0.000668  -0.000765   0.000298   0.000201
     6  C   -0.000585   0.005736   0.000100   0.000394  -0.000121  -0.000060
     7  H    0.006646  -0.002429  -0.000352  -0.000293   0.000018  -0.000016
     8  H   -0.002429   0.013278   0.000175   0.000513  -0.000055   0.000060
     9  H   -0.000352   0.000175   0.000306   0.000335  -0.000203   0.000005
    10  H   -0.000293   0.000513   0.000335   0.000316  -0.000087   0.000133
    11  H    0.000018  -0.000055  -0.000203  -0.000087   0.000777  -0.000394
    12  H   -0.000016   0.000060   0.000005   0.000133  -0.000394   0.000101
    13  H    0.000003  -0.000014  -0.000068   0.000017  -0.000208  -0.000090
    14  H   -0.000001   0.000010   0.000008  -0.000005   0.000101   0.000148
    15  H   -0.000085   0.000277   0.000027   0.000018  -0.000061   0.000004
    16  O    0.000061  -0.000035  -0.000094  -0.000004   0.000026   0.000001
    17  O   -0.000019   0.000015   0.000005   0.000000  -0.000001  -0.000000
    18  H   -0.000013   0.000009   0.000002   0.000000   0.000000   0.000001
    19  H   -0.000096  -0.000100   0.000002   0.000033  -0.000014  -0.000038
              13         14         15         16         17         18
     1  C   -0.000120  -0.000046  -0.005140  -0.011555   0.000387   0.000661
     2  C    0.002457  -0.000257   0.001555  -0.024758   0.008413   0.000263
     3  C   -0.001127   0.000855  -0.000791   0.002586  -0.000313   0.000034
     4  C    0.001179  -0.000935   0.000201  -0.000008  -0.000002   0.000007
     5  C    0.000263  -0.000083  -0.000125   0.000153  -0.000005  -0.000033
     6  C   -0.000034   0.000033   0.000801  -0.000301   0.000109   0.000117
     7  H    0.000003  -0.000001  -0.000085   0.000061  -0.000019  -0.000013
     8  H   -0.000014   0.000010   0.000277  -0.000035   0.000015   0.000009
     9  H   -0.000068   0.000008   0.000027  -0.000094   0.000005   0.000002
    10  H    0.000017  -0.000005   0.000018  -0.000004   0.000000   0.000000
    11  H   -0.000208   0.000101  -0.000061   0.000026  -0.000001   0.000000
    12  H   -0.000090   0.000148   0.000004   0.000001  -0.000000   0.000001
    13  H   -0.005478   0.000796  -0.000301  -0.000176   0.000005  -0.000047
    14  H    0.000796  -0.001431   0.000361  -0.000169   0.000028  -0.000002
    15  H   -0.000301   0.000361   0.012953  -0.002820   0.001930   0.000185
    16  O   -0.000176  -0.000169  -0.002820   0.860955  -0.070549  -0.004781
    17  O    0.000005   0.000028   0.001930  -0.070549   0.209833   0.001146
    18  H   -0.000047  -0.000002   0.000185  -0.004781   0.001146  -0.003266
    19  H   -0.000165   0.000069  -0.000623   0.000374  -0.001451   0.000418
              19
     1  C    0.009610
     2  C    0.003072
     3  C   -0.000516
     4  C    0.000145
     5  C    0.000182
     6  C    0.000254
     7  H   -0.000096
     8  H   -0.000100
     9  H    0.000002
    10  H    0.000033
    11  H   -0.000014
    12  H   -0.000038
    13  H   -0.000165
    14  H    0.000069
    15  H   -0.000623
    16  O    0.000374
    17  O   -0.001451
    18  H    0.000418
    19  H   -0.016903
 Mulliken charges and spin densities:
               1          2
     1  C   -0.118664   0.138907
     2  C   -0.128929  -0.041707
     3  C   -0.159047   0.005045
     4  C   -0.174943  -0.002970
     5  C   -0.164295   0.002576
     6  C   -0.154383  -0.008046
     7  H    0.096742   0.004341
     8  H    0.106435   0.008744
     9  H    0.087548   0.000089
    10  H    0.088867   0.000488
    11  H    0.095170   0.000246
    12  H    0.082081   0.000158
    13  H    0.104693  -0.003109
    14  H    0.087505  -0.000521
    15  H    0.140633   0.008365
    16  O   -0.170117   0.748907
    17  O   -0.108601   0.149532
    18  H    0.199008  -0.005298
    19  H    0.090298  -0.005746
 Sum of Mulliken charges =  -0.00000   1.00000
 Mulliken charges and spin densities with hydrogens summed into heavy atoms:
               1          2
     1  C   -0.028366   0.133161
     2  C    0.011704  -0.033342
     3  C    0.033151   0.001414
     4  C    0.002307  -0.002566
     5  C    0.012120   0.003153
     6  C    0.048794   0.005039
    16  O   -0.170117   0.748907
    17  O    0.090407   0.144233
 APT charges:
               1
     1  C   -0.307570
     2  C   -0.389533
     3  C   -0.695966
     4  C   -0.865609
     5  C   -0.819584
     6  C   -0.778289
     7  H    0.439379
     8  H    0.452498
     9  H    0.223802
    10  H    0.555273
    11  H    0.485024
    12  H    0.360688
    13  H    0.266837
    14  H    0.431769
    15  H    0.441866
    16  O   -0.180897
    17  O    0.168663
    18  H   -0.075190
    19  H    0.286839
 Sum of APT charges =  -0.00000
 APT charges with hydrogens summed into heavy atoms:
               1
     1  C   -0.020731
     2  C    0.052333
     3  C    0.002640
     4  C   -0.019897
     5  C   -0.040509
     6  C    0.113588
    16  O   -0.180897
    17  O    0.093473
 Electronic spatial extent (au):  <R**2>=           1224.8378
 Charge=             -0.0000 electrons
 Dipole moment (field-independent basis, Debye):
    X=             -2.3664    Y=              1.4668    Z=             -0.4548  Tot=              2.8210
 Quadrupole moment (field-independent basis, Debye-Ang):
   XX=            -56.3131   YY=            -46.9079   ZZ=            -49.2843
   XY=              2.3395   XZ=             -0.2536   YZ=              0.8572
 Traceless Quadrupole moment (field-independent basis, Debye-Ang):
   XX=             -5.4780   YY=              3.9272   ZZ=              1.5508
   XY=              2.3395   XZ=             -0.2536   YZ=              0.8572
 Octapole moment (field-independent basis, Debye-Ang**2):
  XXX=             -1.3638  YYY=              4.0825  ZZZ=              1.0157  XYY=              8.3178
  XXY=              9.6252  XXZ=              0.1753  XZZ=              7.5191  YZZ=             -1.3507
  YYZ=              1.3694  XYZ=              2.3740
 Hexadecapole moment (field-independent basis, Debye-Ang**3):
 XXXX=          -1106.3636 YYYY=           -376.7084 ZZZZ=           -155.8005 XXXY=              8.5302
 XXXZ=             12.1634 YYYX=              4.8997 YYYZ=              0.8650 ZZZX=              6.3139
 ZZZY=              0.1806 XXYY=           -225.4899 XXZZ=           -198.5841 YYZZ=            -88.2291
 XXYZ=              0.3271 YYXZ=              1.7215 ZZXY=             -0.2061
 N-N= 3.765457997126D+02 E-N=-1.653151698837D+03  KE= 3.833479467533D+02
  Exact polarizability:   0.000   0.000   0.000   0.000   0.000   0.000
 Approx polarizability: 155.904 -13.982 137.734   6.713  -9.695 110.442
                          Isotropic Fermi Contact Couplings
        Atom                 a.u.       MegaHertz       Gauss      10(-4) cm-1
     1  C(13)              0.00391       4.40003       1.57004       1.46769
     2  C(13)             -0.00242      -2.72142      -0.97107      -0.90777
     3  C(13)             -0.00005      -0.05271      -0.01881      -0.01758
     4  C(13)             -0.00260      -2.92220      -1.04271      -0.97474
     5  C(13)              0.00176       1.97398       0.70436       0.65845
     6  C(13)             -0.00523      -5.88118      -2.09855      -1.96175
     7  H(1)               0.00231      10.33619       3.68821       3.44778
     8  H(1)               0.00534      23.87605       8.51957       7.96419
     9  H(1)              -0.00007      -0.32382      -0.11555      -0.10801
    10  H(1)               0.00012       0.54656       0.19503       0.18231
    11  H(1)               0.00023       1.02710       0.36649       0.34260
    12  H(1)               0.00027       1.21720       0.43433       0.40601
    13  H(1)              -0.00159      -7.09425      -2.53141      -2.36639
    14  H(1)              -0.00017      -0.75768      -0.27036      -0.25273
    15  H(1)               0.00345      15.42327       5.50341       5.14465
    16  O(17)              0.02654     -16.08910      -5.74099      -5.36675
    17  O(17)              0.02163     -13.11252      -4.67887      -4.37387
    18  H(1)              -0.00166      -7.42527      -2.64952      -2.47680
    19  H(1)              -0.00136      -6.08066      -2.16973      -2.02829
 --------------------------------------------------------
       Center         ----  Spin Dipole Couplings  ----
                      3XX-RR        3YY-RR        3ZZ-RR
 --------------------------------------------------------
     1   Atom       -0.069359     -0.086489      0.155848
     2   Atom       -0.004743      0.012162     -0.007419
     3   Atom        0.003826     -0.000374     -0.003451
     4   Atom       -0.001044      0.000487      0.000557
     5   Atom        0.003880     -0.001202     -0.002678
     6   Atom       -0.001131     -0.002804      0.003935
     7   Atom        0.000868      0.001171     -0.002039
     8   Atom        0.002645     -0.001055     -0.001590
     9   Atom        0.002919     -0.002174     -0.000745
    10   Atom        0.002095     -0.001072     -0.001023
    11   Atom        0.001583     -0.000409     -0.001174
    12   Atom        0.001648     -0.000466     -0.001182
    13   Atom        0.008288     -0.001008     -0.007279
    14   Atom        0.001167      0.000184     -0.001351
    15   Atom       -0.002604     -0.002521      0.005125
    16   Atom        0.906852     -1.624422      0.717571
    17   Atom        0.189246     -0.447645      0.258400
    18   Atom       -0.010795      0.027638     -0.016843
    19   Atom        0.004695      0.000220     -0.004915
 --------------------------------------------------------
                        XY            XZ            YZ
 --------------------------------------------------------
     1   Atom       -0.011375      0.065217     -0.037209
     2   Atom       -0.004270     -0.013809      0.001492
     3   Atom        0.003777      0.001076      0.000136
     4   Atom        0.003048      0.001395     -0.000459
     5   Atom        0.002311     -0.002110     -0.001503
     6   Atom       -0.003289     -0.000535     -0.001059
     7   Atom       -0.002643     -0.000912      0.000930
     8   Atom       -0.002823      0.001716     -0.001038
     9   Atom       -0.000291     -0.002127     -0.000623
    10   Atom       -0.000209     -0.000508     -0.000170
    11   Atom        0.001184      0.000124      0.000006
    12   Atom        0.001175      0.000937      0.000311
    13   Atom        0.008042     -0.000532     -0.000590
    14   Atom        0.002920      0.002328      0.001673
    15   Atom       -0.000377      0.007749      0.002027
    16   Atom        0.258775      2.399939      0.193091
    17   Atom        0.132639      0.713824      0.239742
    18   Atom       -0.017448     -0.008305      0.000505
    19   Atom        0.005654      0.005664     -0.005447
 --------------------------------------------------------


 ---------------------------------------------------------------------------------
              Anisotropic Spin Dipole Couplings in Principal Axis System
 ---------------------------------------------------------------------------------

       Atom             a.u.   MegaHertz   Gauss  10(-4) cm-1        Axes

              Baa    -0.0925   -12.412    -4.429    -4.140  0.2571  0.9633  0.0768
     1 C(13)  Bbb    -0.0866   -11.617    -4.145    -3.875  0.9315 -0.2259 -0.2853
              Bcc     0.1791    24.029     8.574     8.015  0.2574 -0.1449  0.9554
 
              Baa    -0.0201    -2.691    -0.960    -0.898  0.6772  0.0558  0.7336
     2 C(13)  Bbb     0.0053     0.712     0.254     0.238  0.6114  0.5121 -0.6033
              Bcc     0.0147     1.979     0.706     0.660 -0.4094  0.8571  0.3127
 
              Baa    -0.0037    -0.499    -0.178    -0.166 -0.2620  0.2583  0.9299
     3 C(13)  Bbb    -0.0024    -0.327    -0.117    -0.109 -0.4381  0.8267 -0.3531
              Bcc     0.0062     0.825     0.295     0.275  0.8599  0.4999  0.1035
 
              Baa    -0.0039    -0.518    -0.185    -0.173  0.7654 -0.5688 -0.3011
     4 C(13)  Bbb     0.0009     0.118     0.042     0.039  0.0926 -0.3656  0.9261
              Bcc     0.0030     0.400     0.143     0.133  0.6368  0.7368  0.2272
 
              Baa    -0.0037    -0.494    -0.176    -0.165  0.1173  0.4325  0.8940
     5 C(13)  Bbb    -0.0019    -0.250    -0.089    -0.083 -0.4557  0.8233 -0.3386
              Bcc     0.0055     0.744     0.266     0.248  0.8824  0.3676 -0.2936
 
              Baa    -0.0055    -0.739    -0.264    -0.246  0.6060  0.7860  0.1225
     6 C(13)  Bbb     0.0014     0.189     0.067     0.063  0.7954 -0.6003 -0.0830
              Bcc     0.0041     0.550     0.196     0.183 -0.0083 -0.1478  0.9890
 
              Baa    -0.0023    -1.239    -0.442    -0.413  0.1714 -0.1302  0.9766
     7 H(1)   Bbb    -0.0016    -0.868    -0.310    -0.290  0.7209  0.6922 -0.0342
              Bcc     0.0039     2.107     0.752     0.703 -0.6716  0.7098  0.2125
 
              Baa    -0.0026    -1.388    -0.495    -0.463  0.4034  0.8869  0.2252
     8 H(1)   Bbb    -0.0022    -1.171    -0.418    -0.391 -0.3683 -0.0679  0.9272
              Bcc     0.0048     2.560     0.913     0.854  0.8376 -0.4570  0.2992
 
              Baa    -0.0027    -1.425    -0.509    -0.475  0.2447  0.8104  0.5324
     9 H(1)   Bbb    -0.0012    -0.653    -0.233    -0.218  0.3373 -0.5859  0.7369
              Bcc     0.0039     2.078     0.742     0.693  0.9091 -0.0008 -0.4167
 
              Baa    -0.0013    -0.690    -0.246    -0.230  0.1491  0.6871  0.7111
    10 H(1)   Bbb    -0.0009    -0.476    -0.170    -0.159 -0.0659  0.7244 -0.6862
              Bcc     0.0022     1.166     0.416     0.389  0.9866 -0.0554 -0.1532
 
              Baa    -0.0012    -0.634    -0.226    -0.211 -0.1156  0.1682  0.9790
    11 H(1)   Bbb    -0.0010    -0.507    -0.181    -0.169 -0.4066  0.8912 -0.2011
              Bcc     0.0021     1.141     0.407     0.381  0.9063  0.4213  0.0346
 
              Baa    -0.0015    -0.783    -0.279    -0.261 -0.3119  0.0715  0.9474
    12 H(1)   Bbb    -0.0010    -0.518    -0.185    -0.173 -0.3468  0.9198 -0.1836
              Bcc     0.0024     1.301     0.464     0.434  0.8846  0.3858  0.2620
 
              Baa    -0.0073    -3.918    -1.398    -1.307 -0.0395  0.1423  0.9890
    13 H(1)   Bbb    -0.0056    -2.995    -1.069    -0.999 -0.4997  0.8543 -0.1429
              Bcc     0.0130     6.913     2.467     2.306  0.8653  0.4999 -0.0373
 
              Baa    -0.0027    -1.464    -0.522    -0.488 -0.5501  0.0735  0.8318
    14 H(1)   Bbb    -0.0022    -1.170    -0.418    -0.390 -0.4502  0.8128 -0.3696
              Bcc     0.0049     2.634     0.940     0.879  0.7033  0.5778  0.4141
 
              Baa    -0.0078    -4.148    -1.480    -1.384  0.8088  0.2613 -0.5269
    15 H(1)   Bbb    -0.0023    -1.244    -0.444    -0.415 -0.2856  0.9577  0.0365
              Bcc     0.0101     5.392     1.924     1.799  0.5141  0.1210  0.8491
 
              Baa    -1.6664   120.581    43.026    40.222 -0.3623  0.8848  0.2930
    16 O(17)  Bbb    -1.5687   113.511    40.504    37.863 -0.5923 -0.4612  0.6607
              Bcc     3.2351  -234.092   -83.530   -78.085  0.7197  0.0658  0.6911
 
              Baa    -0.5620    40.667    14.511    13.565  0.4146  0.7106 -0.5684
    17 O(17)  Bbb    -0.4255    30.791    10.987    10.271 -0.6135  0.6796  0.4021
              Bcc     0.9876   -71.458   -25.498   -23.836  0.6721  0.1820  0.7178
 
              Baa    -0.0249   -13.264    -4.733    -4.424  0.6843  0.2207  0.6950
    18 H(1)   Bbb    -0.0098    -5.206    -1.858    -1.736 -0.6291 -0.3032  0.7157
[...]
 0641253,-0.16715613,-0.02538160,0.00143214,0.48918035,-0.00096873,0.00
 021852,0.00131377,0.02517807,0.01263470,-0.00162746,-0.02515181,-0.089
 45459,0.00162588,-0.05278572,0.50981040,0.00007692,0.00072127,0.000634
 62,0.01123814,-0.00093659,-0.00254209,0.00190184,0.00081614,-0.0786182
 3,0.01160023,0.05607570,0.55649518,-0.02177603,0.02381819,0.01863240,0
 .00310122,0.00130623,0.00039237,-0.00494256,-0.03143584,0.01922562,-0.
 08081073,-0.00543255,0.00168400,0.58490861,0.00315465,0.01094665,0.002
 71171,0.00024547,-0.00083024,-0.00022115,-0.01004811,-0.01046099,0.008
 03049,-0.00631975,-0.15112184,0.04308913,0.04010636,0.43836173,0.00897
 272,-0.00761059,-0.00679365,-0.00214527,-0.00081620,0.00017290,0.00486
 738,0.00450231,-0.00276189,0.00406586,0.04099323,-0.10552820,0.0219181
 4,0.00352816,0.53835597,-0.17923212,-0.02843431,0.04684218,-0.01141393
 ,-0.01374137,0.00104959,-0.00145364,0.00044327,-0.00129230,0.00160901,
 0.00483004,-0.00298552,-0.09870153,0.02947198,0.02406842,0.47031659,-0
 .02634874,-0.09840344,0.00439496,-0.03117266,-0.00489915,0.00772491,0.
 00108627,0.00232604,0.00005883,0.01520588,-0.03254773,-0.01292163,0.02
 947002,-0.12957902,-0.03624774,0.00732145,0.52617932,0.05479442,0.0107
 1025,-0.08324570,-0.00374408,0.00064819,0.00742808,0.00012768,-0.00191
 636,-0.00278902,-0.00924825,0.01063306,0.01039561,0.02504089,-0.037095
 50,-0.10681197,0.02467803,-0.02319576,0.50217695,-0.00024890,-0.028758
 40,0.01764690,-0.00305451,0.00125440,0.00181399,-0.00019031,0.00032922
 ,0.00043895,-0.00162482,0.00173595,0.00233487,-0.00134483,0.01175196,-
 0.00960797,-0.04646812,0.02356472,-0.01233864,0.05420692,-0.00443145,-
 0.00981517,0.00553034,-0.00041489,0.00082573,0.00253669,0.00057887,0.0
 0056578,0.00009506,0.00313767,-0.00231023,-0.00384174,0.00188237,-0.01
 889010,0.01291134,0.02660785,-0.20551403,0.11355488,-0.02484402,0.2278
 8099,0.00016969,0.00838735,-0.00502769,0.00119580,-0.00109749,-0.00103
 392,0.00021863,0.00015277,-0.00003119,0.00190503,-0.00233814,-0.001851
 54,0.00098914,-0.01600131,0.01030078,-0.01450494,0.11644242,-0.1270610
 4,0.01493370,-0.12613660,0.13856328,-0.02059096,-0.01291205,-0.0180611
 6,-0.00245912,0.00178548,0.00225265,-0.00026656,0.00018904,-0.00045600
 ,-0.00003927,-0.00101142,0.00036211,0.00844578,0.00557172,0.01364521,-
 0.12162482,-0.03719751,-0.10972893,-0.00236902,-0.00032340,-0.00478516
 ,0.13761696,-0.01083953,-0.00548259,-0.00595547,-0.00144016,0.00019660
 ,0.00120567,-0.00026602,-0.00017779,-0.00030439,-0.00070165,0.00138343
 ,-0.00129760,-0.01248109,-0.00756356,-0.01943296,-0.03436256,-0.061545
 48,-0.05367091,0.01525973,0.00622681,0.02038826,0.04259922,0.06889379,
 0.00470785,0.00295505,0.01110978,0.00128133,0.00101973,-0.00046822,0.0
 0021065,0.00017712,0.00007856,0.00012157,0.00075691,0.00037072,-0.0081
 4946,-0.00519606,-0.01575487,-0.10119339,-0.05150637,-0.18362074,-0.01
 242902,-0.00375532,-0.01709559,0.11420062,0.05870589,0.20533107,0.0010
 7149,0.00026876,0.00016144,0.00004744,-0.00007671,0.00007754,0.0006735
 5,0.00006656,0.00110113,0.00071827,0.00046462,0.00222023,-0.09591880,-
 0.01026120,-0.09682062,0.00634167,0.00171847,0.01492587,0.00073828,-0.
 00073453,-0.00033604,-0.00056858,0.00201783,0.00219515,0.09911903,-0.0
 0096551,0.00008391,0.00084245,-0.00020456,0.00014449,-0.00035374,0.000
 86286,0.00165769,-0.00048291,0.01279630,0.00096272,0.02949731,-0.01013
 337,-0.04842929,-0.01956047,-0.00990074,-0.00518702,-0.02373950,-0.000
 69007,0.00073091,0.00026910,0.00298860,-0.00304749,-0.00313274,0.00896
 152,0.05839885,-0.00094993,-0.00033178,0.00035358,0.00054669,0.0003028
 9,-0.00051259,-0.00052804,-0.00081945,0.00066399,-0.00686640,0.0007874
 4,-0.01640421,-0.09388753,-0.02020226,-0.25252416,-0.00631817,-0.00272
 175,-0.01523283,0.00007179,-0.00014762,0.00111725,0.00195274,-0.002043
 75,-0.00055665,0.10445032,0.02125071,0.27715673,0.00028272,0.00341579,
 0.00119226,0.00045767,0.00009892,-0.00054847,0.00134228,-0.00037164,0.
 00056082,-0.00047655,-0.00020117,-0.00029184,-0.28594342,-0.05894150,0
 .03029340,-0.01350116,-0.00352675,0.00167986,-0.00021202,0.00033960,-0
 .00023328,0.00125879,-0.00022666,0.00030586,-0.01321767,-0.00317888,0.
 00091619,0.30993072,0.00132706,-0.00429640,-0.00219574,0.00047249,-0.0
 0054175,-0.00018552,0.00138078,-0.00512377,0.00427615,-0.02973553,-0.0
 0759617,0.00217056,-0.05924547,-0.06162482,0.00803956,0.02517094,0.006
 25981,-0.00435363,-0.00027379,0.00039488,0.00070081,-0.00045196,0.0013
 6649,0.00041684,-0.00243787,-0.00106434,0.00009617,0.06377916,0.069857
 13,0.00113593,-0.00372839,-0.00078511,-0.00024821,0.00015609,-0.000100
 72,-0.00073103,0.00259474,-0.00111909,0.01623216,0.00411549,-0.0023193
 3,0.02783837,0.00752867,-0.05255290,0.01772848,0.00360821,-0.00442503,
 -0.00034336,-0.00000942,0.00025698,-0.00003940,0.00075536,0.00059534,-
 0.02822245,-0.00700333,0.00467133,-0.03470072,-0.00762913,0.05483562,0
 .00013097,-0.00016315,0.00003270,-0.00546747,-0.00436816,0.00067388,-0
 .01864672,0.02312421,0.01381385,-0.11579737,0.09463758,0.06203497,0.00
 177672,-0.00301984,-0.00273833,0.00072881,-0.00110519,0.00052369,0.000
 33523,-0.00039482,0.00002299,0.00000666,0.00024365,0.00008635,-0.00010
 678,0.00027083,-0.00003561,0.00057974,0.00012434,-0.00047378,0.1286262
 9,-0.00083071,0.00016398,0.00033988,-0.00189526,-0.00040529,0.00024309
 ,-0.00621189,0.00789856,0.00446682,0.09547212,-0.17690274,-0.08592160,
 0.01425972,-0.02100641,-0.01489025,-0.00100435,-0.00398270,0.00510896,
 0.00106030,-0.00141743,-0.00100077,-0.00013428,0.00012260,-0.00003548,
 0.00026442,0.00108431,0.00021478,-0.00062772,0.00090471,-0.00052714,-0
 .10214278,0.19417430,0.00002030,-0.00012191,-0.00000460,0.00001314,0.0
 0059444,0.00106250,-0.00075951,-0.00076947,-0.00092733,0.06388452,-0.0
 8760307,-0.10711770,-0.00964779,0.01338040,0.00877468,0.00055564,0.002
 66746,-0.00159759,-0.00026486,0.00079169,0.00055899,0.00002093,0.00036
 418,0.00011777,-0.00024504,-0.00076891,0.00068045,-0.00008246,-0.00095
 587,0.00065332,-0.06893187,0.09359996,0.11207666,-0.00045278,-0.000157
 69,0.00018277,0.00139089,-0.00113596,-0.00011667,-0.01450503,-0.005545
 94,-0.02936079,-0.08441684,-0.00770335,-0.08500998,0.00135528,0.000780
 83,0.00304620,0.00010161,0.00025768,-0.00060165,0.00005069,0.00004658,
 0.00010177,0.00005787,0.00025353,-0.00006744,0.00088376,-0.00081183,0.
 00021331,0.00030953,0.00050608,0.00011079,0.00674146,0.00089827,0.0155
 6973,0.09295575,0.00011365,0.00012768,-0.00013331,0.00046263,-0.000382
 89,0.00029708,-0.00521094,-0.00270834,-0.00885265,-0.00756635,-0.05104
 259,-0.02517562,0.01195602,0.00075185,0.02927950,0.00018305,0.00197370
 ,0.00065315,-0.00035728,0.00035757,-0.00012794,-0.00027019,-0.00026071
 ,-0.00044249,-0.00034545,-0.00516722,0.00321405,-0.00019135,0.00111933
 ,-0.00075324,-0.00911696,-0.00227615,-0.02150286,0.01286336,0.05656602
 ,-0.00030899,0.00028051,0.00021582,-0.00012463,-0.00010120,0.00018449,
 0.00163789,0.00031986,0.00324380,-0.08689959,-0.02481978,-0.25637933,-
 0.00643077,0.00016033,-0.01773614,0.00046564,-0.00120146,0.00098731,0.
 00025828,-0.00002714,0.00027005,-0.00019120,0.00079724,0.00053838,0.00
 111226,0.00335339,-0.00020743,0.00051004,-0.00003445,0.00023490,-0.005
 21203,-0.00209062,-0.01478538,0.09505569,0.02332387,0.28076561,-0.0006
 7735,0.00348737,0.00070827,0.00424443,0.00508275,0.01410559,-0.0655972
 2,-0.03094119,-0.06093581,-0.01302255,-0.01231491,-0.02790306,0.000669
 58,0.00115352,-0.00090036,-0.00019579,-0.00028019,0.00014939,0.0001040
 1,-0.00000695,0.00003917,0.00009655,0.00008240,0.00015043,0.00030058,-
 0.00037825,0.00065990,0.00013009,0.00017463,0.00022481,0.00149519,0.00
 052919,-0.00021960,-0.00545460,-0.00250037,0.00078991,0.07783882,0.002
 16715,-0.00415809,-0.00127952,-0.00201845,-0.01333590,-0.01883219,-0.0
 3305111,-0.08763330,-0.09012480,-0.00253396,-0.00353210,-0.00751924,-0
 .00000195,0.00027979,-0.00087823,0.00008336,0.00020658,-0.00045368,0.0
 0002490,0.00002755,-0.00000075,-0.00008070,-0.00008920,0.00004881,-0.0
 0003485,-0.00023337,0.00040129,0.00009123,0.00005764,0.00026003,0.0006
 1613,0.00094071,0.00043994,-0.00116922,0.00030569,0.00024254,0.0314879
 6,0.09831417,0.00096424,-0.00027656,-0.00071592,0.00070764,-0.00476826
 ,-0.00502325,-0.06314761,-0.09026822,-0.23497736,0.00072730,0.00227444
 ,0.00343095,0.00015452,-0.00043795,0.00070676,-0.00001514,0.00021797,-
 0.00010731,-0.00004812,0.00000712,0.00002840,-0.00010984,0.00007598,0.
 00004184,-0.00012492,-0.00030557,0.00006853,-0.00004340,-0.00009238,0.
 00003714,-0.00059879,0.00030441,0.00097909,0.00096867,0.00050597,0.001
 35242,0.06945415,0.10015333,0.25518955,-0.00219301,0.00052481,0.000473
 07,0.00263678,0.01489648,-0.01403217,-0.04971411,-0.01709536,0.0190860
 2,-0.00335467,-0.02403074,0.02240229,-0.00683912,-0.00026318,-0.000081
 09,-0.00006381,0.00066576,0.00012225,0.00011516,-0.00011212,-0.0001223
 8,0.00012423,-0.00002757,-0.00011005,0.00008230,0.00031757,-0.00001597
 ,-0.00022569,-0.00199477,0.00085807,0.00034150,0.00066358,0.00018551,0
 .00166696,0.00006552,-0.00043841,0.00106867,0.00635806,-0.00626521,0.0
 5745769,0.00325157,0.00017221,-0.00081742,-0.00208879,-0.02224768,0.01
 720959,-0.01773411,-0.16836070,0.12634150,-0.00153911,-0.00612425,0.00
 578938,-0.00229992,0.00031049,-0.00008166,0.00006064,0.00049342,0.0003
 9453,0.00000815,0.00000471,0.00002267,-0.00003584,0.00002021,0.0000169
 6,0.00004856,0.00015059,-0.00004450,0.00008736,-0.00060965,0.00028311,
 -0.00031493,0.00003732,-0.00002058,0.00014487,0.00031539,-0.00040576,0
 .00191700,0.01009759,-0.00881159,0.01834094,0.18533805,0.00038858,-0.0
 0042713,-0.00027330,-0.00030497,-0.00837358,0.00471209,0.01901351,0.12
 812653,-0.17496075,-0.00096051,-0.00065088,-0.00072182,0.00057199,-0.0
 0057776,0.00064513,0.00017250,0.00002197,-0.00000959,-0.00000587,0.000
 03424,0.00000516,-0.00005340,0.00005622,0.00006147,-0.00003617,-0.0003
 2568,0.00037389,-0.00002384,0.00027645,0.00021490,0.00037046,0.0000750
 6,-0.00025585,0.00025775,-0.00027060,0.00122693,0.00318911,0.02003545,
 -0.02127585,-0.02147850,-0.13839297,0.18876778,-0.00877687,-0.00542969
 ,0.00525685,-0.24506638,-0.05419070,0.12962627,-0.01141146,-0.00348824
 ,0.00699257,-0.00017853,0.00290546,0.00142160,0.00045874,0.00026111,-0
 .00034313,0.00279828,-0.00175389,0.00217466,-0.00081478,-0.00040804,0.
 00016534,0.00037075,0.00006599,-0.00012833,-0.00001363,-0.00000539,0.0
 0004074,-0.00000239,-0.00003202,-0.00003115,-0.00090042,-0.00033632,-0
 .00000121,-0.00002352,-0.00002422,-0.00012120,-0.00080196,0.00043386,0
 .00025422,0.00071996,-0.00009810,-0.00043039,0.26210986,-0.02791432,-0
 .00476042,0.01532484,-0.05463414,-0.07137981,0.02953455,0.01966087,0.0
 0669843,-0.01112120,0.00139672,-0.00365400,-0.00176768,0.00028465,-0.0
 0041450,-0.00013037,0.00005955,-0.00372861,-0.00200560,-0.00069342,-0.
 00039712,0.00028460,-0.00072399,-0.00040763,0.00031947,-0.00000513,0.0
 0010404,0.00003852,-0.00002850,0.00017465,0.00002453,0.00137990,0.0003
 8362,-0.00001781,0.00001251,0.00001572,0.00012356,0.00035379,-0.000606
 05,-0.00051695,-0.00014208,0.00163302,0.00037753,0.05970304,0.07445533
 ,-0.00672593,-0.00807577,0.00457961,0.13377417,0.03798395,-0.09822120,
 0.00342798,0.00357917,-0.00007681,-0.00047869,-0.00096344,0.00053813,-
 0.00029063,-0.00004069,0.00000620,0.00187347,-0.00190314,0.00487196,-0
 .00099456,-0.00048601,0.00034845,0.00089890,0.00035034,-0.00043967,-0.
 00006965,-0.00000741,-0.00000279,-0.00001906,0.00001015,-0.00000807,0.
 00014190,0.00012309,0.00008180,0.00013786,0.00002438,-0.00003446,-0.00
 045615,-0.00031623,-0.00003653,-0.00051839,-0.00051445,0.00111364,-0.1
 2910259,-0.03340810,0.11442149,-0.02511948,-0.05457123,-0.01491379,0.0
 5020329,0.04840829,0.07944644,-0.01342137,0.00844517,-0.01435346,-0.00
 148621,-0.00022235,-0.00071999,-0.00083588,0.00072565,0.00146309,0.002
 63545,0.00270942,0.00178183,0.00094082,0.00000922,-0.00108691,0.000355
 06,0.00003850,-0.00086596,-0.00003926,-0.00029796,-0.00057060,0.000248
 07,-0.00004930,-0.00038763,0.00044212,-0.00018820,-0.00031544,-0.00075
 954,0.00008628,-0.00005724,0.00028404,-0.00265587,-0.00307269,-0.00113
 174,0.00053434,-0.00021714,-0.00087850,0.00075562,-0.00229255,0.192752
 25,0.00241217,0.01585662,-0.00895281,-0.01917933,-0.02983094,-0.029271
 56,0.00839758,-0.00401268,0.00858375,0.00004902,-0.00049489,0.00033497
 ,0.00034851,-0.00048638,-0.00068434,-0.00067282,-0.00242420,-0.0004022
 3,-0.00073394,0.00052925,0.00074959,-0.00073636,0.00037617,0.00040566,
 -0.00001936,-0.00002511,0.00029651,-0.00018182,0.00021198,0.00017668,-
 0.00003457,0.00027756,0.00008218,0.00045298,0.00003567,0.00009852,0.00
 098762,-0.00006620,0.00152539,0.00092927,-0.00058303,-0.00031988,0.003
 54620,0.00136784,0.00361508,-0.11566342,0.11746561,-0.02777812,-0.0514
 6243,-0.02107193,0.07341080,0.03088038,0.03465315,-0.00204756,0.002334
 55,-0.00473962,-0.00100492,-0.00133937,0.00004919,-0.00039592,0.000095
 77,0.00036014,0.00253872,0.00001062,0.00046356,-0.00068810,-0.00046134
 ,0.00017956,-0.00126773,0.00005639,-0.00003678,-0.00006350,0.00029339,
 0.00009256,-0.00000762,0.00018140,0.00001549,0.00040114,0.00014853,-0.
 00026537,-0.00029673,0.00010497,0.00019910,0.00184181,-0.00274856,0.00
 120530,0.00013954,-0.00041566,0.00094363,-0.01347609,0.00295470,-0.026
 60762,-0.06391825,0.03174169,0.05357010,0.00627834,0.01861041,-0.00199
 132,-0.03129958,-0.01599216,-0.02346776,0.00181362,-0.00054903,-0.0006
 6454,0.00068679,0.00053408,-0.00013821,0.00026207,-0.00051389,-0.00027
 493,-0.00083187,-0.00160310,-0.00093915,-0.00089111,-0.00007562,0.0009
 4047,-0.00082249,0.00006653,0.00049082,0.00003175,0.00017123,0.0000063
 1,-0.00037270,0.00005760,0.00005412,-0.00039219,0.00017347,0.00026227,
 0.00014439,-0.00012061,0.00003275,-0.00033827,0.00050691,0.00053787,-0
 .00093208,0.00021350,-0.00018993,0.00227413,0.00011985,0.00225049,-0.1
 8912023,0.07159074,0.04948369,0.26932158,-0.00580776,-0.01193000,0.000
 20346,0.01663809,0.00856058,0.01536172,0.00046145,-0.00054819,0.000121
 08,-0.00024569,-0.00043136,0.00074478,-0.00029339,0.00018414,0.0004819
 6,0.00065710,0.00158773,0.00062456,0.00067762,0.00005695,-0.00061601,0
 .00053462,-0.00009121,-0.00035596,0.00005521,-0.00013701,-0.00025172,0
 .00013658,0.00001467,-0.00017815,0.00021536,-0.00009249,-0.00016726,0.
 00015510,0.00019386,-0.00005793,0.00057207,0.00046758,0.00050178,0.000
 69631,-0.00012255,0.00044722,-0.00136547,-0.00039963,-0.00089986,0.097
 59770,-0.08384317,-0.01583444,-0.00473300,0.47193145,-0.00227736,-0.00
 454617,0.00005784,-0.00424339,0.00955997,0.01586393,-0.00352532,0.0018
 7796,-0.00315662,-0.00007834,0.00058709,-0.00019436,-0.00014061,-0.000
 00528,-0.00034763,0.00024293,0.00053848,0.00007067,0.00003979,-0.00007
 376,-0.00012870,-0.00004841,0.00001428,-0.00006934,-0.00002564,-0.0000
 5271,0.00022818,0.00002092,-0.00000325,0.00010424,-0.00016558,-0.00002
 492,0.00000369,-0.00016854,-0.00009621,0.00001067,-0.00015982,-0.00010
 945,-0.00120970,-0.00078616,0.00038274,-0.00017722,-0.00000613,-0.0002
 8244,0.00202922,0.02019933,0.00410570,-0.04210839,-0.06859039,-0.19400
 665,0.12818677,0.00005019,-0.00037224,-0.00025062,0.00036535,0.0024401
 3,0.00169265,-0.00072693,0.00064554,-0.00031710,0.00002678,0.00012797,
 -0.00025050,-0.00005065,0.00005126,-0.00007801,-0.00018220,0.00001813,
 -0.00016732,-0.00018436,-0.00017602,-0.00000305,0.00000319,-0.00005444
 ,0.00008716,-0.00008379,0.00007692,0.00010329,0.00005654,-0.00003449,0
 .00004964,-0.00000457,-0.00003941,-0.00000084,-0.00009726,-0.00005985,
 0.00002997,-0.00014752,-0.00026288,-0.00038619,-0.00020771,0.00003304,
 -0.00010597,-0.00006337,0.00007539,-0.00028470,-0.01482782,0.04813683,
 -0.01666397,-0.05577465,-0.10591393,0.05970237,0.07182120,0.00011850,0
 .00141433,-0.00064416,-0.00097873,-0.00122725,-0.00132400,0.00017694,0
 .00005698,0.00011771,0.00011238,0.00005490,0.00005028,0.00002973,-0.00
 003543,0.00009053,0.00000510,-0.00004164,-0.00021875,-0.00012720,-0.00
 009584,0.00015685,-0.00009839,-0.00005624,0.00006693,0.00001116,0.0000
 4095,-0.00005016,-0.00003704,-0.00000358,-0.00000631,-0.00004132,-0.00
 000553,0.00003423,0.00003767,-0.00001202,-0.00001929,-0.00012052,0.000
 08362,0.00013617,-0.00004035,0.00001365,0.00000088,-0.00012182,-0.0000
 1682,-0.00001388,0.01319857,-0.01417726,0.00295793,-0.06765101,-0.3862
 2923,0.18170806,0.05551091,0.40033161,-0.00095078,-0.00182553,-0.00005
 107,0.00285475,0.00416303,0.00270494,-0.00060610,0.00037850,-0.0000929
 8,-0.00006657,0.00009552,-0.00006419,0.00007045,0.00020620,0.00022463,
 0.00000722,-0.00003777,0.00004863,0.00010575,0.00002230,-0.00009050,0.
 00014291,-0.00002800,-0.00005755,-0.00002869,-0.00005640,-0.00008508,0
 .00008811,-0.00005879,-0.00005199,0.00003077,-0.00006743,-0.00002235,-
 0.00002726,0.00002462,-0.00003668,-0.00023186,-0.00012981,-0.00019319,
 -0.00000837,-0.00002800,0.00001667,0.00009844,0.00003775,-0.00011619,-
 0.00054294,-0.01266118,0.00250681,0.04197721,0.19328674,-0.09986956,-0
 .04286912,-0.18297639,0.09581964,-0.15239434,0.11513548,0.07444341,0.0
 1061179,-0.01094722,-0.00332402,-0.00051117,-0.00165575,0.00147692,0.0
 0017297,-0.00059103,0.00002189,-0.00381445,-0.00390704,0.00064930,-0.0
 1086241,0.02097024,0.01076945,0.00091169,-0.00068030,0.00039002,0.0004
 0501,-0.00022770,-0.00089413,-0.00005961,0.00012073,0.00021097,-0.0006
 4456,0.00126210,0.00094537,0.00011086,0.00008983,-0.00004342,0.0000513
 8,0.00003306,-0.00010837,0.00000332,0.00003943,0.00004328,0.00044870,-
 0.00052917,-0.00015721,0.00020008,0.00033971,-0.00127185,-0.00024108,0
 .00037069,-0.00020719,-0.00003748,-0.00003796,0.00001033,0.00002758,0.
 00001540,-0.00004392,0.15562169,0.11120194,-0.18836032,-0.07962882,0.0
 1985964,-0.02015007,-0.01135387,-0.00410765,-0.00210630,-0.00164265,-0
 .00059320,0.00014782,0.00009221,-0.00213824,-0.00039208,0.00050622,-0.
 00677815,0.00882642,0.00472433,0.00081117,0.00083880,-0.00023540,0.000
 30741,0.00013579,-0.00046497,0.00003798,-0.00006763,0.00001064,-0.0004
 3561,0.00049916,0.00033220,0.00008971,0.00010107,-0.00002675,0.0001145
 1,0.00008746,0.00005780,0.00071407,-0.00112671,-0.00022508,0.00024786,
 -0.00053880,-0.00011308,0.00033824,0.00093195,0.00094283,0.00113959,-0
 .00017686,0.00050150,-0.00080590,0.00082788,0.00042655,-0.00020287,-0.
 00009520,-0.00034536,-0.11980050,0.20061762,0.07203308,-0.07789737,-0.
 07530790,0.00359214,-0.00422000,0.00262084,0.00015028,0.00035430,0.005
 91785,0.00009238,0.00008362,-0.00017341,0.00242481,0.00104713,0.001264
 23,0.00608665,-0.00595023,-0.00154195,-0.00092353,-0.00054470,0.000691
 25,0.00126515,-0.00003673,-0.00014552,-0.00027122,0.00028302,0.0001192
 5,0.00038323,-0.00065935,-0.00025701,0.00002329,-0.00006638,-0.0000127
 8,0.00000453,-0.00007268,-0.00005006,-0.00050589,0.00081109,0.00049914
 ,0.00058996,-0.00090790,-0.00040690,-0.00239047,0.00023011,-0.00244713
 ,0.00042390,0.00057628,0.00059112,0.00022023,0.00059468,0.00070630,-0.
 00028769,-0.00006663,-0.00059000,-0.08291084,0.08644171,0.06852269\\-0
 .00000163,-0.00000024,0.00000616,0.00003426,0.00001001,-0.00001968,-0.
 00003625,-0.00000922,0.00000218,0.00002431,0.00001785,-0.00000047,-0.0
 0000654,-0.00002389,-0.00000952,-0.00000050,0.00001250,0.00000820,0.00
 000477,-0.00000159,-0.00000535,-0.00000540,0.00000882,0.00000242,0.000
 00158,-0.00000392,-0.00000270,-0.00000040,-0.00000073,0.00000431,-0.00
 000359,-0.00000284,0.00000043,0.00000558,-0.00000036,-0.00000120,-0.00
 000026,-0.00000391,-0.00000068,-0.00000677,-0.00000037,-0.00000173,0.0
 0000341,0.00000496,0.00001181,-0.00002635,0.00001812,0.00000753,-0.000
 01051,-0.00010955,0.00003390,0.00003006,0.00009227,-0.00003622,-0.0000
 0578,-0.00000790,0.00000061\\\@


 ONE THORN OF EXPERIENCE IS WORTH A WHOLE WILDERNESS OF
 WARNING....  LOWELL - AMONG MY BOOKS
 Job cpu time:       0 days  0 hours  0 minutes 42.4 seconds.
 Elapsed time:       0 days  0 hours  7 minutes 59.3 seconds.
 File lengths (MBytes):  RWF=    421 Int=      0 D2E=      0 Chk=     18 Scr=      1
 Normal termination of Gaussian 16 at Wed May 11 19:27:55 2022.
