 Entering Gaussian System, Link 0=g16
 Initial command:
 /apps/chpc/chem/gaussian16/B01/g16/l1.exe "/mnt/lustre/users/lmoskaleva/Kgalaletso/4170593.sched01/Gau-6304.inp" -scrdir="/mnt/lustre/users/lmoskaleva/Kgalaletso/4170593.sched01/"
 Entering Link 1 = /apps/chpc/chem/gaussian16/B01/g16/l1.exe PID=      6306.
  
 Copyright (c) 1988-2017, Gaussian, Inc.  All Rights Reserved.
  
 This is part of the Gaussian(R) 16 program.  It is based on
 the Gaussian(R) 09 system (copyright 2009, Gaussian, Inc.),
 the Gaussian(R) 03 system (copyright 2003, Gaussian, Inc.),
 the Gaussian(R) 98 system (copyright 1998, Gaussian, Inc.),
 the Gaussian(R) 94 system (copyright 1995, Gaussian, Inc.),
 the Gaussian 92(TM) system (copyright 1992, Gaussian, Inc.),
 the Gaussian 90(TM) system (copyright 1990, Gaussian, Inc.),
 the Gaussian 88(TM) system (copyright 1988, Gaussian, Inc.),
 the Gaussian 86(TM) system (copyright 1986, Carnegie Mellon
 University), and the Gaussian 82(TM) system (copyright 1983,
 Carnegie Mellon University). Gaussian is a federally registered
 trademark of Gaussian, Inc.
  
 This software contains proprietary and confidential information,
 including trade secrets, belonging to Gaussian, Inc.
  
 This software is provided under written license and may be
 used, copied, transmitted, or stored only in accord with that
 written license.
  
 The following legend is applicable only to US Government
 contracts under FAR:
  
                    RESTRICTED RIGHTS LEGEND
  
 Use, reproduction and disclosure by the US Government is
 subject to restrictions as set forth in subparagraphs (a)
 and (c) of the Commercial Computer Software - Restricted
 Rights clause in FAR 52.227-19.
  
 Gaussian, Inc.
 340 Quinnipiac St., Bldg. 40, Wallingford CT 06492
  
  
 ---------------------------------------------------------------
 Warning -- This program may not be used in any manner that
 competes with the business of Gaussian, Inc. or will provide
 assistance to any competitor of Gaussian, Inc.  The licensee
 of this program is prohibited from giving any competitor of
 Gaussian, Inc. access to this program.  By using this program,
 the user acknowledges that Gaussian, Inc. is engaged in the
 business of creating and licensing software in the field of
 computational chemistry and represents and warrants to the
 licensee that it is not a competitor of Gaussian, Inc. and that
 it will not use this program in any manner prohibited above.
 ---------------------------------------------------------------
  

 Cite this work as:
 Gaussian 16, Revision B.01,
 M. J. Frisch, G. W. Trucks, H. B. Schlegel, G. E. Scuseria, 
 M. A. Robb, J. R. Cheeseman, G. Scalmani, V. Barone, 
 G. A. Petersson, H. Nakatsuji, X. Li, M. Caricato, A. V. Marenich, 
 J. Bloino, B. G. Janesko, R. Gomperts, B. Mennucci, H. P. Hratchian, 
 J. V. Ortiz, A. F. Izmaylov, J. L. Sonnenberg, D. Williams-Young, 
 F. Ding, F. Lipparini, F. Egidi, J. Goings, B. Peng, A. Petrone, 
 T. Henderson, D. Ranasinghe, V. G. Zakrzewski, J. Gao, N. Rega, 
 G. Zheng, W. Liang, M. Hada, M. Ehara, K. Toyota, R. Fukuda, 
 J. Hasegawa, M. Ishida, T. Nakajima, Y. Honda, O. Kitao, H. Nakai, 
 T. Vreven, K. Throssell, J. A. Montgomery, Jr., J. E. Peralta, 
 F. Ogliaro, M. J. Bearpark, J. J. Heyd, E. N. Brothers, K. N. Kudin, 
 V. N. Staroverov, T. A. Keith, R. Kobayashi, J. Normand, 
 K. Raghavachari, A. P. Rendell, J. C. Burant, S. S. Iyengar, 
 J. Tomasi, M. Cossi, J. M. Millam, M. Klene, C. Adamo, R. Cammi, 
 J. W. Ochterski, R. L. Martin, K. Morokuma, O. Farkas, 
 J. B. Foresman, and D. J. Fox, Gaussian, Inc., Wallingford CT, 2016.
 
 ******************************************
 Gaussian 16:  ES64L-G16RevB.01 20-Dec-2017
                 9-May-2022 
 ******************************************
 %nprocshared=24
 Will use up to   24 processors via shared memory.
 %lindaworkers=cnode0987.cm.cluster,cnode0993.cm.cluster,cnode1003.cm.cluster
 %mem=20GB
 %chk=RcyclohexylO2-H-Shift-TS3-b3lyp-c.chk
 SetLPE:    new flags="-opt 'Tsnet.Node.lindarsharg: ssh'  -nodelist 'cnode0987.cm.cluster cnode0993.cm.cluster cnode1003.cm.cluster' -env GAUSS_MDEF=2684354560 -env GAUSS_EXEDIR="/apps/chpc/chem/gaussian16/B01/g16/bsd:/apps/chpc/chem/gaussian16/B01/g16""
 Will use up to    3 processors via Linda.
 ----------------------------------------------------------------------
 # opt=(calcfc,ts,noeigentest) freq ub3lyp cc-pvtz+d int(grid=ultrafine
 )
 ----------------------------------------------------------------------
 1/5=1,10=4,11=1,18=20,26=4,38=1/1,3;
 2/9=110,12=2,17=6,18=5,40=1/2;
 3/5=16,6=1,7=9,11=2,25=1,30=1,71=2,74=-5,75=-5,116=2,140=1/1,2,3;
 4//1;
 5/5=2,38=5/2;
 8/6=4,10=90,11=11/1;
 11/6=1,8=1,9=11,15=111,16=1/1,2,10;
 10/6=1,13=1/2;
 6/7=2,8=2,9=2,10=2,28=1/1;
 7/10=1,18=20,25=1/1,2,3,16;
 1/5=1,10=4,11=1,18=20,26=4/3(2);
 2/9=110/2;
 99//99;
 2/9=110/2;
 3/5=16,6=1,7=9,11=2,25=1,30=1,71=1,74=-5,75=-5,116=2/1,2,3;
 4/5=5,16=3,69=1/1;
 5/5=2,38=5/2;
 7//1,2,3,16;
 1/5=1,11=1,18=20,26=4/3(-5);
 2/9=110/2;
 6/7=2,8=2,9=2,10=2,19=2,28=1/1;
 99/9=1/99;
 ---------------------------------
 RcyclohexylO2-H-Shift-TS3-b3lyp-c
 ---------------------------------
 Symbolic Z-matrix:
 Charge =  0 Multiplicity = 2
 C                    -0.3277    0.93735  -0.31745 
 C                    -0.59726  -0.4484    0.26194 
 C                     0.42428  -1.46538  -0.19328 
 C                     1.80305  -0.9354    0.25919 
 C                     2.09199   0.50559  -0.19956 
 C                     0.97039   1.50724   0.18369 
 H                     1.1847    2.48494  -0.25012 
 H                     0.94533   1.63028   1.27036 
 H                     2.20952   0.51947  -1.28685 
 H                     3.04325   0.83762   0.22114 
 H                     2.58682  -1.59947  -0.10847 
 H                     1.85209  -0.97974   1.35135 
 H                     0.38858  -1.56483  -1.28055 
 H                     0.2353   -2.44974   0.23903 
 H                    -0.61346  -0.38633   1.35551 
 O                    -1.95019  -0.66735  -0.18892 
 O                    -2.56949   0.51349   0.18045 
 H                    -1.49768   1.23216  -0.00048 
 H                    -0.36543   0.90053  -1.41035 
 

 GradGradGradGradGradGradGradGradGradGradGradGradGradGradGradGradGradGrad
 Berny optimization.
 Initialization pass.
                           ----------------------------
                           !    Initial Parameters    !
                           ! (Angstroms and Degrees)  !
 --------------------------                            --------------------------
 ! Name  Definition              Value          Derivative Info.                !
 --------------------------------------------------------------------------------
 ! R1    R(1,2)                  1.526          calculate D2E/DX2 analytically  !
 ! R2    R(1,6)                  1.5036         calculate D2E/DX2 analytically  !
 ! R3    R(1,18)                 1.2475         calculate D2E/DX2 analytically  !
 ! R4    R(1,19)                 1.0942         calculate D2E/DX2 analytically  !
 ! R5    R(2,3)                  1.5116         calculate D2E/DX2 analytically  !
 ! R6    R(2,15)                 1.0955         calculate D2E/DX2 analytically  !
 ! R7    R(2,16)                 1.4428         calculate D2E/DX2 analytically  !
 ! R8    R(3,4)                  1.5449         calculate D2E/DX2 analytically  !
 ! R9    R(3,13)                 1.0924         calculate D2E/DX2 analytically  !
 ! R10   R(3,14)                 1.0916         calculate D2E/DX2 analytically  !
 ! R11   R(4,5)                  1.5396         calculate D2E/DX2 analytically  !
 ! R12   R(4,11)                 1.0911         calculate D2E/DX2 analytically  !
 ! R13   R(4,12)                 1.0942         calculate D2E/DX2 analytically  !
 ! R14   R(5,6)                  1.5518         calculate D2E/DX2 analytically  !
 ! R15   R(5,9)                  1.0937         calculate D2E/DX2 analytically  !
 ! R16   R(5,10)                 1.0918         calculate D2E/DX2 analytically  !
 ! R17   R(6,7)                  1.0909         calculate D2E/DX2 analytically  !
 ! R18   R(6,8)                  1.0939         calculate D2E/DX2 analytically  !
 ! R19   R(16,17)                1.3836         calculate D2E/DX2 analytically  !
 ! A1    A(2,1,6)              111.7234         calculate D2E/DX2 analytically  !
 ! A2    A(2,1,18)              87.2755         calculate D2E/DX2 analytically  !
 ! A3    A(2,1,19)             110.0346         calculate D2E/DX2 analytically  !
 ! A4    A(6,1,18)             129.4503         calculate D2E/DX2 analytically  !
 ! A5    A(6,1,19)             112.05           calculate D2E/DX2 analytically  !
 ! A6    A(18,1,19)            103.2619         calculate D2E/DX2 analytically  !
 ! A7    A(1,2,3)              112.1624         calculate D2E/DX2 analytically  !
 ! A8    A(1,2,15)             109.2802         calculate D2E/DX2 analytically  !
 ! A9    A(1,2,16)             100.6497         calculate D2E/DX2 analytically  !
 ! A10   A(3,2,15)             110.4102         calculate D2E/DX2 analytically  !
 ! A11   A(3,2,16)             115.9444         calculate D2E/DX2 analytically  !
 ! A12   A(15,2,16)            107.8596         calculate D2E/DX2 analytically  !
 ! A13   A(2,3,4)              106.5063         calculate D2E/DX2 analytically  !
 ! A14   A(2,3,13)             109.8092         calculate D2E/DX2 analytically  !
 ! A15   A(2,3,14)             111.7417         calculate D2E/DX2 analytically  !
 ! A16   A(4,3,13)             110.6049         calculate D2E/DX2 analytically  !
 ! A17   A(4,3,14)             110.3574         calculate D2E/DX2 analytically  !
 ! A18   A(13,3,14)            107.8443         calculate D2E/DX2 analytically  !
 ! A19   A(3,4,5)              113.6602         calculate D2E/DX2 analytically  !
 ! A20   A(3,4,11)             109.4883         calculate D2E/DX2 analytically  !
 ! A21   A(3,4,12)             108.5695         calculate D2E/DX2 analytically  !
 ! A22   A(5,4,11)             109.538          calculate D2E/DX2 analytically  !
 ! A23   A(5,4,12)             109.083          calculate D2E/DX2 analytically  !
 ! A24   A(11,4,12)            106.2298         calculate D2E/DX2 analytically  !
 ! A25   A(4,5,6)              113.2591         calculate D2E/DX2 analytically  !
 ! A26   A(4,5,9)              109.1632         calculate D2E/DX2 analytically  !
 ! A27   A(4,5,10)             109.4705         calculate D2E/DX2 analytically  !
 ! A28   A(6,5,9)              108.3603         calculate D2E/DX2 analytically  !
 ! A29   A(6,5,10)             109.7706         calculate D2E/DX2 analytically  !
 ! A30   A(9,5,10)             106.5926         calculate D2E/DX2 analytically  !
 ! A31   A(1,6,5)              107.2785         calculate D2E/DX2 analytically  !
 ! A32   A(1,6,7)              112.1321         calculate D2E/DX2 analytically  !
 ! A33   A(1,6,8)              110.7279         calculate D2E/DX2 analytically  !
 ! A34   A(5,6,7)              109.7731         calculate D2E/DX2 analytically  !
 ! A35   A(5,6,8)              109.5418         calculate D2E/DX2 analytically  !
 ! A36   A(7,6,8)              107.3813         calculate D2E/DX2 analytically  !
 ! A37   A(2,16,17)            101.9343         calculate D2E/DX2 analytically  !
 ! D1    D(6,1,2,3)            -64.6997         calculate D2E/DX2 analytically  !
 ! D2    D(6,1,2,15)            58.0806         calculate D2E/DX2 analytically  !
 ! D3    D(6,1,2,16)           171.4328         calculate D2E/DX2 analytically  !
 ! D4    D(18,1,2,3)           163.5567         calculate D2E/DX2 analytically  !
 ! D5    D(18,1,2,15)          -73.663          calculate D2E/DX2 analytically  !
 ! D6    D(18,1,2,16)           39.6891         calculate D2E/DX2 analytically  !
 ! D7    D(19,1,2,3)            60.4301         calculate D2E/DX2 analytically  !
 ! D8    D(19,1,2,15)         -176.7896         calculate D2E/DX2 analytically  !
 ! D9    D(19,1,2,16)          -63.4374         calculate D2E/DX2 analytically  !
 ! D10   D(2,1,6,5)             57.6512         calculate D2E/DX2 analytically  !
 ! D11   D(2,1,6,7)            178.2467         calculate D2E/DX2 analytically  !
 ! D12   D(2,1,6,8)            -61.8379         calculate D2E/DX2 analytically  !
 ! D13   D(18,1,6,5)           162.8156         calculate D2E/DX2 analytically  !
 ! D14   D(18,1,6,7)           -76.5889         calculate D2E/DX2 analytically  !
 ! D15   D(18,1,6,8)            43.3265         calculate D2E/DX2 analytically  !
 ! D16   D(19,1,6,5)           -66.3532         calculate D2E/DX2 analytically  !
 ! D17   D(19,1,6,7)            54.2422         calculate D2E/DX2 analytically  !
 ! D18   D(19,1,6,8)           174.1577         calculate D2E/DX2 analytically  !
 ! D19   D(1,2,3,4)             58.4086         calculate D2E/DX2 analytically  !
 ! D20   D(1,2,3,13)           -61.3849         calculate D2E/DX2 analytically  !
 ! D21   D(1,2,3,14)           178.9918         calculate D2E/DX2 analytically  !
 ! D22   D(15,2,3,4)           -63.7306         calculate D2E/DX2 analytically  !
 ! D23   D(15,2,3,13)          176.476          calculate D2E/DX2 analytically  !
 ! D24   D(15,2,3,14)           56.8527         calculate D2E/DX2 analytically  !
 ! D25   D(16,2,3,4)           173.2487         calculate D2E/DX2 analytically  !
 ! D26   D(16,2,3,13)           53.4553         calculate D2E/DX2 analytically  !
 ! D27   D(16,2,3,14)          -66.168          calculate D2E/DX2 analytically  !
 ! D28   D(1,2,16,17)          -48.8429         calculate D2E/DX2 analytically  !
 ! D29   D(3,2,16,17)         -170.0647         calculate D2E/DX2 analytically  !
 ! D30   D(15,2,16,17)          65.5867         calculate D2E/DX2 analytically  !
 ! D31   D(2,3,4,5)            -53.1116         calculate D2E/DX2 analytically  !
 ! D32   D(2,3,4,11)          -175.9564         calculate D2E/DX2 analytically  !
 ! D33   D(2,3,4,12)            68.4716         calculate D2E/DX2 analytically  !
 ! D34   D(13,3,4,5)            66.1649         calculate D2E/DX2 analytically  !
 ! D35   D(13,3,4,11)          -56.6799         calculate D2E/DX2 analytically  !
 ! D36   D(13,3,4,12)         -172.2519         calculate D2E/DX2 analytically  !
 ! D37   D(14,3,4,5)          -174.5807         calculate D2E/DX2 analytically  !
 ! D38   D(14,3,4,11)           62.5745         calculate D2E/DX2 analytically  !
 ! D39   D(14,3,4,12)          -52.9975         calculate D2E/DX2 analytically  !
 ! D40   D(3,4,5,6)             52.7157         calculate D2E/DX2 analytically  !
 ! D41   D(3,4,5,9)            -68.1041         calculate D2E/DX2 analytically  !
 ! D42   D(3,4,5,10)           175.5676         calculate D2E/DX2 analytically  !
 ! D43   D(11,4,5,6)           175.5332         calculate D2E/DX2 analytically  !
 ! D44   D(11,4,5,9)            54.7133         calculate D2E/DX2 analytically  !
 ! D45   D(11,4,5,10)          -61.615          calculate D2E/DX2 analytically  !
 ! D46   D(12,4,5,6)           -68.5811         calculate D2E/DX2 analytically  !
 ! D47   D(12,4,5,9)           170.599          calculate D2E/DX2 analytically  !
 ! D48   D(12,4,5,10)           54.2707         calculate D2E/DX2 analytically  !
 ! D49   D(4,5,6,1)            -52.4442         calculate D2E/DX2 analytically  !
 ! D50   D(4,5,6,7)           -174.5233         calculate D2E/DX2 analytically  !
 ! D51   D(4,5,6,8)             67.8021         calculate D2E/DX2 analytically  !
 ! D52   D(9,5,6,1)             68.8287         calculate D2E/DX2 analytically  !
 ! D53   D(9,5,6,7)            -53.2504         calculate D2E/DX2 analytically  !
 ! D54   D(9,5,6,8)           -170.9249         calculate D2E/DX2 analytically  !
 ! D55   D(10,5,6,1)          -175.1298         calculate D2E/DX2 analytically  !
 ! D56   D(10,5,6,7)            62.7911         calculate D2E/DX2 analytically  !
 ! D57   D(10,5,6,8)           -54.8835         calculate D2E/DX2 analytically  !
 --------------------------------------------------------------------------------
 Trust Radius=3.00D-01 FncErr=1.00D-07 GrdErr=1.00D-06 EigMax=2.50D+02 EigMin=1.00D-04
 Number of steps in this run=    114 maximum allowed number of steps=    114.
 Search for a saddle point of order  1.
 GradGradGradGradGradGradGradGradGradGradGradGradGradGradGradGradGradGrad

                          Input orientation:                          
 ---------------------------------------------------------------------
 Center     Atomic      Atomic             Coordinates (Angstroms)
 Number     Number       Type             X           Y           Z
 ---------------------------------------------------------------------
      1          6           0       -0.327703    0.937353   -0.317448
      2          6           0       -0.597259   -0.448397    0.261938
      3          6           0        0.424283   -1.465384   -0.193283
      4          6           0        1.803045   -0.935399    0.259192
      5          6           0        2.091987    0.505588   -0.199558
      6          6           0        0.970388    1.507236    0.183689
      7          1           0        1.184699    2.484940   -0.250123
      8          1           0        0.945326    1.630281    1.270362
      9          1           0        2.209517    0.519467   -1.286850
     10          1           0        3.043249    0.837619    0.221140
     11          1           0        2.586815   -1.599469   -0.108466
     12          1           0        1.852086   -0.979738    1.351353
     13          1           0        0.388575   -1.564831   -1.280545
     14          1           0        0.235303   -2.449744    0.239033
     15          1           0       -0.613457   -0.386331    1.355511
     16          8           0       -1.950190   -0.667346   -0.188918
     17          8           0       -2.569491    0.513487    0.180446
     18          1           0       -1.497683    1.232163   -0.000481
     19          1           0       -0.365430    0.900533   -1.410348
 ---------------------------------------------------------------------
                    Distance matrix (angstroms):
                    1          2          3          4          5
     1  C    0.000000
     2  C    1.525992   0.000000
     3  C    2.520723   1.511634   0.000000
     4  C    2.894789   2.449212   1.544863   0.000000
     5  C    2.460735   2.890521   2.581861   1.539605   0.000000
     6  C    1.503644   2.507616   3.045785   2.581760   1.551825
     7  H    2.164929   3.470165   4.023248   3.512901   2.177972
     8  H    2.149859   2.778019   3.463652   2.888055   2.177253
     9  H    2.748064   3.348656   2.884889   2.161504   1.093714
    10  H    3.415163   3.861192   3.512058   2.164058   1.091847
    11  H    3.869568   3.405950   2.168344   1.091081   2.164352
    12  H    3.348375   2.732845   2.158790   1.094160   2.160803
    13  H    2.775164   2.144189   1.092384   2.183506   2.890810
    14  H    3.478372   2.167735   1.091593   2.179785   3.517616
    15  H    2.152344   1.095453   2.154071   2.709774   3.245487
    16  O    2.285617   1.442786   2.504996   3.789384   4.208929
    17  O    2.335203   2.195805   3.608086   4.607010   4.676948
    18  H    1.247491   1.924554   3.317813   3.957343   3.667870
    19  H    1.094171   2.160995   2.775330   3.295496   2.767832
                    6          7          8          9         10
     6  C    0.000000
     7  H    1.090884   0.000000
     8  H    1.093904   1.760573   0.000000
     9  H    2.161854   2.447067   3.061277   0.000000
    10  H    2.178656   2.527838   2.475977   1.752245   0.000000
    11  H    3.514229   4.320694   3.876459   2.453738   2.501274
    12  H    2.885458   3.874806   2.764231   3.055403   2.449293
    13  H    3.452547   4.253966   4.126238   2.767701   3.882540
    14  H    4.025059   5.048934   4.267830   3.878409   4.323383
    15  H    2.732641   3.749083   2.550251   3.971363   4.019496
    16  O    3.660248   4.446142   3.973991   4.462863   5.231396
    17  O    3.676723   4.262154   3.845658   4.999191   5.622239
    18  H    2.490172   2.971017   2.782415   3.988234   4.563425
    19  H    2.166438   2.501873   3.071941   2.605919   3.779524
                   11         12         13         14         15
    11  H    0.000000
    12  H    1.747846   0.000000
    13  H    2.491431   3.067749   0.000000
    14  H    2.524546   2.451971   1.765129   0.000000
    15  H    3.722455   2.535952   3.056423   2.494913   0.000000
    16  O    4.632466   4.114283   2.732572   2.852449   2.061816
    17  O    5.579923   4.811558   3.899238   4.080569   2.452859
    18  H    4.971210   4.235672   3.608283   4.076401   2.289125
    19  H    4.081747   4.009961   2.581355   3.782287   3.060639
                   16         17         18         19
    16  O    0.000000
    17  O    1.383593   0.000000
    18  H    1.961735   1.303074   0.000000
    19  H    2.541968   2.745599   1.838396   0.000000
 Stoichiometry    C6H11O2(2)
 Framework group  C1[X(C6H11O2)]
 Deg. of freedom    51
 Full point group                 C1      NOp   1
 Largest Abelian subgroup         C1      NOp   1
 Largest concise Abelian subgroup C1      NOp   1
                         Standard orientation:                         
 ---------------------------------------------------------------------
 Center     Atomic      Atomic             Coordinates (Angstroms)
 Number     Number       Type             X           Y           Z
 ---------------------------------------------------------------------
      1          6           0        0.327703    0.937353    0.317448
      2          6           0        0.597259   -0.448397   -0.261938
      3          6           0       -0.424283   -1.465384    0.193283
      4          6           0       -1.803045   -0.935399   -0.259192
      5          6           0       -2.091987    0.505588    0.199558
      6          6           0       -0.970388    1.507236   -0.183689
      7          1           0       -1.184699    2.484940    0.250123
      8          1           0       -0.945326    1.630281   -1.270362
      9          1           0       -2.209517    0.519467    1.286850
     10          1           0       -3.043249    0.837620   -0.221140
     11          1           0       -2.586815   -1.599469    0.108466
     12          1           0       -1.852086   -0.979738   -1.351353
     13          1           0       -0.388575   -1.564831    1.280545
     14          1           0       -0.235303   -2.449744   -0.239033
     15          1           0        0.613457   -0.386331   -1.355511
     16          8           0        1.950190   -0.667346    0.188918
     17          8           0        2.569491    0.513487   -0.180446
     18          1           0        1.497683    1.232163    0.000481
     19          1           0        0.365430    0.900533    1.410348
 ---------------------------------------------------------------------
 Rotational constants (GHZ):           3.8456740           1.5695565           1.1997594
 Standard basis: CC-pVTZ+d (5D, 7F)
 There are   445 symmetry adapted cartesian basis functions of A   symmetry.
 There are   394 symmetry adapted basis functions of A   symmetry.
   394 basis functions,   603 primitive gaussians,   445 cartesian basis functions
    32 alpha electrons       31 beta electrons
       nuclear repulsion energy       404.6513233812 Hartrees.
 NAtoms=   19 NActive=   19 NUniq=   19 SFac= 1.00D+00 NAtFMM=   60 NAOKFM=F Big=F
 Integral buffers will be    131072 words long.
 Raffenetti 2 integral format.
 Two-electron integral symmetry is turned on.
 One-electron integrals computed using PRISM.
 NBasis=   394 RedAO= T EigKep=  3.12D-04  NBF=   394
 NBsUse=   394 1.00D-06 EigRej= -1.00D+00 NBFU=   394
 ExpMin= 1.03D-01 ExpMax= 1.53D+04 ExpMxC= 5.22D+02 IAcc=3 IRadAn=         5 AccDes= 0.00D+00
 Harris functional with IExCor=  402 and IRadAn=       5 diagonalized for initial guess.
 HarFok:  IExCor=  402 AccDes= 0.00D+00 IRadAn=         5 IDoV= 1 UseB2=F ITyADJ=14
 ICtDFT=  3500011 ScaDFX=  1.000000  1.000000  1.000000  1.000000
 FoFCou: FMM=F IPFlag=           0 FMFlag=      100000 FMFlg1=           0
         NFxFlg=           0 DoJE=T BraDBF=F KetDBF=T FulRan=T
         wScrn=  0.000000 ICntrl=       500 IOpCl=  0 I1Cent=   200000004 NGrid=           0
         NMat0=    1 NMatS0=      1 NMatT0=    0 NMatD0=    1 NMtDS0=    0 NMtDT0=    0
 Petite list used in FoFCou.
 Initial guess <Sx>= 0.0000 <Sy>= 0.0000 <Sz>= 0.5000 <S**2>= 0.7500 S= 0.5000
 Requested convergence on RMS density matrix=1.00D-08 within 128 cycles.
 Requested convergence on MAX density matrix=1.00D-06.
 Requested convergence on             energy=1.00D-06.
 No special actions if energy rises.
 Integral accuracy reduced to 1.0D-05 until final iterations.
 Initial convergence to 1.0D-05 achieved.  Increase integral accuracy.
 SCF Done:  E(UB3LYP) =  -385.671663142     A.U. after   22 cycles
            NFock= 22  Conv=0.25D-08     -V/T= 2.0065
 <Sx>= 0.0000 <Sy>= 0.0000 <Sz>= 0.5000 <S**2>= 0.7566 S= 0.5033
 <L.S>= 0.000000000000E+00
 Annihilation of the first spin contaminant:
 S**2 before annihilation     0.7566,   after     0.7500
 DoSCS=F DFT=T ScalE2(SS,OS)=  1.000000  1.000000
 Range of M.O.s used for correlation:     1   394
 NBasis=   394 NAE=    32 NBE=    31 NFC=     0 NFV=     0
 NROrb=    394 NOA=    32 NOB=    31 NVA=   362 NVB=   363

 **** Warning!!: The largest alpha MO coefficient is  0.14107309D+02


 **** Warning!!: The largest beta MO coefficient is  0.13986853D+02

 Symmetrizing basis deriv contribution to polar:
 IMax=3 JMax=2 DiffMx= 0.00D+00
 G2DrvN: will do    20 centers at a time, making    1 passes.
 Calling FoFCou, ICntrl=  3107 FMM=F I1Cent=   0 AccDes= 0.00D+00.
 End of G2Drv F.D. properties file   721 does not exist.
 End of G2Drv F.D. properties file   722 does not exist.
 End of G2Drv F.D. properties file   788 does not exist.
          IDoAtm=1111111111111111111
          Differentiating once with respect to nuclear coordinates.
 CalDSu exits because no D1Ps are significant.
          There are    60 degrees of freedom in the 1st order CPHF.  IDoFFX=6 NUNeed=     0.
     54 vectors produced by pass  0 Test12= 3.81D-14 1.67D-09 XBig12= 2.96D-01 2.45D-01.
 AX will form    54 AO Fock derivatives at one time.
     54 vectors produced by pass  1 Test12= 3.81D-14 1.67D-09 XBig12= 1.19D-01 5.16D-02.
     54 vectors produced by pass  2 Test12= 3.81D-14 1.67D-09 XBig12= 2.02D-03 6.97D-03.
     54 vectors produced by pass  3 Test12= 3.81D-14 1.67D-09 XBig12= 1.75D-05 3.83D-04.
     54 vectors produced by pass  4 Test12= 3.81D-14 1.67D-09 XBig12= 1.64D-07 3.52D-05.
     54 vectors produced by pass  5 Test12= 3.81D-14 1.67D-09 XBig12= 1.15D-09 2.97D-06.
     38 vectors produced by pass  6 Test12= 3.81D-14 1.67D-09 XBig12= 5.94D-12 2.20D-07.
      7 vectors produced by pass  7 Test12= 3.81D-14 1.67D-09 XBig12= 2.68D-14 1.38D-08.
 InvSVY:  IOpt=1 It=  1 EMax= 8.33D-16
 Solved reduced A of dimension   369 with    60 vectors.
 End of Minotr F.D. properties file   721 does not exist.
 End of Minotr F.D. properties file   722 does not exist.
 End of Minotr F.D. properties file   788 does not exist.

 **********************************************************************

            Population analysis using the SCF Density.

 **********************************************************************

 Orbital symmetries:
 Alpha Orbitals:
       Occupied  (A) (A) (A) (A) (A) (A) (A) (A) (A) (A) (A) (A)
                 (A) (A) (A) (A) (A) (A) (A) (A) (A) (A) (A) (A)
                 (A) (A) (A) (A) (A) (A) (A) (A)
       Virtual   (A) (A) (A) (A) (A) (A) (A) (A) (A) (A) (A) (A)
                 (A) (A) (A) (A) (A) (A) (A) (A) (A) (A) (A) (A)
                 (A) (A) (A) (A) (A) (A) (A) (A) (A) (A) (A) (A)
                 (A) (A) (A) (A) (A) (A) (A) (A) (A) (A) (A) (A)
                 (A) (A) (A) (A) (A) (A) (A) (A) (A) (A) (A) (A)
                 (A) (A) (A) (A) (A) (A) (A) (A) (A) (A) (A) (A)
                 (A) (A) (A) (A) (A) (A) (A) (A) (A) (A) (A) (A)
                 (A) (A) (A) (A) (A) (A) (A) (A) (A) (A) (A) (A)
                 (A) (A) (A) (A) (A) (A) (A) (A) (A) (A) (A) (A)
                 (A) (A) (A) (A) (A) (A) (A) (A) (A) (A) (A) (A)
                 (A) (A) (A) (A) (A) (A) (A) (A) (A) (A) (A) (A)
                 (A) (A) (A) (A) (A) (A) (A) (A) (A) (A) (A) (A)
                 (A) (A) (A) (A) (A) (A) (A) (A) (A) (A) (A) (A)
                 (A) (A) (A) (A) (A) (A) (A) (A) (A) (A) (A) (A)
                 (A) (A) (A) (A) (A) (A) (A) (A) (A) (A) (A) (A)
                 (A) (A) (A) (A) (A) (A) (A) (A) (A) (A) (A) (A)
                 (A) (A) (A) (A) (A) (A) (A) (A) (A) (A) (A) (A)
                 (A) (A) (A) (A) (A) (A) (A) (A) (A) (A) (A) (A)
                 (A) (A) (A) (A) (A) (A) (A) (A) (A) (A) (A) (A)
                 (A) (A) (A) (A) (A) (A) (A) (A) (A) (A) (A) (A)
                 (A) (A) (A) (A) (A) (A) (A) (A) (A) (A) (A) (A)
                 (A) (A) (A) (A) (A) (A) (A) (A) (A) (A) (A) (A)
                 (A) (A) (A) (A) (A) (A) (A) (A) (A) (A) (A) (A)
                 (A) (A) (A) (A) (A) (A) (A) (A) (A) (A) (A) (A)
                 (A) (A) (A) (A) (A) (A) (A) (A) (A) (A) (A) (A)
                 (A) (A) (A) (A) (A) (A) (A) (A) (A) (A) (A) (A)
                 (A) (A) (A) (A) (A) (A) (A) (A) (A) (A) (A) (A)
                 (A) (A) (A) (A) (A) (A) (A) (A) (A) (A) (A) (A)
                 (A) (A) (A) (A) (A) (A) (A) (A) (A) (A) (A) (A)
                 (A) (A) (A) (A) (A) (A) (A) (A) (A) (A) (A) (A)
                 (A) (A)
 Beta  Orbitals:
       Occupied  (A) (A) (A) (A) (A) (A) (A) (A) (A) (A) (A) (A)
                 (A) (A) (A) (A) (A) (A) (A) (A) (A) (A) (A) (A)
                 (A) (A) (A) (A) (A) (A) (A)
       Virtual   (A) (A) (A) (A) (A) (A) (A) (A) (A) (A) (A) (A)
                 (A) (A) (A) (A) (A) (A) (A) (A) (A) (A) (A) (A)
                 (A) (A) (A) (A) (A) (A) (A) (A) (A) (A) (A) (A)
                 (A) (A) (A) (A) (A) (A) (A) (A) (A) (A) (A) (A)
                 (A) (A) (A) (A) (A) (A) (A) (A) (A) (A) (A) (A)
                 (A) (A) (A) (A) (A) (A) (A) (A) (A) (A) (A) (A)
                 (A) (A) (A) (A) (A) (A) (A) (A) (A) (A) (A) (A)
                 (A) (A) (A) (A) (A) (A) (A) (A) (A) (A) (A) (A)
                 (A) (A) (A) (A) (A) (A) (A) (A) (A) (A) (A) (A)
                 (A) (A) (A) (A) (A) (A) (A) (A) (A) (A) (A) (A)
                 (A) (A) (A) (A) (A) (A) (A) (A) (A) (A) (A) (A)
                 (A) (A) (A) (A) (A) (A) (A) (A) (A) (A) (A) (A)
                 (A) (A) (A) (A) (A) (A) (A) (A) (A) (A) (A) (A)
                 (A) (A) (A) (A) (A) (A) (A) (A) (A) (A) (A) (A)
                 (A) (A) (A) (A) (A) (A) (A) (A) (A) (A) (A) (A)
                 (A) (A) (A) (A) (A) (A) (A) (A) (A) (A) (A) (A)
                 (A) (A) (A) (A) (A) (A) (A) (A) (A) (A) (A) (A)
                 (A) (A) (A) (A) (A) (A) (A) (A) (A) (A) (A) (A)
                 (A) (A) (A) (A) (A) (A) (A) (A) (A) (A) (A) (A)
                 (A) (A) (A) (A) (A) (A) (A) (A) (A) (A) (A) (A)
                 (A) (A) (A) (A) (A) (A) (A) (A) (A) (A) (A) (A)
                 (A) (A) (A) (A) (A) (A) (A) (A) (A) (A) (A) (A)
                 (A) (A) (A) (A) (A) (A) (A) (A) (A) (A) (A) (A)
                 (A) (A) (A) (A) (A) (A) (A) (A) (A) (A) (A) (A)
                 (A) (A) (A) (A) (A) (A) (A) (A) (A) (A) (A) (A)
                 (A) (A) (A) (A) (A) (A) (A) (A) (A) (A) (A) (A)
                 (A) (A) (A) (A) (A) (A) (A) (A) (A) (A) (A) (A)
                 (A) (A) (A) (A) (A) (A) (A) (A) (A) (A) (A) (A)
                 (A) (A) (A) (A) (A) (A) (A) (A) (A) (A) (A) (A)
                 (A) (A) (A) (A) (A) (A) (A) (A) (A) (A) (A) (A)
                 (A) (A) (A)
 The electronic state is 2-A.
 Alpha  occ. eigenvalues --  -19.21227 -19.19169 -10.23753 -10.18750 -10.18719
 Alpha  occ. eigenvalues --  -10.18613 -10.18594 -10.18430  -1.15752  -0.88763
 Alpha  occ. eigenvalues --   -0.84061  -0.76273  -0.74840  -0.63999  -0.61162
 Alpha  occ. eigenvalues --   -0.57971  -0.53839  -0.48700  -0.48474  -0.46552
 Alpha  occ. eigenvalues --   -0.44354  -0.43414  -0.42885  -0.39684  -0.38126
 Alpha  occ. eigenvalues --   -0.36622  -0.36365  -0.34395  -0.33254  -0.32773
 Alpha  occ. eigenvalues --   -0.26665  -0.24889
 Alpha virt. eigenvalues --    0.02729   0.03808   0.04580   0.05772   0.06984
 Alpha virt. eigenvalues --    0.09290   0.09846   0.10532   0.10751   0.11561
 Alpha virt. eigenvalues --    0.12194   0.13845   0.16416   0.17913   0.18463
 Alpha virt. eigenvalues --    0.19303   0.21767   0.22791   0.23175   0.25354
 Alpha virt. eigenvalues --    0.26119   0.27423   0.28151   0.30355   0.32647
 Alpha virt. eigenvalues --    0.33667   0.36522   0.37837   0.38528   0.40666
 Alpha virt. eigenvalues --    0.41635   0.42066   0.42784   0.43614   0.43990
 Alpha virt. eigenvalues --    0.44212   0.44368   0.45171   0.45952   0.46230
 Alpha virt. eigenvalues --    0.47263   0.47551   0.48405   0.49028   0.49623
 Alpha virt. eigenvalues --    0.50359   0.52581   0.55771   0.58596   0.61385
 Alpha virt. eigenvalues --    0.62302   0.65636   0.66421   0.69435   0.71195
 Alpha virt. eigenvalues --    0.72269   0.75524   0.76314   0.77382   0.78162
 Alpha virt. eigenvalues --    0.79268   0.81071   0.82871   0.83574   0.86100
 Alpha virt. eigenvalues --    0.88076   0.89511   0.90328   0.91573   0.93823
 Alpha virt. eigenvalues --    0.97928   0.98791   1.00935   1.01176   1.02558
 Alpha virt. eigenvalues --    1.02919   1.05104   1.06476   1.07142   1.08290
 Alpha virt. eigenvalues --    1.09578   1.10505   1.11023   1.12005   1.12729
 Alpha virt. eigenvalues --    1.14363   1.14877   1.17211   1.18989   1.19409
 Alpha virt. eigenvalues --    1.20476   1.22276   1.23560   1.24611   1.25744
 Alpha virt. eigenvalues --    1.27110   1.27866   1.29574   1.31682   1.32429
 Alpha virt. eigenvalues --    1.34938   1.35003   1.36064   1.37782   1.38927
 Alpha virt. eigenvalues --    1.40912   1.41647   1.42211   1.42784   1.45519
 Alpha virt. eigenvalues --    1.47502   1.48810   1.49110   1.54335   1.55546
 Alpha virt. eigenvalues --    1.58266   1.59861   1.62897   1.63449   1.64888
 Alpha virt. eigenvalues --    1.65877   1.69980   1.70951   1.76650   1.77945
 Alpha virt. eigenvalues --    1.81268   1.86667   1.91084   2.02753   2.03509
 Alpha virt. eigenvalues --    2.06987   2.12065   2.14161   2.16094   2.22865
 Alpha virt. eigenvalues --    2.28342   2.30683   2.33363   2.35502   2.35770
 Alpha virt. eigenvalues --    2.40949   2.43029   2.43563   2.45821   2.46144
 Alpha virt. eigenvalues --    2.49418   2.50087   2.51608   2.52256   2.55203
 Alpha virt. eigenvalues --    2.57403   2.57778   2.58917   2.60533   2.61602
 Alpha virt. eigenvalues --    2.63412   2.64142   2.65255   2.66679   2.69404
 Alpha virt. eigenvalues --    2.69783   2.70336   2.73242   2.75747   2.80645
 Alpha virt. eigenvalues --    2.82635   2.83854   2.84305   2.85341   2.86852
 Alpha virt. eigenvalues --    2.90152   2.93065   2.94783   2.95423   2.97102
 Alpha virt. eigenvalues --    2.99615   3.00558   3.01821   3.02558   3.06248
 Alpha virt. eigenvalues --    3.06985   3.07159   3.08198   3.10082   3.10668
 Alpha virt. eigenvalues --    3.11196   3.12343   3.13190   3.13888   3.16138
 Alpha virt. eigenvalues --    3.16612   3.17711   3.19197   3.19924   3.22625
 Alpha virt. eigenvalues --    3.23609   3.24154   3.26191   3.28582   3.30742
 Alpha virt. eigenvalues --    3.32426   3.33326   3.35202   3.36920   3.38365
 Alpha virt. eigenvalues --    3.40959   3.42249   3.44478   3.45862   3.47091
 Alpha virt. eigenvalues --    3.50396   3.52901   3.53595   3.54373   3.55917
 Alpha virt. eigenvalues --    3.57000   3.59088   3.61138   3.62423   3.64457
 Alpha virt. eigenvalues --    3.66274   3.67602   3.67659   3.68843   3.70192
 Alpha virt. eigenvalues --    3.71094   3.71344   3.72922   3.75192   3.77707
 Alpha virt. eigenvalues --    3.79346   3.80848   3.82854   3.84532   3.85718
 Alpha virt. eigenvalues --    3.87025   3.88279   3.89397   3.91100   3.93532
 Alpha virt. eigenvalues --    3.96378   3.96786   3.98622   3.99528   4.00394
 Alpha virt. eigenvalues --    4.01681   4.02864   4.03436   4.04444   4.07416
 Alpha virt. eigenvalues --    4.08108   4.09504   4.11196   4.11463   4.13904
 Alpha virt. eigenvalues --    4.14914   4.15725   4.16820   4.19405   4.20082
 Alpha virt. eigenvalues --    4.21251   4.23936   4.25031   4.25708   4.28271
 Alpha virt. eigenvalues --    4.29015   4.30560   4.32823   4.33496   4.36579
 Alpha virt. eigenvalues --    4.38047   4.39269   4.41050   4.44814   4.48059
 Alpha virt. eigenvalues --    4.50220   4.52833   4.56560   4.58784   4.60492
 Alpha virt. eigenvalues --    4.63684   4.66449   4.66999   4.69191   4.72123
 Alpha virt. eigenvalues --    4.74130   4.74300   4.75510   4.77838   4.80075
 Alpha virt. eigenvalues --    4.80838   4.83059   4.83642   4.87211   4.89718
 Alpha virt. eigenvalues --    4.92005   4.95424   4.96084   4.97177   4.99133
 Alpha virt. eigenvalues --    5.00348   5.00464   5.01642   5.02978   5.07644
 Alpha virt. eigenvalues --    5.09165   5.09766   5.14597   5.17379   5.20883
 Alpha virt. eigenvalues --    5.22975   5.24293   5.28285   5.31857   5.33026
 Alpha virt. eigenvalues --    5.36764   5.37418   5.40858   5.43432   5.44579
 Alpha virt. eigenvalues --    5.47515   5.48223   5.49053   5.50128   5.52957
 Alpha virt. eigenvalues --    5.55893   5.60190   5.61680   5.65137   5.70096
 Alpha virt. eigenvalues --    5.73464   5.74439   5.77493   5.84501   5.93560
 Alpha virt. eigenvalues --    5.96554   5.98507   5.99761   6.05223   6.07447
 Alpha virt. eigenvalues --    6.09471   6.16716   6.32081   6.43353   6.46403
 Alpha virt. eigenvalues --    6.53598   6.74468   6.84040   6.86485   6.95517
 Alpha virt. eigenvalues --    7.03686   7.30760   7.32249   7.46542   9.79086
 Alpha virt. eigenvalues --   10.73712  11.20253  12.07051  12.23869  12.75212
 Alpha virt. eigenvalues --   12.93297  13.05581
  Beta  occ. eigenvalues --  -19.20750 -19.17609 -10.23750 -10.18749 -10.18711
  Beta  occ. eigenvalues --  -10.18532 -10.18448 -10.18066  -1.13956  -0.86844
  Beta  occ. eigenvalues --   -0.82944  -0.75835  -0.74241  -0.63618  -0.60682
  Beta  occ. eigenvalues --   -0.57699  -0.52473  -0.47993  -0.47382  -0.46295
  Beta  occ. eigenvalues --   -0.43563  -0.42721  -0.41323  -0.38671  -0.37391
  Beta  occ. eigenvalues --   -0.36380  -0.35481  -0.34258  -0.32118  -0.31722
  Beta  occ. eigenvalues --   -0.24442
  Beta virt. eigenvalues --   -0.12965   0.02813   0.03884   0.05152   0.06137
  Beta virt. eigenvalues --    0.07100   0.09432   0.09962   0.10550   0.10863
  Beta virt. eigenvalues --    0.11727   0.12278   0.14069   0.16953   0.18121
  Beta virt. eigenvalues --    0.18923   0.19678   0.21903   0.22889   0.23541
  Beta virt. eigenvalues --    0.25456   0.26275   0.27652   0.28259   0.30533
  Beta virt. eigenvalues --    0.32805   0.33923   0.36837   0.37961   0.38668
  Beta virt. eigenvalues --    0.41043   0.41759   0.42250   0.42887   0.43809
  Beta virt. eigenvalues --    0.44267   0.44343   0.44531   0.45297   0.46184
  Beta virt. eigenvalues --    0.46551   0.47408   0.47684   0.48644   0.49204
  Beta virt. eigenvalues --    0.49872   0.50422   0.52854   0.56079   0.58926
  Beta virt. eigenvalues --    0.62188   0.62405   0.65811   0.67214   0.69803
  Beta virt. eigenvalues --    0.71600   0.72474   0.75750   0.76562   0.77743
  Beta virt. eigenvalues --    0.78397   0.79510   0.81471   0.83016   0.83799
  Beta virt. eigenvalues --    0.86242   0.88263   0.89609   0.90868   0.91733
  Beta virt. eigenvalues --    0.93976   0.98055   0.98965   1.01075   1.01297
  Beta virt. eigenvalues --    1.02688   1.03107   1.05304   1.06567   1.07270
  Beta virt. eigenvalues --    1.08367   1.09708   1.10625   1.11292   1.12087
  Beta virt. eigenvalues --    1.12852   1.14598   1.15043   1.17354   1.19288
  Beta virt. eigenvalues --    1.19527   1.20647   1.22445   1.23743   1.24902
  Beta virt. eigenvalues --    1.25838   1.27252   1.28140   1.29787   1.31830
  Beta virt. eigenvalues --    1.32571   1.35211   1.35458   1.36315   1.38110
  Beta virt. eigenvalues --    1.39226   1.41193   1.41878   1.42479   1.43204
  Beta virt. eigenvalues --    1.45942   1.47703   1.49032   1.49322   1.54467
  Beta virt. eigenvalues --    1.55718   1.58530   1.60145   1.63246   1.63738
  Beta virt. eigenvalues --    1.65255   1.66148   1.70622   1.71606   1.77271
  Beta virt. eigenvalues --    1.78264   1.81527   1.87234   1.91579   2.03573
  Beta virt. eigenvalues --    2.04164   2.08242   2.12856   2.15651   2.17390
  Beta virt. eigenvalues --    2.23147   2.28689   2.30983   2.33696   2.35842
  Beta virt. eigenvalues --    2.35992   2.41253   2.43458   2.43797   2.46003
  Beta virt. eigenvalues --    2.46350   2.49654   2.50319   2.51796   2.52511
  Beta virt. eigenvalues --    2.55353   2.57520   2.57899   2.59077   2.60670
  Beta virt. eigenvalues --    2.61752   2.63589   2.64509   2.65402   2.66963
  Beta virt. eigenvalues --    2.69685   2.69961   2.70611   2.73494   2.76115
  Beta virt. eigenvalues --    2.81035   2.82862   2.84090   2.84496   2.85685
  Beta virt. eigenvalues --    2.87042   2.90445   2.93159   2.94981   2.95668
  Beta virt. eigenvalues --    2.97487   2.99854   3.00719   3.01993   3.02826
  Beta virt. eigenvalues --    3.06486   3.07222   3.07551   3.08372   3.10183
  Beta virt. eigenvalues --    3.10869   3.11534   3.12447   3.13361   3.14085
  Beta virt. eigenvalues --    3.16311   3.16859   3.17810   3.19374   3.20153
  Beta virt. eigenvalues --    3.22738   3.23742   3.24232   3.26598   3.29125
  Beta virt. eigenvalues --    3.31042   3.32578   3.33455   3.35328   3.37454
  Beta virt. eigenvalues --    3.38803   3.41156   3.42445   3.44997   3.46284
  Beta virt. eigenvalues --    3.47359   3.50731   3.53225   3.53974   3.54798
  Beta virt. eigenvalues --    3.56133   3.57242   3.59545   3.61415   3.62731
  Beta virt. eigenvalues --    3.64674   3.66528   3.67723   3.67829   3.69001
  Beta virt. eigenvalues --    3.70626   3.71277   3.71709   3.73124   3.75480
  Beta virt. eigenvalues --    3.77899   3.79462   3.81260   3.83116   3.84926
  Beta virt. eigenvalues --    3.85939   3.87137   3.88377   3.89598   3.91315
  Beta virt. eigenvalues --    3.93877   3.96531   3.96955   3.98846   3.99769
  Beta virt. eigenvalues --    4.00487   4.01870   4.02954   4.03641   4.04543
  Beta virt. eigenvalues --    4.07699   4.08287   4.09667   4.11332   4.11642
  Beta virt. eigenvalues --    4.14183   4.15067   4.15947   4.17068   4.19655
  Beta virt. eigenvalues --    4.20144   4.21288   4.24107   4.25330   4.25953
  Beta virt. eigenvalues --    4.28474   4.29163   4.30672   4.32996   4.33653
  Beta virt. eigenvalues --    4.36705   4.38415   4.39477   4.41415   4.44949
  Beta virt. eigenvalues --    4.48203   4.50570   4.53263   4.56796   4.58952
  Beta virt. eigenvalues --    4.60715   4.63903   4.66728   4.67203   4.69484
  Beta virt. eigenvalues --    4.72481   4.74365   4.74741   4.75940   4.78561
  Beta virt. eigenvalues --    4.80610   4.81291   4.83232   4.84140   4.87558
  Beta virt. eigenvalues --    4.90185   4.92186   4.95580   4.96292   4.97592
  Beta virt. eigenvalues --    4.99611   5.00604   5.00736   5.01847   5.03297
  Beta virt. eigenvalues --    5.08040   5.09472   5.10320   5.14831   5.17914
  Beta virt. eigenvalues --    5.21245   5.23594   5.24967   5.28819   5.32137
  Beta virt. eigenvalues --    5.33715   5.37193   5.37667   5.41060   5.43594
  Beta virt. eigenvalues --    5.44853   5.47614   5.48641   5.49375   5.50245
  Beta virt. eigenvalues --    5.53220   5.56156   5.60789   5.63112   5.66915
  Beta virt. eigenvalues --    5.70205   5.73641   5.75766   5.78200   5.85234
  Beta virt. eigenvalues --    5.94463   5.96716   5.99095   6.01070   6.05555
  Beta virt. eigenvalues --    6.07625   6.10797   6.17613   6.35605   6.45556
  Beta virt. eigenvalues --    6.48769   6.57813   6.75861   6.85451   6.87902
  Beta virt. eigenvalues --    6.98833   7.05687   7.31850   7.33405   7.48256
  Beta virt. eigenvalues --    9.81257  10.74477  11.20629  12.07313  12.23923
  Beta virt. eigenvalues --   12.75269  12.93415  13.05626
          Condensed to atoms (all electrons):
               1          2          3          4          5          6
     1  C    5.239740   0.297155  -0.037308  -0.006638  -0.047060   0.303927
     2  C    0.297155   4.818135   0.343027  -0.052141  -0.002227  -0.031573
     3  C   -0.037308   0.343027   4.917938   0.319191  -0.032170  -0.008088
     4  C   -0.006638  -0.052141   0.319191   4.933906   0.325332  -0.034078
     5  C   -0.047060  -0.002227  -0.032170   0.325332   4.934397   0.324261
     6  C    0.303927  -0.031573  -0.008088  -0.034078   0.324261   4.922407
     7  H   -0.030910   0.006007  -0.000959   0.007445  -0.034017   0.409538
     8  H   -0.037185  -0.005934   0.000166  -0.003089  -0.037232   0.405877
     9  H   -0.000853  -0.001986  -0.001718  -0.038006   0.406143  -0.038765
    10  H    0.007239  -0.000125   0.006345  -0.033278   0.406469  -0.031128
    11  H   -0.000137   0.006155  -0.032003   0.409244  -0.031540   0.006359
    12  H   -0.001736  -0.002446  -0.037103   0.405908  -0.037360  -0.002032
    13  H   -0.009768  -0.034952   0.395463  -0.026887  -0.004108   0.001156
    14  H    0.009213  -0.032511   0.411106  -0.031208   0.005940  -0.001029
    15  H   -0.062636   0.388453  -0.036006   0.006477  -0.004989   0.003711
    16  O   -0.053049   0.293530  -0.022669   0.001243  -0.000093   0.005616
    17  O   -0.099936  -0.068323   0.006254  -0.000578  -0.000192  -0.000875
    18  H    0.353644  -0.030550   0.002771   0.001073   0.003091  -0.017454
    19  H    0.372559  -0.036152  -0.002440   0.000069  -0.007314  -0.031780
               7          8          9         10         11         12
     1  C   -0.030910  -0.037185  -0.000853   0.007239  -0.000137  -0.001736
     2  C    0.006007  -0.005934  -0.001986  -0.000125   0.006155  -0.002446
     3  C   -0.000959   0.000166  -0.001718   0.006345  -0.032003  -0.037103
     4  C    0.007445  -0.003089  -0.038006  -0.033278   0.409244   0.405908
     5  C   -0.034017  -0.037232   0.406143   0.406469  -0.031540  -0.037360
     6  C    0.409538   0.405877  -0.038765  -0.031128   0.006359  -0.002032
     7  H    0.593694  -0.034652  -0.006319  -0.003345  -0.000416  -0.000215
     8  H   -0.034652   0.607593   0.007866  -0.005390  -0.000126   0.003469
     9  H   -0.006319   0.007866   0.612875  -0.034218  -0.006674   0.008209
    10  H   -0.003345  -0.005390  -0.034218   0.598475  -0.003624  -0.006315
    11  H   -0.000416  -0.000126  -0.006674  -0.003624   0.596534  -0.035468
    12  H   -0.000215   0.003469   0.008209  -0.006315  -0.035468   0.613192
    13  H   -0.000111   0.000278   0.003190  -0.000059  -0.005975   0.007388
    14  H    0.000111  -0.000066  -0.000110  -0.000363  -0.003705  -0.006113
    15  H   -0.000261   0.005474   0.000178   0.000035   0.000050   0.003545
    16  O   -0.000328   0.000157   0.000007   0.000019  -0.000151   0.000088
    17  O   -0.000149   0.000800   0.000004   0.000012   0.000014  -0.000046
    18  H   -0.000630  -0.003090  -0.000112  -0.000129   0.000032  -0.000077
    19  H   -0.006485   0.007701   0.003768   0.000055  -0.000014   0.000249
              13         14         15         16         17         18
     1  C   -0.009768   0.009213  -0.062636  -0.053049  -0.099936   0.353644
     2  C   -0.034952  -0.032511   0.388453   0.293530  -0.068323  -0.030550
     3  C    0.395463   0.411106  -0.036006  -0.022669   0.006254   0.002771
     4  C   -0.026887  -0.031208   0.006477   0.001243  -0.000578   0.001073
     5  C   -0.004108   0.005940  -0.004989  -0.000093  -0.000192   0.003091
     6  C    0.001156  -0.001029   0.003711   0.005616  -0.000875  -0.017454
     7  H   -0.000111   0.000111  -0.000261  -0.000328  -0.000149  -0.000630
     8  H    0.000278  -0.000066   0.005474   0.000157   0.000800  -0.003090
     9  H    0.003190  -0.000110   0.000178   0.000007   0.000004  -0.000112
    10  H   -0.000059  -0.000363   0.000035   0.000019   0.000012  -0.000129
    11  H   -0.005975  -0.003705   0.000050  -0.000151   0.000014   0.000032
    12  H    0.007388  -0.006113   0.003545   0.000088  -0.000046  -0.000077
    13  H    0.599408  -0.033957   0.009735   0.004904  -0.000133  -0.000297
    14  H   -0.033957   0.585440  -0.007004  -0.000232  -0.000133  -0.000359
    15  H    0.009735  -0.007004   0.645312  -0.047501   0.020892  -0.008714
    16  O    0.004904  -0.000232  -0.047501   7.858793   0.114691  -0.043959
    17  O   -0.000133  -0.000133   0.020892   0.114691   8.094715   0.118780
    18  H   -0.000297  -0.000359  -0.008714  -0.043959   0.118780   0.481916
    19  H    0.006544  -0.000278   0.010702   0.011294   0.002665  -0.021442
              19
     1  C    0.372559
     2  C   -0.036152
     3  C   -0.002440
     4  C    0.000069
     5  C   -0.007314
     6  C   -0.031780
     7  H   -0.006485
     8  H    0.007701
     9  H    0.003768
    10  H    0.000055
    11  H   -0.000014
    12  H    0.000249
    13  H    0.006544
    14  H   -0.000278
    15  H    0.010702
    16  O    0.011294
    17  O    0.002665
    18  H   -0.021442
    19  H    0.595536
          Atomic-Atomic Spin Densities.
               1          2          3          4          5          6
     1  C    0.361649   0.009515  -0.011895  -0.002232  -0.015219  -0.002923
     2  C    0.009515  -0.032265   0.008747   0.001292  -0.000347   0.001840
     3  C   -0.011895   0.008747   0.006826   0.000905   0.001897   0.000501
     4  C   -0.002232   0.001292   0.000905  -0.001747   0.000737   0.001760
     5  C   -0.015219  -0.000347   0.001897   0.000737   0.045230   0.004203
     6  C   -0.002923   0.001840   0.000501   0.001760   0.004203  -0.023477
     7  H   -0.003498  -0.000262  -0.000132  -0.000110  -0.005084   0.003889
     8  H   -0.001354   0.000351  -0.000383   0.000007  -0.003287   0.002159
     9  H    0.001132  -0.000033  -0.000082  -0.000175  -0.001327   0.000402
    10  H    0.001384   0.000042  -0.000162  -0.000013  -0.003914  -0.000259
    11  H   -0.000428  -0.000107   0.000299   0.001137   0.000099  -0.000080
    12  H    0.000542  -0.000022  -0.000304  -0.000132  -0.000390  -0.000109
    13  H   -0.001641   0.000719   0.001505   0.000323   0.000415  -0.000114
    14  H    0.002843   0.000155  -0.005258  -0.001090  -0.000333   0.000046
    15  H   -0.000582   0.003312   0.003102  -0.000188   0.001421   0.000160
    16  O    0.000481   0.003294  -0.000757   0.000088   0.000275  -0.000580
    17  O   -0.038392  -0.003721  -0.000968  -0.000005  -0.000335   0.000368
    18  H    0.021187   0.015074   0.000464   0.000061   0.000337  -0.001991
    19  H    0.011120  -0.003707  -0.000040  -0.000216  -0.000690   0.000749
               7          8          9         10         11         12
     1  C   -0.003498  -0.001354   0.001132   0.001384  -0.000428   0.000542
     2  C   -0.000262   0.000351  -0.000033   0.000042  -0.000107  -0.000022
     3  C   -0.000132  -0.000383  -0.000082  -0.000162   0.000299  -0.000304
     4  C   -0.000110   0.000007  -0.000175  -0.000013   0.001137  -0.000132
     5  C   -0.005084  -0.003287  -0.001327  -0.003914   0.000099  -0.000390
     6  C    0.003889   0.002159   0.000402  -0.000259  -0.000080  -0.000109
     7  H    0.006767   0.001266   0.000228   0.000852  -0.000015   0.000026
     8  H    0.001266   0.004282   0.000086   0.000591  -0.000034   0.000094
     9  H    0.000228   0.000086  -0.001070   0.000779  -0.000093   0.000025
    10  H    0.000852   0.000591   0.000779   0.005602  -0.000362   0.000240
    11  H   -0.000015  -0.000034  -0.000093  -0.000362  -0.000296  -0.000113
    12  H    0.000026   0.000094   0.000025   0.000240  -0.000113   0.000414
    13  H   -0.000021  -0.000042  -0.000117  -0.000064   0.000079  -0.000060
    14  H    0.000020   0.000068   0.000075   0.000098  -0.000444   0.000359
    15  H   -0.000157  -0.000994  -0.000066  -0.000133   0.000044  -0.000218
    16  O   -0.000046  -0.000051  -0.000030  -0.000008   0.000002   0.000003
    17  O    0.000278   0.000169   0.000019   0.000008  -0.000003   0.000006
    18  H   -0.000434  -0.000078  -0.000012  -0.000027   0.000004  -0.000012
    19  H    0.000730  -0.000078   0.000050   0.000081  -0.000031   0.000010
              13         14         15         16         17         18
     1  C   -0.001641   0.002843  -0.000582   0.000481  -0.038392   0.021187
     2  C    0.000719   0.000155   0.003312   0.003294  -0.003721   0.015074
     3  C    0.001505  -0.005258   0.003102  -0.000757  -0.000968   0.000464
     4  C    0.000323  -0.001090  -0.000188   0.000088  -0.000005   0.000061
     5  C    0.000415  -0.000333   0.001421   0.000275  -0.000335   0.000337
     6  C   -0.000114   0.000046   0.000160  -0.000580   0.000368  -0.001991
     7  H   -0.000021   0.000020  -0.000157  -0.000046   0.000278  -0.000434
     8  H   -0.000042   0.000068  -0.000994  -0.000051   0.000169  -0.000078
     9  H   -0.000117   0.000075  -0.000066  -0.000030   0.000019  -0.000012
    10  H   -0.000064   0.000098  -0.000133  -0.000008   0.000008  -0.000027
    11  H    0.000079  -0.000444   0.000044   0.000002  -0.000003   0.000004
    12  H   -0.000060   0.000359  -0.000218   0.000003   0.000006  -0.000012
    13  H   -0.000816  -0.000858  -0.000072  -0.000111  -0.000164   0.000233
    14  H   -0.000858   0.010978  -0.001623   0.001214   0.000058  -0.000061
    15  H   -0.000072  -0.001623  -0.001281  -0.002415  -0.002704   0.004162
    16  O   -0.000111   0.001214  -0.002415   0.207199  -0.068666   0.006850
    17  O   -0.000164   0.000058  -0.002704  -0.068666   0.665025  -0.027893
    18  H    0.000233  -0.000061   0.004162   0.006850  -0.027893  -0.053679
    19  H   -0.000654   0.000129  -0.000998  -0.002889   0.002067   0.003519
              19
     1  C    0.011120
     2  C   -0.003707
     3  C   -0.000040
     4  C   -0.000216
     5  C   -0.000690
     6  C    0.000749
     7  H    0.000730
     8  H   -0.000078
     9  H    0.000050
    10  H    0.000081
    11  H   -0.000031
    12  H    0.000010
    13  H   -0.000654
    14  H    0.000129
    15  H   -0.000998
    16  O   -0.002889
    17  O    0.002067
    18  H    0.003519
    19  H   -0.013623
 Mulliken charges and spin densities:
               1          2
     1  C   -0.196261   0.331691
     2  C    0.146458   0.003878
     3  C   -0.191797   0.004264
     4  C   -0.183987   0.000402
     5  C   -0.167332   0.023689
     6  C   -0.186050  -0.013454
     7  H    0.102000   0.004296
     8  H    0.087381   0.002772
     9  H    0.086522  -0.000209
    10  H    0.099326   0.004735
    11  H    0.101445  -0.000340
    12  H    0.086862   0.000360
    13  H    0.088180  -0.001461
    14  H    0.105259   0.006377
    15  H    0.072547   0.000770
    16  O   -0.122359   0.143853
    17  O   -0.188463   0.525146
    18  H    0.165505  -0.032296
    19  H    0.094763  -0.004472
 Sum of Mulliken charges =  -0.00000   1.00000
 Mulliken charges and spin densities with hydrogens summed into heavy atoms:
               1          2
     1  C    0.064007   0.294923
     2  C    0.219005   0.004648
     3  C    0.001642   0.009179
     4  C    0.004320   0.000421
     5  C    0.018516   0.028216
     6  C    0.003331  -0.006386
    16  O   -0.122359   0.143853
    17  O   -0.188463   0.525146
 APT charges:
               1
     1  C   -0.465226
     2  C   -0.226990
     3  C   -0.731665
     4  C   -0.831490
     5  C   -0.856313
     6  C   -0.772916
     7  H    0.479417
     8  H    0.303610
     9  H    0.325500
    10  H    0.537827
    11  H    0.523608
    12  H    0.317841
    13  H    0.291715
    14  H    0.443298
    15  H    0.260517
    16  O    0.036645
    17  O   -0.154497
    18  H    0.228602
    19  H    0.290517
 Sum of APT charges =  -0.00000
 APT charges with hydrogens summed into heavy atoms:
               1
     1  C    0.053893
     2  C    0.033527
     3  C    0.003347
     4  C    0.009959
     5  C    0.007014
     6  C    0.010111
    16  O    0.036645
    17  O   -0.154497
 Electronic spatial extent (au):  <R**2>=           1011.9166
 Charge=             -0.0000 electrons
 Dipole moment (field-independent basis, Debye):
    X=             -3.3832    Y=             -0.0938    Z=             -0.2179  Tot=              3.3915
 Quadrupole moment (field-independent basis, Debye-Ang):
   XX=            -57.2767   YY=            -48.7283   ZZ=            -48.8885
   XY=              0.1950   XZ=             -0.4723   YZ=              0.5812
 Traceless Quadrupole moment (field-independent basis, Debye-Ang):
   XX=             -5.6456   YY=              2.9029   ZZ=              2.7427
   XY=              0.1950   XZ=             -0.4723   YZ=              0.5812
 Octapole moment (field-independent basis, Debye-Ang**2):
  XXX=             -7.0429  YYY=             -1.8355  ZZZ=              0.0954  XYY=              3.7434
  XXY=             -0.5532  XXZ=             -1.0395  XZZ=              4.8258  YZZ=             -0.4665
  YYZ=              0.0346  XYZ=              1.1642
 Hexadecapole moment (field-independent basis, Debye-Ang**3):
 XXXX=           -860.1291 YYYY=           -382.3513 ZZZZ=           -109.6103 XXXY=             -3.3323
 XXXZ=             -1.4639 YYYX=              0.7773 YYYZ=              1.9075 ZZZX=             -0.5797
 ZZZY=             -0.6617 XXYY=           -199.6453 XXZZ=           -155.3368 YYZZ=            -83.7340
 XXYZ=             -0.7191 YYXZ=             -2.3743 ZZXY=             -0.5184
 N-N= 4.046513233812D+02 E-N=-1.708795654032D+03  KE= 3.831958184651D+02
  Exact polarizability:   0.000   0.000   0.000   0.000   0.000   0.000
 Approx polarizability: 143.943  -5.327 118.871  -4.386  -0.552 102.959
                          Isotropic Fermi Contact Couplings
        Atom                 a.u.       MegaHertz       Gauss      10(-4) cm-1
     1  C(13)              0.03966      44.58431      15.90879      14.87173
     2  C(13)             -0.01302     -14.63561      -5.22235      -4.88192
     3  C(13)              0.00220       2.46858       0.88085       0.82343
     4  C(13)              0.00022       0.24948       0.08902       0.08322
     5  C(13)              0.02045      22.99247       8.20429       7.66946
     6  C(13)             -0.00930     -10.45809      -3.73171      -3.48844
     7  H(1)               0.00272      12.16749       4.34166       4.05864
     8  H(1)               0.00180       8.05882       2.87559       2.68813
     9  H(1)              -0.00040      -1.81011      -0.64589      -0.60379
    10  H(1)               0.00146       6.50497       2.32113       2.16982
    11  H(1)               0.00026       1.14768       0.40952       0.38283
    12  H(1)               0.00012       0.52474       0.18724       0.17503
    13  H(1)              -0.00016      -0.70125      -0.25022      -0.23391
    14  H(1)               0.00199       8.89564       3.17419       2.96727
    15  H(1)              -0.00007      -0.32551      -0.11615      -0.10858
    16  O(17)              0.04330     -26.24767      -9.36582      -8.75528
    17  O(17)              0.03283     -19.90327      -7.10198      -6.63902
    18  H(1)              -0.01559     -69.69436     -24.86868     -23.24754
    19  H(1)              -0.00102      -4.55303      -1.62464      -1.51873
 --------------------------------------------------------
       Center         ----  Spin Dipole Couplings  ----
                      3XX-RR        3YY-RR        3ZZ-RR
 --------------------------------------------------------
     1   Atom        0.097164      0.091550     -0.188713
     2   Atom        0.007811      0.021467     -0.029279
     3   Atom        0.003470      0.006485     -0.009955
     4   Atom        0.002587      0.000160     -0.002748
     5   Atom        0.022628     -0.001102     -0.021526
     6   Atom        0.014801     -0.003269     -0.011533
     7   Atom        0.003405      0.001079     -0.004483
     8   Atom        0.002356     -0.003600      0.001244
     9   Atom        0.003495     -0.004201      0.000706
    10   Atom        0.004497     -0.001831     -0.002665
    11   Atom        0.001855      0.000076     -0.001931
    12   Atom        0.001579     -0.000611     -0.000967
    13   Atom        0.000184      0.001946     -0.002130
    14   Atom        0.000298      0.002706     -0.003003
    15   Atom        0.001090     -0.003930      0.002840
    16   Atom       -0.290362     -0.104482      0.394844
    17   Atom        0.096176     -0.033302     -0.062873
    18   Atom        0.130097     -0.047358     -0.082740
    19   Atom       -0.010063     -0.017948      0.028011
 --------------------------------------------------------
                        XY            XZ            YZ
 --------------------------------------------------------
     1   Atom        0.311295     -0.114342     -0.113228
     2   Atom       -0.023640      0.000485     -0.001259
     3   Atom        0.012240     -0.001263     -0.001807
     4   Atom        0.002783      0.001795     -0.000179
     5   Atom        0.029153     -0.007215     -0.005043
     6   Atom        0.005779     -0.000718     -0.003229
     7   Atom       -0.006707     -0.000740      0.000397
     8   Atom       -0.002848      0.006158     -0.002427
     9   Atom        0.001131     -0.003790     -0.001172
    10   Atom       -0.000923      0.001818     -0.001146
    11   Atom        0.001917      0.000024      0.000111
    12   Atom        0.001658      0.001859      0.001574
    13   Atom        0.003750     -0.003080     -0.003321
    14   Atom        0.003002     -0.000112      0.001246
    15   Atom        0.002322      0.006856      0.005930
    16   Atom       -0.202752     -0.277351      0.536141
    17   Atom       -1.253770     -1.250296      1.181963
    18   Atom       -0.064398     -0.029593      0.003187
    19   Atom        0.008060     -0.000832      0.002628
 --------------------------------------------------------


 ---------------------------------------------------------------------------------
              Anisotropic Spin Dipole Couplings in Principal Axis System
 ---------------------------------------------------------------------------------

       Atom             a.u.   MegaHertz   Gauss  10(-4) cm-1        Axes

              Baa    -0.2295   -30.794   -10.988   -10.272  0.1778  0.1695  0.9694
     1 C(13)  Bbb    -0.2170   -29.113   -10.388    -9.711 -0.7030  0.7111  0.0047
              Bcc     0.4464    59.907    21.376    19.983  0.6885  0.6823 -0.2456
 
              Baa    -0.0293    -3.933    -1.403    -1.312  0.0039  0.0266  0.9996
     2 C(13)  Bbb    -0.0100    -1.337    -0.477    -0.446  0.7994  0.6005 -0.0191
              Bcc     0.0393     5.270     1.880     1.758 -0.6008  0.7992 -0.0189
 
              Baa    -0.0102    -1.362    -0.486    -0.454 -0.0143  0.1184  0.9929
     3 C(13)  Bbb    -0.0073    -0.984    -0.351    -0.328  0.7513 -0.6539  0.0888
              Bcc     0.0175     2.346     0.837     0.783  0.6598  0.7472 -0.0796
 
              Baa    -0.0036    -0.489    -0.174    -0.163 -0.3943  0.3291  0.8580
     4 C(13)  Bbb    -0.0010    -0.140    -0.050    -0.047 -0.3740  0.7954 -0.4769
              Bcc     0.0047     0.628     0.224     0.210  0.8394  0.5090  0.1905
 
              Baa    -0.0227    -3.050    -1.088    -1.017  0.0681  0.1385  0.9880
     5 C(13)  Bbb    -0.0207    -2.778    -0.991    -0.927 -0.5653  0.8213 -0.0762
              Bcc     0.0434     5.828     2.080     1.944  0.8221  0.5534 -0.1343
 
              Baa    -0.0127    -1.705    -0.608    -0.569 -0.0492  0.3502  0.9354
     6 C(13)  Bbb    -0.0039    -0.521    -0.186    -0.174 -0.2892  0.8914 -0.3490
              Bcc     0.0166     2.225     0.794     0.742  0.9560  0.2876 -0.0574
 
              Baa    -0.0047    -2.520    -0.899    -0.840  0.5068  0.5400  0.6720
     7 H(1)   Bbb    -0.0044    -2.335    -0.833    -0.779 -0.3989 -0.5441  0.7381
              Bcc     0.0091     4.854     1.732     1.619  0.7642 -0.6421 -0.0604
 
              Baa    -0.0047    -2.532    -0.903    -0.844  0.4162  0.9073 -0.0603
     8 H(1)   Bbb    -0.0043    -2.316    -0.826    -0.773 -0.5681  0.3113  0.7618
              Bcc     0.0091     4.848     1.730     1.617  0.7099 -0.2828  0.6450
 
              Baa    -0.0045    -2.390    -0.853    -0.797 -0.0519  0.9816  0.1839
     9 H(1)   Bbb    -0.0019    -1.014    -0.362    -0.338  0.5873 -0.1189  0.8006
              Bcc     0.0064     3.404     1.215     1.136  0.8077  0.1495 -0.5703
 
              Baa    -0.0036    -1.922    -0.686    -0.641 -0.1382  0.4863  0.8628
    10 H(1)   Bbb    -0.0015    -0.814    -0.291    -0.272  0.2645  0.8576 -0.4411
              Bcc     0.0051     2.737     0.977     0.913  0.9544 -0.1672  0.2472
 
              Baa    -0.0019    -1.036    -0.370    -0.345  0.0413 -0.0942  0.9947
    11 H(1)   Bbb    -0.0011    -0.608    -0.217    -0.203 -0.5369  0.8375  0.1016
              Bcc     0.0031     1.644     0.586     0.548  0.8426  0.5383  0.0160
 
              Baa    -0.0024    -1.287    -0.459    -0.429 -0.1335 -0.5798  0.8037
    12 H(1)   Bbb    -0.0013    -0.687    -0.245    -0.229 -0.6352  0.6726  0.3797
              Bcc     0.0037     1.974     0.704     0.659  0.7607  0.4598  0.4581
 
              Baa    -0.0044    -2.346    -0.837    -0.782  0.4173  0.2156  0.8829
    13 H(1)   Bbb    -0.0027    -1.455    -0.519    -0.485  0.7077 -0.6865 -0.1669
              Bcc     0.0071     3.801     1.356     1.268  0.5701  0.6945 -0.4390
 
              Baa    -0.0035    -1.855    -0.662    -0.619  0.2802 -0.3186  0.9055
    14 H(1)   Bbb    -0.0014    -0.737    -0.263    -0.246  0.7912 -0.4575 -0.4058
              Bcc     0.0049     2.592     0.925     0.864  0.5436  0.8302  0.1239
 
              Baa    -0.0078    -4.142    -1.478    -1.382  0.2604  0.7612 -0.5940
    15 H(1)   Bbb    -0.0035    -1.875    -0.669    -0.625  0.7755 -0.5313 -0.3409
              Bcc     0.0113     6.017     2.147     2.007  0.5751  0.3719  0.7287
 
              Baa    -0.4537    32.827    11.713    10.950  0.3198  0.8447 -0.4292
    16 O(17)  Bbb    -0.3869    27.997     9.990     9.339  0.9019 -0.1327  0.4110
              Bcc     0.8406   -60.824   -21.703   -20.289 -0.2902  0.5185  0.8043
 
              Baa    -1.2370    89.507    31.938    29.856  0.5639 -0.1996  0.8014
    17 O(17)  Bbb    -1.2232    88.509    31.582    29.523  0.5681  0.7981 -0.2009
              Bcc     2.4602  -178.016   -63.521   -59.380  0.5995 -0.5685 -0.5634
 
              Baa    -0.0882   -47.039   -16.785   -15.691  0.2000  0.2415  0.9496
    18 H(1)   Bbb    -0.0664   -35.439   -12.645   -11.821  0.2586  0.9218 -0.2889
              Bcc     0.1546    82.478    29.430    27.512  0.9451 -0.3033 -0.1219
 
              Baa    -0.0231   -12.335    -4.401    -4.114 -0.5270  0.8482 -0.0522
    19 H(1)   Bbb    -0.0050    -2.693    -0.961    -0.898  0.8498  0.5267 -0.0205
              Bcc     0.0282    15.027     5.362     5.013 -0.0101  0.0551  0.9984
 

 ---------------------------------------------------------------------------------

 Calling FoFJK, ICntrl=    100147 FMM=F ISym2X=0 I1Cent= 0 IOpClX= 1 NMat=1 NMatS=1 NMatT=0.
 ***** Axes restored to original set *****
 -------------------------------------------------------------------
 Center     Atomic                   Forces (Hartrees/Bohr)
 Number     Number              X              Y              Z
 -------------------------------------------------------------------
      1        6           0.000030084    0.000026435   -0.000008410
      2        6          -0.000028815   -0.000005185    0.000008845
      3        6           0.000016944   -0.000008922   -0.000000422
      4        6          -0.000017396   -0.000009146   -0.000000526
      5        6           0.000006195    0.000010192   -0.000013088
      6        6           0.000004740    0.000003141    0.000004792
      7        1          -0.000002260   -0.000007434   -0.000006042
      8        1           0.000002828    0.000003323    0.000001827
      9        1          -0.000001433   -0.000000999   -0.000003728
     10        1          -0.000000504   -0.000004159   -0.000001281
     11        1           0.000005196    0.000008370    0.000001067
     12        1           0.000003321    0.000003527    0.000002165
     13        1          -0.000002146   -0.000000785    0.000003277
     14        1           0.000000440    0.000001607    0.000003737
     15        1           0.000006967   -0.000006012    0.000004415
     16        8          -0.000032719    0.000106641    0.000026697
     17        8          -0.030583136   -0.020618958    0.005148330
     18        1           0.030586283    0.020497363   -0.005165661
     19        1           0.000005409    0.000001001   -0.000005993
 -------------------------------------------------------------------
 Cartesian Forces:  Max     0.030586283 RMS     0.006970287
 FormGI is forming the generalized inverse of G from B-inverse, IUseBI=4.

 GradGradGradGradGradGradGradGradGradGradGradGradGradGradGradGradGradGrad
 Berny optimization.
 Internal  Forces:  Max     0.082102552 RMS     0.012231018
 Search for a saddle point.
 Step number   1 out of a maximum of  114
 All quantities printed in internal units (Hartrees-Bohrs-Radians)
 Swapping is turned off.
 Second derivative matrix not updated -- analytic derivatives used.
 ITU=  0
     Eigenvalues ---   -0.44724   0.00348   0.00396   0.00494   0.01377
     Eigenvalues ---    0.01693   0.02709   0.02921   0.03724   0.03807
     Eigenvalues ---    0.03841   0.03904   0.03950   0.04569   0.04664
     Eigenvalues ---    0.04960   0.05444   0.05667   0.06111   0.06494
     Eigenvalues ---    0.06769   0.06941   0.07213   0.07468   0.08551
     Eigenvalues ---    0.08977   0.09656   0.10474   0.14671   0.17025
     Eigenvalues ---    0.18471   0.19791   0.22719   0.23029   0.23705
     Eigenvalues ---    0.25341   0.26204   0.28133   0.29034   0.31981
     Eigenvalues ---    0.32291   0.32342   0.32542   0.32676   0.32818
     Eigenvalues ---    0.33242   0.33435   0.33614   0.33832   0.41579
     Eigenvalues ---    0.73452
 Eigenvectors required to have negative eigenvalues:
                          R3        A37       R19       A2        A9
   1                    0.61883  -0.38970   0.35905  -0.18958  -0.17458
                          R7        D6        A11       R1        D29
   1                   -0.16284  -0.16033   0.15136  -0.14733   0.14620
 RFO step:  Lambda0=2.098920686D-02 Lambda=-1.40795604D-02.
 Linear search not attempted -- option 19 set.
 Iteration  1 RMS(Cart)=  0.02032108 RMS(Int)=  0.00185634
 Iteration  2 RMS(Cart)=  0.00183088 RMS(Int)=  0.00029067
 Iteration  3 RMS(Cart)=  0.00000353 RMS(Int)=  0.00029066
 Iteration  4 RMS(Cart)=  0.00000000 RMS(Int)=  0.00029066
 Variable       Old X    -DE/DX   Delta X   Delta X   Delta X     New X
                                 (Linear)    (Quad)   (Total)
    R1        2.88371   0.03503   0.00000   0.00379   0.00403   2.88774
    R2        2.84148   0.00077   0.00000  -0.01730  -0.01715   2.82432
    R3        2.35742  -0.02515   0.00000   0.21861   0.21861   2.57603
    R4        2.06768   0.00001   0.00000  -0.00363  -0.00363   2.06405
    R5        2.85657   0.00362   0.00000   0.01264   0.01272   2.86929
    R6        2.07011   0.00000   0.00000   0.00324   0.00324   2.07334
    R7        2.72647   0.03021   0.00000  -0.05263  -0.05263   2.67385
    R8        2.91937  -0.00071   0.00000  -0.00570  -0.00584   2.91352
    R9        2.06431  -0.00000   0.00000   0.00006   0.00006   2.06437
   R10        2.06281  -0.00000   0.00000  -0.00049  -0.00049   2.06232
   R11        2.90943  -0.00876   0.00000  -0.00295  -0.00319   2.90624
   R12        2.06184  -0.00000   0.00000   0.00015   0.00015   2.06200
   R13        2.06766   0.00000   0.00000  -0.00041  -0.00041   2.06725
   R14        2.93252  -0.00372   0.00000   0.00896   0.00888   2.94140
   R15        2.06682   0.00000   0.00000  -0.00089  -0.00089   2.06593
   R16        2.06329  -0.00000   0.00000  -0.00029  -0.00029   2.06300
   R17        2.06147  -0.00001   0.00000  -0.00057  -0.00057   2.06090
   R18        2.06718   0.00000   0.00000  -0.00128  -0.00128   2.06590
   R19        2.61461  -0.00253   0.00000   0.10234   0.10234   2.71696
    A1        1.94994   0.00069   0.00000   0.02470   0.02434   1.97428
    A2        1.52324   0.01331   0.00000  -0.03673  -0.03669   1.48655
    A3        1.92047   0.00021   0.00000   0.02474   0.02282   1.94329
    A4        2.25933  -0.01275   0.00000   0.01388   0.01413   2.27347
    A5        1.95564  -0.00163   0.00000   0.03068   0.02923   1.98487
    A6        1.80226   0.00383   0.00000  -0.06419  -0.06336   1.73890
    A7        1.95760  -0.01522   0.00000  -0.03055  -0.03038   1.92722
    A8        1.90730   0.00198   0.00000  -0.00175  -0.00230   1.90500
    A9        1.75667   0.04267   0.00000   0.02419   0.02388   1.78054
   A10        1.92702   0.00315   0.00000  -0.00680  -0.00713   1.91989
   A11        2.02361  -0.02732   0.00000  -0.00380  -0.00365   2.01996
   A12        1.88251  -0.00155   0.00000   0.02233   0.02232   1.90482
   A13        1.85889   0.00603   0.00000   0.01585   0.01594   1.87482
   A14        1.91653  -0.00081   0.00000  -0.00238  -0.00254   1.91399
   A15        1.95026  -0.00270   0.00000  -0.01521  -0.01522   1.93504
   A16        1.93042   0.00277   0.00000   0.00063   0.00070   1.93112
   A17        1.92610  -0.00627   0.00000   0.00266   0.00261   1.92871
   A18        1.88224   0.00100   0.00000  -0.00155  -0.00160   1.88064
   A19        1.98374   0.00382   0.00000  -0.00264  -0.00264   1.98110
   A20        1.91093   0.00020   0.00000   0.00216   0.00217   1.91310
   A21        1.89489  -0.00251   0.00000   0.00286   0.00284   1.89774
   A22        1.91180  -0.00220   0.00000  -0.00272  -0.00267   1.90913
   A23        1.90386  -0.00009   0.00000   0.00027   0.00022   1.90408
   A24        1.85406   0.00058   0.00000   0.00031   0.00030   1.85436
   A25        1.97674   0.00371   0.00000  -0.00395  -0.00420   1.97255
   A26        1.90526  -0.00157   0.00000   0.00444   0.00457   1.90983
   A27        1.91062  -0.00067   0.00000   0.00558   0.00555   1.91617
   A28        1.89124  -0.00243   0.00000   0.00131   0.00137   1.89262
   A29        1.91586   0.00019   0.00000  -0.00864  -0.00854   1.90732
   A30        1.86039   0.00057   0.00000   0.00162   0.00156   1.86196
   A31        1.87236  -0.00054   0.00000  -0.01210  -0.01188   1.86048
   A32        1.95707   0.00088   0.00000   0.00723   0.00707   1.96415
   A33        1.93257  -0.00053   0.00000   0.00234   0.00227   1.93484
   A34        1.91590  -0.00511   0.00000   0.00043   0.00039   1.91629
   A35        1.91187   0.00550   0.00000  -0.00386  -0.00394   1.90793
   A36        1.87416  -0.00009   0.00000   0.00577   0.00578   1.87994
   A37        1.77909   0.08210   0.00000  -0.02819  -0.02819   1.75090
    D1       -1.12922   0.00032   0.00000   0.00010  -0.00037  -1.12959
    D2        1.01370  -0.00458   0.00000  -0.03054  -0.03073   0.98297
    D3        2.99207   0.01412   0.00000   0.00497   0.00480   2.99687
    D4        2.85460   0.00779   0.00000  -0.00454  -0.00485   2.84975
    D5       -1.28566   0.00290   0.00000  -0.03518  -0.03521  -1.32088
    D6        0.69271   0.02159   0.00000   0.00033   0.00032   0.69302
    D7        1.05470  -0.00113   0.00000   0.07627   0.07644   1.13114
    D8       -3.08556  -0.00603   0.00000   0.04564   0.04607  -3.03949
    D9       -1.10719   0.01267   0.00000   0.08115   0.08161  -1.02559
   D10        1.00620   0.00402   0.00000   0.01956   0.01987   1.02608
   D11        3.11099  -0.00212   0.00000   0.01650   0.01677   3.12776
   D12       -1.07927  -0.00201   0.00000   0.03028   0.03055  -1.04873
   D13        2.84167   0.01578   0.00000  -0.00088  -0.00074   2.84093
   D14       -1.33673   0.00964   0.00000  -0.00394  -0.00384  -1.34057
   D15        0.75619   0.00975   0.00000   0.00985   0.00993   0.76612
   D16       -1.15808   0.00444   0.00000  -0.05485  -0.05520  -1.21329
   D17        0.94671  -0.00170   0.00000  -0.05791  -0.05830   0.88840
   D18        3.03962  -0.00159   0.00000  -0.04412  -0.04453   2.99509
   D19        1.01942  -0.00328   0.00000  -0.01305  -0.01275   1.00668
   D20       -1.07137  -0.00968   0.00000  -0.02177  -0.02158  -1.09295
   D21        3.12400  -0.00867   0.00000  -0.00850  -0.00836   3.11564
   D22       -1.11231   0.00250   0.00000   0.01530   0.01532  -1.09699
   D23        3.08009  -0.00390   0.00000   0.00658   0.00649   3.08657
   D24        0.99227  -0.00289   0.00000   0.01985   0.01970   1.01197
   D25        3.02376   0.02276   0.00000  -0.00629  -0.00610   3.01766
   D26        0.93297   0.01636   0.00000  -0.01501  -0.01493   0.91804
   D27       -1.15485   0.01737   0.00000  -0.00174  -0.00171  -1.15656
   D28       -0.85247  -0.02492   0.00000  -0.03780  -0.03791  -0.89038
   D29       -2.96819  -0.02135   0.00000  -0.01493  -0.01501  -2.98320
   D30        1.14470  -0.00453   0.00000  -0.02124  -0.02106   1.12365
   D31       -0.92697  -0.00345   0.00000  -0.00900  -0.00890  -0.93587
   D32       -3.07102  -0.00343   0.00000  -0.00523  -0.00520  -3.07622
   D33        1.19505  -0.00284   0.00000  -0.00835  -0.00832   1.18673
   D34        1.15480   0.00070   0.00000  -0.00205  -0.00194   1.15286
   D35       -0.98925   0.00073   0.00000   0.00172   0.00176  -0.98749
   D36       -3.00636   0.00131   0.00000  -0.00139  -0.00136  -3.00772
   D37       -3.04701  -0.00029   0.00000  -0.00188  -0.00181  -3.04882
   D38        1.09213  -0.00027   0.00000   0.00190   0.00189   1.09402
   D39       -0.92498   0.00032   0.00000  -0.00122  -0.00123  -0.92621
   D40        0.92006  -0.00312   0.00000   0.00459   0.00455   0.92461
   D41       -1.18864  -0.00136   0.00000   0.00239   0.00236  -1.18629
   D42        3.06423  -0.00079   0.00000  -0.00522  -0.00531   3.05892
   D43        3.06363  -0.00182   0.00000   0.00350   0.00352   3.06715
   D44        0.95493  -0.00007   0.00000   0.00130   0.00133   0.95625
   D45       -1.07538   0.00051   0.00000  -0.00631  -0.00634  -1.08173
   D46       -1.19697  -0.00240   0.00000   0.00250   0.00252  -1.19444
   D47        2.97751  -0.00065   0.00000   0.00030   0.00033   2.97784
   D48        0.94720  -0.00007   0.00000  -0.00731  -0.00734   0.93986
   D49       -0.91532  -0.00000   0.00000  -0.00391  -0.00405  -0.91938
   D50       -3.04601   0.00229   0.00000  -0.00546  -0.00555  -3.05156
   D51        1.18337   0.00215   0.00000  -0.01044  -0.01046   1.17291
   D52        1.20129  -0.00130   0.00000   0.00008  -0.00003   1.20126
   D53       -0.92939   0.00099   0.00000  -0.00148  -0.00152  -0.93092
   D54       -2.98320   0.00086   0.00000  -0.00645  -0.00643  -2.98964
   D55       -3.05659  -0.00188   0.00000  -0.00195  -0.00203  -3.05863
   D56        1.09591   0.00041   0.00000  -0.00351  -0.00353   1.09238
   D57       -0.95790   0.00028   0.00000  -0.00848  -0.00844  -0.96634
         Item               Value     Threshold  Converged?
 Maximum Force            0.082103     0.000450     NO 
 RMS     Force            0.012231     0.000300     NO 
 Maximum Displacement     0.180406     0.001800     NO 
 RMS     Displacement     0.021765     0.001200     NO 
 Predicted change in Energy= 3.506173D-03
 GradGradGradGradGradGradGradGradGradGradGradGradGradGradGradGradGradGrad

[...]
 03046823,0.02095783,0.56069904,-0.04273070,0.01303085,0.00233822,0.002
 06346,-0.00182629,-0.00079414,-0.00844363,-0.03149073,0.01094572,-0.08
 372865,-0.01535836,0.00522068,0.51956371,0.00614982,0.00800283,0.00517
 112,-0.00244776,0.00234406,-0.00196073,-0.00777605,-0.01344312,0.00233
 279,-0.01764827,-0.15397035,0.02821068,0.05165212,0.41687394,-0.004137
 84,0.00623414,0.00340919,-0.00026636,-0.00001906,-0.00099440,-0.000563
 34,-0.01027282,0.00497917,0.00551059,0.02787391,-0.09266371,0.03769439
 ,0.00752643,0.56429380,-0.15744322,-0.05722138,-0.04448954,-0.01114473
 ,-0.00848465,-0.00356330,0.00107736,0.00008947,-0.00012435,0.00299101,
 0.00175046,-0.00226791,-0.10285049,0.02078138,0.01077137,0.39769753,-0
 .05244317,-0.09414730,-0.01274004,-0.02503846,-0.01056924,-0.00493527,
 0.00143343,0.00309704,-0.00157157,0.02302438,-0.02452824,-0.00775416,0
 .03555467,-0.09878530,-0.00862771,0.07666922,0.53022241,-0.03862782,-0
 .01159258,-0.10035529,0.00907614,-0.00028749,0.00895487,-0.00034747,-0
 .00062429,-0.00062813,-0.00819889,0.00665981,0.00385759,0.01892387,-0.
 01135282,-0.08031544,0.00359201,-0.03962147,0.57099164,-0.00705285,-0.
 02765534,0.01481164,-0.00310610,0.00062620,-0.00315611,-0.00054272,-0.
 00008702,0.00008722,-0.00387769,0.00225646,0.00198080,0.00464751,0.023
 55090,-0.00990091,-0.05452930,-0.04755985,0.01952189,0.06337018,-0.002
 34544,-0.00925748,0.00445187,-0.00120178,0.00145001,-0.00177880,0.0000
 0204,0.00055058,0.00010187,0.00418461,-0.00074146,-0.00209720,-0.00314
 276,-0.01903717,0.00802740,-0.04789884,-0.25099349,0.09458373,0.050742
 75,0.27405011,-0.00054328,-0.01100452,0.00519126,-0.00195329,0.0000397
 8,-0.00020036,0.00017493,0.00033003,-0.00006972,0.00093294,-0.00072336
 ,0.00003783,-0.00056515,-0.00891072,0.00261880,0.01919602,0.09572266,-
 0.09537933,-0.02260287,-0.10284709,0.09740400,-0.00104803,-0.00243648,
 -0.03227799,0.00049807,0.00089864,-0.00064962,-0.00005330,0.00015999,-
 0.00007584,0.00083028,-0.00121943,-0.00011602,-0.00287551,0.00424073,0
 .02627418,-0.04415916,-0.00307070,0.00528908,-0.00069616,0.00103806,0.
 00615637,0.05389628,0.00258622,-0.00078043,-0.01098928,-0.00004973,0.0
 0025957,-0.00164364,0.00001396,-0.00025220,0.00003335,-0.00077479,0.00
 111108,-0.00095114,0.00259099,-0.00363230,-0.02125224,-0.00426839,-0.0
 5345388,-0.02329943,-0.00023901,0.00403756,0.02830263,0.00006894,0.053
 43887,-0.00258486,-0.00161367,-0.01194450,0.00005157,0.00096302,-0.000
 34062,0.00026871,-0.00004355,0.00021377,-0.00045596,0.00020972,0.00044
 320,0.00126116,-0.00117238,-0.00868676,0.00558365,-0.02321261,-0.29470
 703,0.00045140,-0.00071459,-0.01249109,-0.00451688,0.02872139,0.323076
 70,0.00152034,0.00045237,0.00176270,-0.00013666,0.00000356,0.00018500,
 0.00025279,0.00040403,0.00076351,-0.00093187,-0.00011803,0.00648176,-0
 .05158044,-0.00218697,0.02330420,-0.00527524,0.00172611,0.02374334,0.0
 0112968,-0.00062091,-0.00058391,-0.00315720,0.00291474,0.00120684,0.05
 386076,-0.00172009,-0.00007627,-0.00033623,0.00009252,-0.00020510,0.00
 006481,0.00088512,0.00142637,0.00036158,-0.00289839,-0.00270959,0.0335
 6711,-0.00239619,-0.04590869,0.00087462,0.00458488,-0.00243560,-0.0221
 7014,-0.00077688,0.00072835,-0.00005884,0.00392634,-0.00213448,-0.0009
 7329,-0.00175364,0.05554943,-0.00138380,0.00012746,0.00029928,-0.00005
 238,0.00010428,0.00015891,-0.00000951,-0.00042420,0.00037553,0.0003423
 7,0.00138254,-0.01095511,0.02386346,0.00131742,-0.29633786,0.00198521,
 -0.00171006,-0.00832142,-0.00004406,-0.00044592,0.00069847,0.00106384,
 -0.00109177,0.00108698,-0.02764217,-0.00214446,0.32308562,-0.00204894,
 0.00360093,0.00227206,0.00021545,0.00040394,-0.00083864,0.00098832,-0.
 00119825,0.00100782,-0.00465016,-0.00175646,-0.00210437,-0.23789647,-0
 .07001224,-0.08860922,-0.02154931,-0.00493669,-0.00848322,0.00080101,0
 .00014921,-0.00029710,0.00093367,-0.00061476,0.00038635,0.00343719,0.0
 0125624,0.00055363,0.25939199,0.00125952,-0.00216821,-0.00161721,0.001
 25727,-0.00109615,0.00068693,0.00024869,-0.00543743,0.00309265,-0.0272
 8820,-0.00989272,-0.01287859,-0.06838865,-0.06948396,-0.03031552,0.021
 37551,0.00447657,0.00763627,-0.00087279,0.00070421,0.00041492,-0.00098
 964,0.00083229,0.00023324,0.00031457,-0.00012701,-0.00016861,0.0738605
 4,0.07949141,0.00023825,-0.00123943,0.00008065,-0.00016226,0.00019405,
 0.00013274,0.00041936,0.00209070,-0.00034126,0.01072778,0.00423807,0.0
 0372566,-0.08958393,-0.03115341,-0.08917482,0.01018897,0.00156955,0.00
 285516,-0.00062074,0.00034544,-0.00005154,-0.00021818,0.00064147,0.000
 62125,-0.02806935,-0.01003111,-0.01298384,0.09600627,0.03373134,0.0932
 0947,-0.00051426,-0.00035271,-0.00007262,-0.00307049,-0.00481218,-0.00
 300194,-0.02298842,0.01739129,0.00996247,-0.17721818,0.11316391,0.0629
 5654,0.00520916,-0.00431474,-0.00256656,0.00092657,-0.00156865,0.00021
 869,0.00026947,-0.00030756,0.00011536,-0.00012519,0.00006301,0.0000552
 3,0.00030788,0.00039437,-0.00037590,0.00046415,0.00047214,-0.00027553,
 0.19476899,-0.00163577,-0.00000248,-0.00030357,-0.00186794,-0.00095768
 ,-0.00079693,-0.00917461,0.00745750,0.00437642,0.11325071,-0.14330848,
 -0.05384001,0.02196649,-0.01977863,-0.01061537,-0.00229508,-0.00497007
 ,0.00298954,0.00150117,-0.00124442,-0.00028307,-0.00028365,0.00029623,
 -0.00002396,0.00020737,0.00145362,0.00036649,-0.00037237,0.00066547,-0
 .00059070,-0.12097378,0.15809981,0.00035815,-0.00003742,0.00003891,-0.
 00148933,-0.00125255,-0.00111887,-0.00949814,0.00713486,0.00306769,0.0
 6420390,-0.05479982,-0.07806115,-0.00848046,0.00782542,0.00297469,0.00
 007396,0.00177548,-0.00028130,-0.00024392,0.00040542,0.00031780,-0.000
 16589,0.00029858,0.00027535,-0.00054360,-0.00046877,0.00063218,0.00003
 529,-0.00061197,0.00013120,-0.06807716,0.05839966,0.08184955,-0.000393
 40,0.00005526,-0.00004925,0.00129342,-0.00065787,-0.00222474,-0.003651
 35,-0.00022735,-0.03143949,-0.04858957,0.00199495,-0.00727533,-0.00057
 993,-0.00064683,0.00733654,0.00021107,0.00008357,-0.00064897,-0.000075
 14,0.00002559,0.00003916,0.00023082,0.00006522,-0.00012789,0.00069662,
 -0.00180402,0.00033137,0.00018033,0.00024855,0.00031064,0.00091158,-0.
 00106266,0.02347622,0.05388907,-0.00005101,-0.00006946,-0.00002515,0.0
 0068685,-0.00005062,0.00043657,-0.00148956,-0.00080980,-0.01230784,0.0
 0232684,-0.04822930,0.00621602,-0.00006481,-0.00313209,0.03360124,-0.0
 0031662,0.00160086,0.00055947,-0.00024484,0.00020440,-0.00037134,0.000
 28751,-0.00023420,-0.00063987,-0.00105718,-0.00587960,0.00212597,0.000
 15205,0.00144941,-0.00066043,-0.00105244,0.00051486,-0.02019160,0.0030
 4059,0.05405995,0.00014078,0.00002946,0.00017628,0.00098377,-0.0004609
 0,-0.00079952,-0.00182209,-0.00083954,-0.01065138,-0.00810130,0.006526
 51,-0.29591136,0.00083171,0.00135615,-0.01098703,-0.00020575,-0.000420
 69,0.00034298,-0.00000133,0.00004926,0.00028967,-0.00052305,0.00047096
 ,0.00035619,0.00049374,0.00203094,0.00100959,0.00042354,0.00025836,0.0
 0072756,0.00042654,-0.00035075,-0.01161752,0.00969683,-0.00820821,0.32
 392059,0.00046892,-0.00159999,0.00023135,-0.00068872,0.00345351,0.0262
 3615,-0.04609881,-0.00097161,-0.00586087,-0.00182815,-0.00260403,-0.03
 190790,0.00140957,0.00099020,-0.00025417,-0.00015580,0.00002894,0.0000
 7578,0.00009842,-0.00002875,0.00002483,-0.00012779,0.00004871,-0.00001
 939,0.00000104,-0.00037855,0.00068152,0.00000418,0.00035107,0.00028867
 ,0.00136213,0.00065608,0.00043917,-0.00530319,-0.00264663,-0.00183193,
 0.05213931,0.00015181,0.00113193,-0.00146690,-0.00130553,-0.00389412,-
 0.02404683,-0.00027985,-0.05288917,-0.01818093,-0.00015870,-0.00143691
 ,-0.00968043,0.00060373,0.00038920,-0.00087322,-0.00013003,-0.00029759
 ,-0.00003976,-0.00003253,-0.00004643,-0.00000021,0.00002217,0.00002132
 ,0.00019551,-0.00019851,-0.00002787,0.00019639,0.00001757,0.00013429,0
 .00020961,0.00030721,0.00034104,0.00055042,-0.00157611,0.00011137,-0.0
 0075338,-0.00060965,0.05417854,-0.00030435,0.00105742,0.00065173,0.000
 55882,-0.00200063,-0.01265970,-0.00476503,-0.02013039,-0.29956733,-0.0
 0112789,-0.00052824,-0.00877932,0.00043038,0.00011532,0.00042947,-0.00
 015152,-0.00012359,0.00021487,-0.00001798,-0.00005462,-0.00002217,0.00
 007777,0.00015965,-0.00000379,-0.00014155,-0.00066045,0.00035152,-0.00
 007597,0.00000290,0.00026348,-0.00037858,0.00025902,0.00055536,-0.0014
 5514,-0.00047648,0.00094923,0.00630132,0.02438682,0.32730491,-0.000805
 89,0.00146038,0.00114700,0.00277665,0.02307768,-0.01100348,-0.05379230
 ,-0.04107782,0.01966018,-0.00543108,-0.02807108,0.01275520,-0.00556639
 ,-0.00019067,-0.00307253,-0.00010911,0.00002231,-0.00008935,0.00020786
 ,0.00000996,-0.00001936,0.00005683,-0.00002273,-0.00003540,0.00008707,
 0.00031117,-0.00000825,-0.00030383,-0.00192222,0.00038478,0.00087631,0
 .00059862,0.00068935,0.00149174,0.00047045,-0.00016828,-0.00008279,0.0
 0085083,-0.00011568,0.06012088,0.00160513,-0.00096244,-0.00213430,-0.0
 0298489,-0.02088454,0.00953926,-0.04171763,-0.25295962,0.09281543,-0.0
 0205016,-0.00810946,0.00322293,-0.00194392,0.00106698,-0.00124952,0.00
 036029,0.00042578,0.00024835,-0.00015425,-0.00003825,0.00001277,0.0000
 0041,-0.00004710,-0.00002386,-0.00000442,0.00005628,0.00007704,0.00002
 672,-0.00049398,0.00033827,-0.00027648,0.00051709,0.00003222,0.0002120
 9,0.00026484,-0.00037920,0.00081320,0.00344580,-0.00062488,0.04539335,
 0.27659630,0.00099953,-0.00045760,0.00040260,-0.00250409,-0.01074737,0
 .00373889,0.02049083,0.09414796,-0.09302773,-0.00239601,-0.01050056,0.
 00322845,-0.00185655,-0.00049388,-0.00019416,-0.00009175,0.00041842,0.
 00000800,-0.00000311,0.00001690,-0.00001769,0.00001367,-0.00001097,-0.
 00001109,-0.00019838,-0.00033725,0.00027070,-0.00030742,-0.00031528,0.
 00039263,0.00051370,0.00035421,0.00008036,0.00058236,-0.00021727,0.000
 71954,0.00611171,0.02871245,-0.01238649,-0.02075942,-0.10110800,0.0956
 7920,0.00030296,0.00155477,0.00658225,-0.04684950,0.00200010,0.0173129
 9,-0.00088235,0.00240078,0.02122810,0.00126623,0.00008696,0.00110717,-
 0.00017463,0.00009085,0.00000659,0.00062642,-0.00000603,0.00056898,0.0
 0004292,0.00005035,-0.00005785,-0.00001839,-0.00020907,-0.00011838,0.0
 0006009,0.00006331,-0.00013271,-0.00001034,-0.00011038,0.00001793,0.00
 021366,0.00001530,-0.00016923,-0.00035452,0.00007992,-0.00038657,-0.00
 273096,0.00298119,0.00118296,0.00066068,-0.00017883,-0.00069109,0.0623
 0820,-0.00086785,-0.00335134,0.03163690,0.00301346,-0.05090576,-0.0110
 2955,0.00315949,-0.00220573,-0.02405628,-0.00119182,0.00051729,-0.0001
 6651,0.00007832,-0.00003555,0.00004707,0.00119081,0.00117127,0.0005600
 0,0.00030845,0.00009229,-0.00033122,-0.00033008,-0.00006123,-0.0007053
 1,0.00006676,-0.00012609,-0.00004838,-0.00002495,0.00007981,-0.0000065
 8,-0.00021305,-0.00011957,0.00030000,0.00025106,0.00029371,0.00053605,
 0.00337605,-0.00223906,-0.00155218,-0.00094652,0.00072020,0.00014008,-
 0.00007586,0.05879936,-0.00052157,0.00381350,-0.01439268,0.01290219,-0
 .01033213,-0.28466821,0.00116313,-0.00101164,-0.00993265,-0.00061604,0
 .00039020,-0.00019116,0.00030129,0.00035546,0.00028443,-0.00001588,-0.
 00103552,-0.00024236,-0.00002018,0.00011168,0.00049686,0.00065162,0.00
 034166,0.00078951,-0.00019858,-0.00006009,0.00002447,0.00012289,-0.000
 06205,-0.00002865,0.00007260,-0.00000828,0.00052632,0.00062692,0.00018
 757,0.00079467,0.00076770,-0.00108569,0.00073274,-0.00007248,-0.000442
 90,0.00057194,-0.00496122,0.01290815,0.31513267,-0.07377102,-0.0170982
 1,-0.00848706,-0.12409862,-0.05751644,-0.05293505,-0.02892829,-0.00362
 972,-0.00213315,0.00031622,0.00376049,0.00078199,0.00133039,0.00367378
 ,0.00182486,0.00454279,-0.01159625,0.00220458,-0.00261317,-0.00065348,
 -0.00046306,0.00020321,0.00060354,0.00062610,-0.00026031,0.00000848,0.
 00013660,0.00092196,-0.00098221,-0.00016753,-0.00091168,-0.00063071,0.
 00004664,0.00003411,-0.00010273,0.00039930,0.00151407,-0.00013515,0.00
 010762,0.00301153,-0.00148486,-0.00013056,-0.01978669,-0.00455113,-0.0
 1432501,0.29818247,-0.00067032,-0.05271648,-0.01752106,-0.02064711,-0.
 08024799,-0.03491132,0.02529786,0.01023273,0.01023953,0.00293291,-0.00
 552353,-0.00173698,-0.00250417,-0.00542160,-0.00265730,-0.00465614,0.0
 0645996,0.00975664,-0.00112302,-0.00044435,0.00047833,0.00082412,0.000
 05748,-0.00054804,0.00018470,0.00005415,0.00005135,-0.00145783,0.00210
 952,0.00020707,0.00208391,0.00115323,0.00029977,0.00016233,0.00012837,
 -0.00004740,-0.00106093,0.00069560,0.00038870,-0.00149889,0.00157398,0
 .00032310,-0.00399187,0.00048494,-0.00489679,0.02080130,0.28330168,0.0
 1179262,-0.00324254,0.01223527,-0.03911464,-0.02649432,-0.09747363,0.0
 0913130,0.00454961,0.00383394,0.00155355,-0.00128010,-0.00112192,-0.00
 028446,-0.00028981,0.00003501,0.00078665,0.00166606,0.00054943,0.00010
 380,0.00025679,0.00057409,0.00067271,0.00051679,0.00042802,0.00003251,
 -0.00007917,-0.00000041,-0.00007635,0.00006436,-0.00005954,0.00060405,
 0.00011698,0.00056813,0.00052280,0.00005290,0.00062655,-0.00006024,0.0
 0087165,0.00087786,-0.00032123,0.00033024,0.00021393,-0.04188413,-0.01
 365331,-0.01234829,0.05158473,0.09376100,0.13172492,-0.09587858,0.0163
 5979,0.01909690,-0.04935346,0.04173616,0.01815736,-0.00507823,-0.00666
 005,-0.00505451,-0.00121850,0.00297390,0.00141473,-0.00106753,0.000898
 07,-0.00043160,-0.00005939,0.00122007,0.00236023,-0.00008901,-0.000213
 38,-0.00039644,-0.00024591,-0.00004071,-0.00042403,0.00009089,-0.00009
 943,-0.00004329,-0.00060448,-0.00017258,-0.00012318,-0.00102716,-0.000
 48169,-0.00043727,-0.00009787,-0.00007991,-0.00019056,-0.00004767,-0.0
 0010232,0.00006687,0.00003317,0.00030185,-0.00014016,0.00420114,0.0002
 7908,0.00054085,-0.10204043,0.04886384,0.01514893,0.20442688,-0.116349
 03,0.04065829,0.01150962,0.05127069,-0.02837055,0.01054372,-0.00631432
 ,-0.00255394,0.00455576,0.00047482,0.00054515,-0.00141291,0.00088645,0
 .00591296,0.00301289,0.00602425,-0.01105113,-0.00297067,-0.00138721,-0
 .00025834,-0.00043712,-0.00032503,0.00044386,0.00066680,-0.00031118,0.
 00003569,-0.00010495,0.00125203,-0.00171671,-0.00023992,-0.00009270,-0
 .00026638,0.00042555,-0.00013358,-0.00015186,0.00033936,0.00017926,0.0
 0058303,0.00008222,0.00229927,-0.00160528,0.00007269,-0.00402211,0.001
 26341,-0.00138212,0.06327535,-0.11464322,-0.05399857,-0.12894928,0.103
 68137,0.00881452,0.00317687,-0.00184567,0.00223982,0.00513169,0.008385
 72,-0.00229287,-0.00021122,0.00250759,0.00002593,-0.00019547,0.0004029
 2,0.00059359,0.00082580,0.00033730,0.00073623,-0.00252880,-0.00023919,
 -0.00023206,-0.00005013,-0.00010575,0.00024621,0.00012468,0.00023956,-
 0.00012849,0.00006286,0.00002675,0.00037209,-0.00027490,0.00000370,-0.
 00012152,-0.00006854,0.00009102,0.00016230,0.00000076,0.00004089,-0.00
 088599,0.00070514,0.00039717,0.00061216,-0.00054328,0.00001829,0.00117
 588,0.00135101,0.00366474,0.03142872,-0.05609149,-0.04640614,-0.044789
 35,0.05354192,0.05067722,0.10532885,-0.02730203,-0.01007032,-0.0405552
 8,0.03077339,-0.00443212,0.00857393,0.00812577,-0.00408554,-0.00002229
 ,-0.00152868,0.00042179,0.00186883,-0.00614488,-0.00250207,-0.00946388
 ,0.00618372,-0.00052615,0.00104432,0.00003830,-0.00011421,0.00027537,-
 0.00085626,-0.00010946,0.00016408,0.00010033,0.00025082,-0.00040083,0.
 00137751,0.00036089,0.00047413,0.00042052,-0.00017948,0.00009265,0.000
 11360,-0.00024019,-0.00002590,-0.00048076,-0.00003025,-0.00308688,0.00
 196363,0.00045044,0.00094772,-0.00200133,0.00244738,0.03651273,-0.0576
 4513,-0.00662512,0.04360321,0.11878691,-0.00010022,-0.12804682,0.06367
 415,-0.03038524,-0.01599515,-0.00789941,-0.01842013,-0.00034637,0.0033
 8479,0.00034486,-0.00138868,-0.00027556,0.00004817,0.00023962,0.000882
 97,-0.00200588,-0.00098435,-0.00641269,0.00169689,0.00230960,-0.000009
 36,-0.00015835,-0.00025613,0.00021872,-0.00012606,0.00010285,0.0000064
 3,0.00004721,0.00010399,-0.00032021,0.00046344,0.00009214,0.00002225,0
 .00014430,-0.00012850,0.00007099,-0.00000364,-0.00005616,-0.00025477,0
 .00001984,0.00023163,-0.00074922,0.00040677,0.00035898,0.00101298,0.00
 061773,0.00076443,0.00862443,-0.05236722,-0.00298515,0.02715724,0.0161
 4534,-0.00370976,-0.08460907,0.07921243,-0.01624469,-0.00344776,-0.023
 88461,0.00110374,0.00371769,0.00394212,-0.00079167,-0.00043708,0.00029
 115,-0.00005955,-0.00000389,-0.00002699,-0.00154446,0.00013304,-0.0000
 5021,-0.00275091,0.00404527,0.00104218,0.00015231,-0.00000641,0.000099
 54,-0.00028587,0.00018364,0.00000078,-0.00008211,0.00002539,0.00010462
 ,-0.00036476,0.00010795,0.00017501,0.00001111,-0.00000422,-0.00001718,
 -0.00001635,0.00000490,-0.00002084,0.00009749,-0.00006532,0.00003062,0
 .00034037,-0.00007570,-0.00001603,-0.00096653,0.00148625,-0.00111013,-
 0.00926002,0.00062502,0.00317375,-0.00469108,-0.02044794,-0.01912052,0
 .02113792,0.02139632,0.04324849,-0.03431608,-0.01258823,-0.01728476,-0
 .00017170,0.00279949,0.00240178,0.00069230,0.00018603,-0.00003388,-0.0
 0021851,-0.00020482,0.00003497,0.00140173,-0.00065945,-0.00041812,-0.0
 0133312,0.00027338,-0.02865271,0.00097079,0.00017203,0.00095690,-0.004
 41790,-0.00187988,-0.00149878,-0.00026670,0.00020444,0.00048327,0.0001
 2611,-0.00003871,0.00027717,0.00007136,0.00016201,-0.00003820,0.000013
 55,-0.00005205,0.00007482,0.00009214,0.00007462,-0.00016181,-0.0001444
 5,0.00011876,-0.00008370,0.00017736,-0.00152089,0.00113441,0.00584074,
 -0.00589558,-0.00356749,0.00445294,0.01343542,0.00214304,-0.01728395,-
 0.00452468,0.01421507,0.04431337,-0.01458567,-0.04224953,-0.00039740,0
 .00318440,-0.00042582,0.03251368,-0.00102114,0.00161443,0.00062006,-0.
 00010517,-0.00009639,-0.00002418,-0.00013072,0.00004467,-0.00033060,-0
 .00114244,0.00208105,-0.01334476,0.00115618,0.00040222,-0.00007749,-0.
 00303061,0.00022361,-0.00142140,-0.00002980,0.00027918,0.00028543,-0.0
 0002548,0.00000973,0.00026387,0.00006620,0.00000456,0.00004324,-0.0001
 0176,-0.00006722,-0.00008084,0.00025788,-0.00022080,-0.00053220,-0.000
 01488,0.00002663,-0.00035664,-0.00174237,-0.00499568,0.00144455,-0.002
 36649,0.00511273,-0.00016341,-0.00299066,-0.00865167,-0.00124717,0.012
 68445,0.00431953,-0.00723716,0.00993809,0.04258877,-0.03089973,0.01272
 194,-0.30519870,-0.00087917,-0.00221698,-0.01271080,0.00020759,-0.0009
 7274,0.00019877,-0.00016140,0.00011780,0.00014386,0.00070465,0.0001641
 1,0.00004253,0.00074683,-0.00091596,-0.00834723,-0.00026578,-0.0003556
 1,0.00060931,-0.00161611,-0.00055634,0.00065357,-0.00038546,0.00033247
 ,0.00047401,-0.00002290,0.00001522,0.00032114,-0.00006648,0.00002309,-
 0.00001252,0.00015201,-0.00008721,0.00003392,-0.00043520,0.00036468,0.
 00065983,0.00007642,-0.00003489,0.00032866,0.00018489,0.00258382,-0.00
 010422,-0.00123972,0.00227987,0.00256903,-0.00006439,-0.00375635,0.000
 92438,0.00394592,0.00025068,-0.00786177,0.03001803,-0.00995759,0.32727
 623\\0.00000504,-0.00001142,0.00002981,0.00001324,0.00001861,-0.000023
 64,-0.00000816,-0.00000564,0.00001416,-0.00000471,-0.00000256,0.000000
 40,0.00000202,0.00001334,0.00000667,0.00000261,-0.00000604,-0.00002545
 ,-0.00000737,0.00000204,0.00000075,0.00000364,0.00000294,-0.00000032,0
 .00000926,-0.00000058,0.00000108,-0.00000404,-0.00000064,0.00000942,-0
 .00000415,0.00000008,-0.00000843,0.00000850,-0.00000514,-0.00000024,0.
 00000314,-0.00000114,0.00000064,-0.00000136,-0.00000048,-0.00000146,-0
 .00001434,-0.00000431,-0.00000086,0.00000477,0.00002693,0.00001942,0.0
 0001168,0.00000398,-0.00000778,-0.00000839,-0.00003844,-0.00001539,-0.
 00001137,0.00000847,0.00000122\\\@


 THE UNDERLYING PHYSICAL LAWS NECESSARY FOR THE 
 MATHEMATICAL THEORY OF A LARGE PART OF PHYSICS AND THE
 WHOLE OF CHEMISTRY ARE THUS COMPLETELY KNOWN, AND THE
 DIFFICULTY IS ONLY THAT THE EXACT APPLICATION OF THESE
 LAWS LEADS TO EQUATIONS MUCH TOO COMPLICATED 
 TO BE SOLUBLE.

                                        -- P. A. M. DIRAC, 1929
 Job cpu time:       0 days  0 hours  0 minutes 33.7 seconds.
 Elapsed time:       0 days  0 hours  7 minutes 33.8 seconds.
 File lengths (MBytes):  RWF=    421 Int=      0 D2E=      0 Chk=     18 Scr=      1
 Normal termination of Gaussian 16 at Mon May  9 12:26:07 2022.
