 Entering Gaussian System, Link 0=g16
 Input=Mol_04.com
 Output=Mol_04.log
 Initial command:
 /home/saurabh/gaussian/g16/l1.exe "/home/saurabh/gaussian/gauss_scr/Gau-29066.inp" -scrdir="/home/saurabh/gaussian/gauss_scr/"
 Entering Link 1 = /home/saurabh/gaussian/g16/l1.exe PID=     29067.
  
 Copyright (c) 1988-2019, Gaussian, Inc.  All Rights Reserved.
  
 This is part of the Gaussian(R) 16 program.  It is based on
 the Gaussian(R) 09 system (copyright 2009, Gaussian, Inc.),
 the Gaussian(R) 03 system (copyright 2003, Gaussian, Inc.),
 the Gaussian(R) 98 system (copyright 1998, Gaussian, Inc.),
 the Gaussian(R) 94 system (copyright 1995, Gaussian, Inc.),
 the Gaussian 92(TM) system (copyright 1992, Gaussian, Inc.),
 the Gaussian 90(TM) system (copyright 1990, Gaussian, Inc.),
 the Gaussian 88(TM) system (copyright 1988, Gaussian, Inc.),
 the Gaussian 86(TM) system (copyright 1986, Carnegie Mellon
 University), and the Gaussian 82(TM) system (copyright 1983,
 Carnegie Mellon University). Gaussian is a federally registered
 trademark of Gaussian, Inc.
  
 This software contains proprietary and confidential information,
 including trade secrets, belonging to Gaussian, Inc.
  
 This software is provided under written license and may be
 used, copied, transmitted, or stored only in accord with that
 written license.
  
 The following legend is applicable only to US Government
 contracts under FAR:
  
                    RESTRICTED RIGHTS LEGEND
  
 Use, reproduction and disclosure by the US Government is
 subject to restrictions as set forth in subparagraphs (a)
 and (c) of the Commercial Computer Software - Restricted
 Rights clause in FAR 52.227-19.
  
 Gaussian, Inc.
 340 Quinnipiac St., Bldg. 40, Wallingford CT 06492
  
  
 ---------------------------------------------------------------
 Warning -- This program may not be used in any manner that
 competes with the business of Gaussian, Inc. or will provide
 assistance to any competitor of Gaussian, Inc.  The licensee
 of this program is prohibited from giving any competitor of
 Gaussian, Inc. access to this program.  By using this program,
 the user acknowledges that Gaussian, Inc. is engaged in the
 business of creating and licensing software in the field of
 computational chemistry and represents and warrants to the
 licensee that it is not a competitor of Gaussian, Inc. and that
 it will not use this program in any manner prohibited above.
 ---------------------------------------------------------------
  

 Cite this work as:
 Gaussian 16, Revision C.01,
 M. J. Frisch, G. W. Trucks, H. B. Schlegel, G. E. Scuseria, 
 M. A. Robb, J. R. Cheeseman, G. Scalmani, V. Barone, 
 G. A. Petersson, H. Nakatsuji, X. Li, M. Caricato, A. V. Marenich, 
 J. Bloino, B. G. Janesko, R. Gomperts, B. Mennucci, H. P. Hratchian, 
 J. V. Ortiz, A. F. Izmaylov, J. L. Sonnenberg, D. Williams-Young, 
 F. Ding, F. Lipparini, F. Egidi, J. Goings, B. Peng, A. Petrone, 
 T. Henderson, D. Ranasinghe, V. G. Zakrzewski, J. Gao, N. Rega, 
 G. Zheng, W. Liang, M. Hada, M. Ehara, K. Toyota, R. Fukuda, 
 J. Hasegawa, M. Ishida, T. Nakajima, Y. Honda, O. Kitao, H. Nakai, 
 T. Vreven, K. Throssell, J. A. Montgomery, Jr., J. E. Peralta, 
 F. Ogliaro, M. J. Bearpark, J. J. Heyd, E. N. Brothers, K. N. Kudin, 
 V. N. Staroverov, T. A. Keith, R. Kobayashi, J. Normand, 
 K. Raghavachari, A. P. Rendell, J. C. Burant, S. S. Iyengar, 
 J. Tomasi, M. Cossi, J. M. Millam, M. Klene, C. Adamo, R. Cammi, 
 J. W. Ochterski, R. L. Martin, K. Morokuma, O. Farkas, 
 J. B. Foresman, and D. J. Fox, Gaussian, Inc., Wallingford CT, 2019.
 
 ******************************************
 Gaussian 16:  ES64L-G16RevC.01  3-Jul-2019
                12-Apr-2022 
 ******************************************
 %mem=8gb
 %nproc=8
 Will use up to    8 processors via shared memory.
 %chk=Mol_04.chk
 ----------------------------------------------------------------------
 #p B3LYP/cc-PVTZ scf(verytight, maxcycles=1000) opt(calcfc, maxcyc=100
 0) freq(hpmodes) int(grid=ultrafine)
 ----------------------------------------------------------------------
 1/6=1000,10=4,18=20,19=15,26=4,38=1/1,3;
 2/9=110,12=2,17=6,18=5,40=1/2;
 3/5=16,6=1,11=2,25=1,30=1,71=2,74=-5,75=-5,140=1/1,2,3;
 4//1;
 5/5=2,7=1000,17=3,38=5/2;
 8/6=4,10=90,11=11/1;
 11/6=1,8=1,9=11,15=111,16=1/1,2,10;
 10/6=1,13=1/2;
 6/7=2,8=2,9=2,10=2,28=1/1;
 7/10=1,25=1/1,2,3,16;
 1/6=1000,10=4,18=20,19=15,26=4/3(2);
 2/9=110/2;
 99//99;
 2/9=110/2;
 3/5=16,6=1,11=2,25=1,30=1,71=1,74=-5,75=-5/1,2,3;
 4/5=5,16=3,69=1/1;
 5/5=2,7=1000,17=3,38=5/2;
 7//1,2,3,16;
 1/6=1000,18=20,19=15,26=4/3(-5);
 2/9=110/2;
 6/7=2,8=2,9=2,10=2,19=2,28=1/1;
 99/9=1/99;
 Leave Link    1 at Tue Apr 12 17:46:57 2022, MaxMem=  1073741824 cpu:               0.5 elap:               0.1
 (Enter /home/saurabh/gaussian/g16/l101.exe)
 ------
 Mol_04
 ------
 Symbolic Z-matrix:
 Charge =  0 Multiplicity = 1
 C                    -3.86102   2.16027   0.81837 
 C                    -3.6121    0.95893  -0.10727 
 C                    -4.82494   0.59146  -0.97405 
 C                    -2.95871  -0.2157    0.59022 
 C                    -2.3014    1.03903  -0.86146 
 H                    -4.11881   3.05565   0.21391 
 H                    -2.9622    2.39586   1.42898 
 H                    -4.7041    1.93841   1.50652 
 H                    -2.37706   0.73956  -1.9308 
 H                    -1.73089   1.97827  -0.6872 
 H                    -5.1033    1.45221  -1.61828 
 H                    -5.68883   0.33452  -0.32515 
 H                    -4.60487  -0.28018  -1.62779 
 O                    -1.75102  -0.02524  -0.11523 
 H                    -3.39448  -1.20256   0.31617 
 H                    -2.80381  -0.0698    1.68234 
 
 ITRead=  0  0  0  0  0  0  0  0  0  0  0  0  0  0  0  0
 MicOpt= -1 -1 -1 -1 -1 -1 -1 -1 -1 -1 -1 -1 -1 -1 -1 -1
 NAtoms=     16 NQM=       16 NQMF=       0 NMMI=      0 NMMIF=      0
                NMic=       0 NMicF=      0.
                    Isotopes and Nuclear Properties:
 (Nuclear quadrupole moments (NQMom) in fm**2, nuclear magnetic moments (NMagM)
  in nuclear magnetons)

  Atom         1           2           3           4           5           6           7           8           9          10
 IAtWgt=          12          12          12          12          12           1           1           1           1           1
 AtmWgt=  12.0000000  12.0000000  12.0000000  12.0000000  12.0000000   1.0078250   1.0078250   1.0078250   1.0078250   1.0078250
 NucSpn=           0           0           0           0           0           1           1           1           1           1
 AtZEff=  -0.0000000  -0.0000000  -0.0000000  -0.0000000  -0.0000000  -0.0000000  -0.0000000  -0.0000000  -0.0000000  -0.0000000
 NQMom=    0.0000000   0.0000000   0.0000000   0.0000000   0.0000000   0.0000000   0.0000000   0.0000000   0.0000000   0.0000000
 NMagM=    0.0000000   0.0000000   0.0000000   0.0000000   0.0000000   2.7928460   2.7928460   2.7928460   2.7928460   2.7928460
 AtZNuc=   6.0000000   6.0000000   6.0000000   6.0000000   6.0000000   1.0000000   1.0000000   1.0000000   1.0000000   1.0000000

  Atom        11          12          13          14          15          16
 IAtWgt=           1           1           1          16           1           1
 AtmWgt=   1.0078250   1.0078250   1.0078250  15.9949146   1.0078250   1.0078250
 NucSpn=           1           1           1           0           1           1
 AtZEff=  -0.0000000  -0.0000000  -0.0000000  -0.0000000  -0.0000000  -0.0000000
 NQMom=    0.0000000   0.0000000   0.0000000   0.0000000   0.0000000   0.0000000
 NMagM=    2.7928460   2.7928460   2.7928460   0.0000000   2.7928460   2.7928460
 AtZNuc=   1.0000000   1.0000000   1.0000000   8.0000000   1.0000000   1.0000000
 Leave Link  101 at Tue Apr 12 17:46:57 2022, MaxMem=  1073741824 cpu:               1.5 elap:               0.2
 (Enter /home/saurabh/gaussian/g16/l103.exe)

 GradGradGradGradGradGradGradGradGradGradGradGradGradGradGradGradGradGrad
 Berny optimization.
 Initialization pass.
                           ----------------------------
                           !    Initial Parameters    !
                           ! (Angstroms and Degrees)  !
 --------------------------                            --------------------------
 ! Name  Definition              Value          Derivative Info.                !
 --------------------------------------------------------------------------------
 ! R1    R(1,2)                  1.5369         calculate D2E/DX2 analytically  !
 ! R2    R(1,6)                  1.1106         calculate D2E/DX2 analytically  !
 ! R3    R(1,7)                  1.1119         calculate D2E/DX2 analytically  !
 ! R4    R(1,8)                  1.1106         calculate D2E/DX2 analytically  !
 ! R5    R(2,3)                  1.5354         calculate D2E/DX2 analytically  !
 ! R6    R(2,4)                  1.5143         calculate D2E/DX2 analytically  !
 ! R7    R(2,5)                  1.5143         calculate D2E/DX2 analytically  !
 ! R8    R(3,11)                 1.1106         calculate D2E/DX2 analytically  !
 ! R9    R(3,12)                 1.1106         calculate D2E/DX2 analytically  !
 ! R10   R(3,13)                 1.1116         calculate D2E/DX2 analytically  !
 ! R11   R(4,14)                 1.4115         calculate D2E/DX2 analytically  !
 ! R12   R(4,15)                 1.1131         calculate D2E/DX2 analytically  !
 ! R13   R(4,16)                 1.1127         calculate D2E/DX2 analytically  !
 ! R14   R(5,9)                  1.1131         calculate D2E/DX2 analytically  !
 ! R15   R(5,10)                 1.1127         calculate D2E/DX2 analytically  !
 ! R16   R(5,14)                 1.4115         calculate D2E/DX2 analytically  !
 ! A1    A(2,1,6)              109.8751         calculate D2E/DX2 analytically  !
 ! A2    A(2,1,7)              111.4356         calculate D2E/DX2 analytically  !
 ! A3    A(2,1,8)              109.8751         calculate D2E/DX2 analytically  !
 ! A4    A(6,1,7)              108.4033         calculate D2E/DX2 analytically  !
 ! A5    A(6,1,8)              108.7877         calculate D2E/DX2 analytically  !
 ! A6    A(7,1,8)              108.4033         calculate D2E/DX2 analytically  !
 ! A7    A(1,2,3)              113.5257         calculate D2E/DX2 analytically  !
 ! A8    A(1,2,4)              113.5031         calculate D2E/DX2 analytically  !
 ! A9    A(1,2,5)              113.5032         calculate D2E/DX2 analytically  !
 ! A10   A(3,2,4)              114.5332         calculate D2E/DX2 analytically  !
 ! A11   A(3,2,5)              114.5333         calculate D2E/DX2 analytically  !
 ! A12   A(4,2,5)               84.0863         calculate D2E/DX2 analytically  !
 ! A13   A(2,3,11)             109.8757         calculate D2E/DX2 analytically  !
 ! A14   A(2,3,12)             109.8757         calculate D2E/DX2 analytically  !
 ! A15   A(2,3,13)             111.3033         calculate D2E/DX2 analytically  !
 ! A16   A(11,3,12)            108.8609         calculate D2E/DX2 analytically  !
 ! A17   A(11,3,13)            108.4347         calculate D2E/DX2 analytically  !
 ! A18   A(12,3,13)            108.4348         calculate D2E/DX2 analytically  !
 ! A19   A(2,4,14)              91.9657         calculate D2E/DX2 analytically  !
 ! A20   A(2,4,15)             113.9164         calculate D2E/DX2 analytically  !
 ! A21   A(2,4,16)             114.2334         calculate D2E/DX2 analytically  !
 ! A22   A(14,4,15)            109.3626         calculate D2E/DX2 analytically  !
 ! A23   A(14,4,16)            110.7163         calculate D2E/DX2 analytically  !
 ! A24   A(15,4,16)            114.358          calculate D2E/DX2 analytically  !
 ! A25   A(2,5,9)              113.9164         calculate D2E/DX2 analytically  !
 ! A26   A(2,5,10)             114.2334         calculate D2E/DX2 analytically  !
 ! A27   A(2,5,14)              91.9659         calculate D2E/DX2 analytically  !
 ! A28   A(9,5,10)             114.3579         calculate D2E/DX2 analytically  !
 ! A29   A(9,5,14)             109.3627         calculate D2E/DX2 analytically  !
 ! A30   A(10,5,14)            110.7164         calculate D2E/DX2 analytically  !
 ! A31   A(4,14,5)              91.8538         calculate D2E/DX2 analytically  !
 ! D1    D(6,1,2,3)            -59.8295         calculate D2E/DX2 analytically  !
 ! D2    D(6,1,2,4)            167.0801         calculate D2E/DX2 analytically  !
 ! D3    D(6,1,2,5)             73.2611         calculate D2E/DX2 analytically  !
 ! D4    D(7,1,2,3)            180.0            calculate D2E/DX2 analytically  !
 ! D5    D(7,1,2,4)             46.9095         calculate D2E/DX2 analytically  !
 ! D6    D(7,1,2,5)            -46.9094         calculate D2E/DX2 analytically  !
 ! D7    D(8,1,2,3)             59.8294         calculate D2E/DX2 analytically  !
 ! D8    D(8,1,2,4)            -73.261          calculate D2E/DX2 analytically  !
 ! D9    D(8,1,2,5)           -167.08           calculate D2E/DX2 analytically  !
 ! D10   D(1,2,3,11)            59.875          calculate D2E/DX2 analytically  !
 ! D11   D(1,2,3,12)           -59.8749         calculate D2E/DX2 analytically  !
 ! D12   D(1,2,3,13)          -180.0            calculate D2E/DX2 analytically  !
 ! D13   D(4,2,3,11)          -167.5295         calculate D2E/DX2 analytically  !
 ! D14   D(4,2,3,12)            72.7206         calculate D2E/DX2 analytically  !
 ! D15   D(4,2,3,13)           -47.4045         calculate D2E/DX2 analytically  !
 ! D16   D(5,2,3,11)           -72.7207         calculate D2E/DX2 analytically  !
 ! D17   D(5,2,3,12)           167.5294         calculate D2E/DX2 analytically  !
 ! D18   D(5,2,3,13)            47.4043         calculate D2E/DX2 analytically  !
 ! D19   D(1,2,4,14)          -110.4644         calculate D2E/DX2 analytically  !
 ! D20   D(1,2,4,15)           137.3182         calculate D2E/DX2 analytically  !
 ! D21   D(1,2,4,16)             3.3392         calculate D2E/DX2 analytically  !
 ! D22   D(3,2,4,14)           116.9294         calculate D2E/DX2 analytically  !
 ! D23   D(3,2,4,15)             4.712          calculate D2E/DX2 analytically  !
 ! D24   D(3,2,4,16)          -129.267          calculate D2E/DX2 analytically  !
 ! D25   D(5,2,4,14)             2.6245         calculate D2E/DX2 analytically  !
 ! D26   D(5,2,4,15)          -109.5929         calculate D2E/DX2 analytically  !
 ! D27   D(5,2,4,16)           116.4281         calculate D2E/DX2 analytically  !
 ! D28   D(1,2,5,9)           -137.3181         calculate D2E/DX2 analytically  !
 ! D29   D(1,2,5,10)            -3.3394         calculate D2E/DX2 analytically  !
 ! D30   D(1,2,5,14)           110.4643         calculate D2E/DX2 analytically  !
 ! D31   D(3,2,5,9)             -4.7118         calculate D2E/DX2 analytically  !
 ! D32   D(3,2,5,10)           129.267          calculate D2E/DX2 analytically  !
 ! D33   D(3,2,5,14)          -116.9293         calculate D2E/DX2 analytically  !
 ! D34   D(4,2,5,9)            109.593          calculate D2E/DX2 analytically  !
 ! D35   D(4,2,5,10)          -116.4282         calculate D2E/DX2 analytically  !
 ! D36   D(4,2,5,14)            -2.6245         calculate D2E/DX2 analytically  !
 ! D37   D(2,4,14,5)            -2.8022         calculate D2E/DX2 analytically  !
 ! D38   D(15,4,14,5)          113.4308         calculate D2E/DX2 analytically  !
 ! D39   D(16,4,14,5)         -119.6786         calculate D2E/DX2 analytically  !
 ! D40   D(2,5,14,4)             2.8022         calculate D2E/DX2 analytically  !
 ! D41   D(9,5,14,4)          -113.4308         calculate D2E/DX2 analytically  !
 ! D42   D(10,5,14,4)          119.6787         calculate D2E/DX2 analytically  !
 --------------------------------------------------------------------------------
 Trust Radius=3.00D-01 FncErr=1.00D-07 GrdErr=1.00D-06 EigMax=2.50D+02 EigMin=1.00D-04
 Number of steps in this run=    100 maximum allowed number of steps=    100.
 GradGradGradGradGradGradGradGradGradGradGradGradGradGradGradGradGradGrad

 Leave Link  103 at Tue Apr 12 17:46:58 2022, MaxMem=  1073741824 cpu:               0.1 elap:               0.0
 (Enter /home/saurabh/gaussian/g16/l202.exe)
                          Input orientation:                          
 ---------------------------------------------------------------------
 Center     Atomic      Atomic             Coordinates (Angstroms)
 Number     Number       Type             X           Y           Z
 ---------------------------------------------------------------------
      1          6           0       -3.861024    2.160272    0.818374
      2          6           0       -3.612102    0.958928   -0.107275
      3          6           0       -4.824939    0.591463   -0.974053
      4          6           0       -2.958712   -0.215700    0.590221
      5          6           0       -2.301396    1.039034   -0.861461
      6          1           0       -4.118810    3.055652    0.213910
      7          1           0       -2.962204    2.395856    1.428978
      8          1           0       -4.704097    1.938411    1.506518
      9          1           0       -2.377062    0.739565   -1.930801
     10          1           0       -1.730888    1.978269   -0.687204
     11          1           0       -5.103305    1.452214   -1.618276
     12          1           0       -5.688828    0.334522   -0.325146
     13          1           0       -4.604866   -0.280175   -1.627788
     14          8           0       -1.751023   -0.025239   -0.115232
     15          1           0       -3.394481   -1.202560    0.316169
     16          1           0       -2.803807   -0.069800    1.682340
 ---------------------------------------------------------------------
                    Distance matrix (angstroms):
                    1          2          3          4          5
     1  C    0.000000
     2  C    1.536884   0.000000
     3  C    2.569647   1.535353   0.000000
     4  C    2.551756   1.514321   2.565398   0.000000
     5  C    2.551756   1.514319   2.565397   2.028250   0.000000
     6  H    1.110647   2.180863   2.825262   3.491301   2.919960
     7  H    1.111852   2.201636   3.535558   2.742945   2.742944
     8  H    1.110647   2.180864   2.825262   2.919960   3.491300
     9  H    3.431984   2.213299   2.632376   2.757970   1.113057
    10  H    2.614836   2.216831   3.402744   2.820082   1.112659
    11  H    2.825220   2.179482   1.110587   3.501238   2.931583
    12  H    2.825220   2.179482   1.110587   2.931582   3.501238
    13  H    3.534514   2.198390   1.111555   2.762887   2.762887
    14  O    3.178078   2.105293   3.250669   1.411542   1.411539
    15  H    3.431983   2.213300   2.632375   1.113055   2.757968
    16  H    2.614836   2.216832   3.402744   1.112657   2.820080
                    6          7          8          9         10
     6  H    0.000000
     7  H    1.802626   0.000000
     8  H    1.805997   1.802626   0.000000
     9  H    3.605236   3.791280   4.320589   0.000000
    10  H    2.770367   2.483695   3.695129   1.870418   0.000000
    11  H    2.626242   3.841943   3.187490   2.835126   3.537913
    12  H    3.187490   3.841943   2.626242   3.702699   4.300963
    13  H    3.841334   4.382157   3.841334   2.468764   3.774258
    14  O    3.899569   3.116607   3.899569   2.067157   2.083651
    15  H    4.320588   3.791280   3.605236   3.139405   3.727194
    16  H    3.695129   2.483695   2.770367   3.727194   3.310662
                   11         12         13         14         15
    11  H    0.000000
    12  H    1.806725   0.000000
    13  H    1.802693   1.802693   0.000000
    14  O    3.959772   3.959772   3.239944   0.000000
    15  H    3.702699   2.835126   2.468764   2.067159   0.000000
    16  H    4.300963   3.537913   3.774258   2.083652   1.870418
                   16
    16  H    0.000000
 Stoichiometry    C5H10O
 Framework group  C1[X(C5H10O)]
 Deg. of freedom    42
 Full point group                 C1      NOp   1
 Largest Abelian subgroup         C1      NOp   1
 Largest concise Abelian subgroup C1      NOp   1
                         Standard orientation:                         
 ---------------------------------------------------------------------
 Center     Atomic      Atomic             Coordinates (Angstroms)
 Number     Number       Type             X           Y           Z
 ---------------------------------------------------------------------
      1          6           0       -1.174784    1.319186   -0.000000
      2          6           0       -0.389105   -0.001693   -0.000001
      3          6           0       -1.285688   -1.248066   -0.000000
      4          6           0        0.734975   -0.035741    1.014126
      5          6           0        0.734976   -0.035741   -1.014124
      6          1           0       -1.818970    1.375349   -0.902999
      7          1           0       -0.493022    2.197489   -0.000000
      8          1           0       -1.818970    1.375349    0.902998
      9          1           0        0.812514   -0.997102   -1.569702
     10          1           0        0.799211    0.871308   -1.655331
     11          1           0       -1.931706   -1.248472   -0.903363
     12          1           0       -1.931706   -1.248472    0.903362
     13          1           0       -0.680827   -2.180642   -0.000000
     14          8           0        1.716188   -0.000835   -0.000001
     15          1           0        0.812513   -0.997102    1.569703
     16          1           0        0.799210    0.871307    1.655331
 ---------------------------------------------------------------------
 Rotational constants (GHZ):           5.1456631           3.2831447           2.8841856
 Leave Link  202 at Tue Apr 12 17:46:58 2022, MaxMem=  1073741824 cpu:               0.1 elap:               0.0
 (Enter /home/saurabh/gaussian/g16/l301.exe)
 Standard basis: CC-pVTZ (5D, 7F)
 Ernie: Thresh=  0.10000D-02 Tol=  0.10000D-05 Strict=F.
 Ernie:  18 primitive shells out of 236 were deleted.
 There are   360 symmetry adapted cartesian basis functions of A   symmetry.
 There are   320 symmetry adapted basis functions of A   symmetry.
   320 basis functions,   482 primitive gaussians,   360 cartesian basis functions
    24 alpha electrons       24 beta electrons
       nuclear repulsion energy       258.7133429297 Hartrees.
 IExCor=  402 DFT=T Ex+Corr=B3LYP ExCW=0 ScaHFX=  0.200000
 ScaDFX=  0.800000  0.720000  1.000000  0.810000 ScalE2=  1.000000  1.000000
 IRadAn=      5 IRanWt=     -1 IRanGd=            0 ICorTp=0 IEmpDi=  4
 NAtoms=   16 NActive=   16 NUniq=   16 SFac= 1.00D+00 NAtFMM=   60 NAOKFM=F Big=F
 Integral buffers will be    131072 words long.
 Raffenetti 2 integral format.
 Two-electron integral symmetry is turned on.
 Leave Link  301 at Tue Apr 12 17:46:58 2022, MaxMem=  1073741824 cpu:               0.5 elap:               0.1
 (Enter /home/saurabh/gaussian/g16/l302.exe)
 NPDir=0 NMtPBC=     1 NCelOv=     1 NCel=       1 NClECP=     1 NCelD=      1
         NCelK=      1 NCelE2=     1 NClLst=     1 CellRange=     0.0.
 One-electron integrals computed using PRISM.
 One-electron integral symmetry used in STVInt
 NBasis=   320 RedAO= T EigKep=  4.07D-04  NBF=   320
 NBsUse=   320 1.00D-06 EigRej= -1.00D+00 NBFU=   320
 Precomputing XC quadrature grid using
 IXCGrd= 4 IRadAn=           5 IRanWt=          -1 IRanGd=           0 AccXCQ= 0.00D+00.
 Generated NRdTot=       0 NPtTot=           0 NUsed=           0 NTot=          32
 NSgBfM=   360   360   360   360   360 MxSgAt=    16 MxSgA2=    16.
 Leave Link  302 at Tue Apr 12 17:46:58 2022, MaxMem=  1073741824 cpu:               2.0 elap:               0.3
 (Enter /home/saurabh/gaussian/g16/l303.exe)
 DipDrv:  MaxL=1.
 Leave Link  303 at Tue Apr 12 17:46:58 2022, MaxMem=  1073741824 cpu:               0.3 elap:               0.1
 (Enter /home/saurabh/gaussian/g16/l401.exe)
 ExpMin= 1.03D-01 ExpMax= 1.53D+04 ExpMxC= 5.22D+02 IAcc=3 IRadAn=         5 AccDes= 0.00D+00
 Harris functional with IExCor=  402 and IRadAn=       5 diagonalized for initial guess.
 HarFok:  IExCor=  402 AccDes= 0.00D+00 IRadAn=         5 IDoV= 1 UseB2=F ITyADJ=14
 ICtDFT=  3500011 ScaDFX=  1.000000  1.000000  1.000000  1.000000
 FoFCou: FMM=F IPFlag=           0 FMFlag=      100000 FMFlg1=           0
         NFxFlg=           0 DoJE=T BraDBF=F KetDBF=T FulRan=T
         wScrn=  0.000000 ICntrl=       500 IOpCl=  0 I1Cent=   200000004 NGrid=           0
         NMat0=    1 NMatS0=      1 NMatT0=    0 NMatD0=    1 NMtDS0=    0 NMtDT0=    0
 Petite list used in FoFCou.
 Harris En= -271.869923555925    
 JPrj=0 DoOrth=F DoCkMO=F.
 Leave Link  401 at Tue Apr 12 17:46:59 2022, MaxMem=  1073741824 cpu:               8.7 elap:               1.1
 (Enter /home/saurabh/gaussian/g16/l502.exe)
 Integral symmetry usage will be decided dynamically.
 Closed shell SCF:
 Using DIIS extrapolation, IDIIS=  1040.
 NGot=  1073741824 LenX=  1073476114 LenY=  1073346073
 Requested convergence on RMS density matrix=1.00D-08 within1000 cycles.
 Requested convergence on MAX density matrix=1.00D-06.
 Requested convergence on             energy=1.00D-06.
 No special actions if energy rises.
 Fock matrices will be formed incrementally for  20 cycles.
 Integral accuracy reduced to 1.0D-05 until final iterations.

 Cycle   1  Pass 0  IDiag  1:
 FoFJK:  IHMeth= 1 ICntrl=       0 DoSepK=F KAlg= 0 I1Cent=           0 FoldK=F
 IRaf= 990000000 NMat=       1 IRICut=       1 DoRegI=T DoRafI=F ISym2E= 0 IDoP0=0 IntGTp=1.
 FoFCou: FMM=F IPFlag=           0 FMFlag=      100000 FMFlg1=           0
         NFxFlg=           0 DoJE=F BraDBF=F KetDBF=F FulRan=T
         wScrn=  0.000000 ICntrl=         0 IOpCl=  0 I1Cent=           0 NGrid=           0
         NMat0=    1 NMatS0=      1 NMatT0=    0 NMatD0=    1 NMtDS0=    0 NMtDT0=    0
 Symmetry not used in FoFCou.
 E= -271.630535138033    
 DIIS: error= 2.71D-02 at cycle   1 NSaved=   1.
 NSaved= 1 IEnMin= 1 EnMin= -271.630535138033     IErMin= 1 ErrMin= 2.71D-02
 ErrMax= 2.71D-02  0.00D+00 EMaxC= 1.00D-01 BMatC= 2.16D-01 BMatP= 2.16D-01
 IDIUse=3 WtCom= 7.29D-01 WtEn= 2.71D-01
 Coeff-Com:  0.100D+01
 Coeff-En:   0.100D+01
 Coeff:      0.100D+01
 Gap=     0.280 Goal=   None    Shift=    0.000
 GapD=    0.280 DampG=1.000 DampE=0.500 DampFc=0.5000 IDamp=-1.
 Damping current iteration by 5.00D-01
 RMSDP=3.59D-03 MaxDP=1.39D-01              OVMax= 1.74D-01

 Cycle   2  Pass 0  IDiag  1:
 RMSU=  1.79D-03    CP:  9.96D-01
 E= -271.713188889399     Delta-E=       -0.082653751365 Rises=F Damp=T
 DIIS: error= 6.80D-03 at cycle   2 NSaved=   2.
 NSaved= 2 IEnMin= 2 EnMin= -271.713188889399     IErMin= 2 ErrMin= 6.80D-03
 ErrMax= 6.80D-03  0.00D+00 EMaxC= 1.00D-01 BMatC= 1.38D-02 BMatP= 2.16D-01
 IDIUse=3 WtCom= 9.32D-01 WtEn= 6.80D-02
 Coeff-Com:  0.898D-01 0.910D+00
 Coeff-En:   0.185D+00 0.815D+00
 Coeff:      0.963D-01 0.904D+00
 Gap=     0.290 Goal=   None    Shift=    0.000
 RMSDP=8.96D-04 MaxDP=4.01D-02 DE=-8.27D-02 OVMax= 1.18D-01

 Cycle   3  Pass 0  IDiag  1:
 RMSU=  4.92D-04    CP:  9.96D-01  5.83D-01
 E= -271.829169527423     Delta-E=       -0.115980638024 Rises=F Damp=F
 DIIS: error= 5.27D-03 at cycle   3 NSaved=   3.
 NSaved= 3 IEnMin= 3 EnMin= -271.829169527423     IErMin= 3 ErrMin= 5.27D-03
 ErrMax= 5.27D-03  0.00D+00 EMaxC= 1.00D-01 BMatC= 4.82D-03 BMatP= 1.38D-02
 IDIUse=3 WtCom= 9.47D-01 WtEn= 5.27D-02
 Coeff-Com: -0.155D-01 0.337D+00 0.679D+00
 Coeff-En:   0.000D+00 0.000D+00 0.100D+01
 Coeff:     -0.147D-01 0.319D+00 0.696D+00
 Gap=     0.269 Goal=   None    Shift=    0.000
 RMSDP=2.55D-04 MaxDP=8.10D-03 DE=-1.16D-01 OVMax= 2.18D-02

 Cycle   4  Pass 0  IDiag  1:
 RMSU=  1.58D-04    CP:  9.97D-01  6.86D-01  8.45D-01
 E= -271.831618710513     Delta-E=       -0.002449183089 Rises=F Damp=F
 DIIS: error= 2.97D-03 at cycle   4 NSaved=   4.
 NSaved= 4 IEnMin= 4 EnMin= -271.831618710513     IErMin= 4 ErrMin= 2.97D-03
 ErrMax= 2.97D-03  0.00D+00 EMaxC= 1.00D-01 BMatC= 1.79D-03 BMatP= 4.82D-03
 IDIUse=3 WtCom= 9.70D-01 WtEn= 2.97D-02
 Coeff-Com: -0.177D-01 0.927D-01 0.406D+00 0.519D+00
 Coeff-En:   0.000D+00 0.000D+00 0.253D+00 0.747D+00
 Coeff:     -0.172D-01 0.899D-01 0.402D+00 0.525D+00
 Gap=     0.276 Goal=   None    Shift=    0.000
 RMSDP=1.02D-04 MaxDP=3.34D-03 DE=-2.45D-03 OVMax= 8.48D-03

 Cycle   5  Pass 0  IDiag  1:
 RMSU=  4.27D-05    CP:  9.96D-01  6.58D-01  8.91D-01  5.29D-01
 E= -271.832884647999     Delta-E=       -0.001265937486 Rises=F Damp=F
 DIIS: error= 5.23D-04 at cycle   5 NSaved=   5.
 NSaved= 5 IEnMin= 5 EnMin= -271.832884647999     IErMin= 5 ErrMin= 5.23D-04
 ErrMax= 5.23D-04  0.00D+00 EMaxC= 1.00D-01 BMatC= 6.86D-05 BMatP= 1.79D-03
 IDIUse=3 WtCom= 9.95D-01 WtEn= 5.23D-03
 Coeff-Com: -0.680D-02 0.191D-01 0.139D+00 0.244D+00 0.605D+00
 Coeff-En:   0.000D+00 0.000D+00 0.000D+00 0.000D+00 0.100D+01
 Coeff:     -0.676D-02 0.190D-01 0.138D+00 0.243D+00 0.607D+00
 Gap=     0.274 Goal=   None    Shift=    0.000
 RMSDP=2.28D-05 MaxDP=5.93D-04 DE=-1.27D-03 OVMax= 1.60D-03

 Cycle   6  Pass 0  IDiag  1:
 RMSU=  1.20D-05    CP:  9.96D-01  6.60D-01  8.97D-01  5.96D-01  6.33D-01
 E= -271.832926902884     Delta-E=       -0.000042254885 Rises=F Damp=F
 DIIS: error= 2.07D-04 at cycle   6 NSaved=   6.
 NSaved= 6 IEnMin= 6 EnMin= -271.832926902884     IErMin= 6 ErrMin= 2.07D-04
 ErrMax= 2.07D-04  0.00D+00 EMaxC= 1.00D-01 BMatC= 1.02D-05 BMatP= 6.86D-05
 IDIUse=3 WtCom= 9.98D-01 WtEn= 2.07D-03
 Coeff-Com: -0.216D-02 0.272D-02 0.459D-01 0.965D-01 0.350D+00 0.507D+00
 Coeff-En:   0.000D+00 0.000D+00 0.000D+00 0.000D+00 0.956D-01 0.904D+00
 Coeff:     -0.215D-02 0.271D-02 0.458D-01 0.963D-01 0.349D+00 0.508D+00
 Gap=     0.275 Goal=   None    Shift=    0.000
 RMSDP=6.33D-06 MaxDP=3.43D-04 DE=-4.23D-05 OVMax= 6.47D-04

 Initial convergence to 1.0D-05 achieved.  Increase integral accuracy.
 Cycle   7  Pass 1  IDiag  1:
 E= -271.832950641645     Delta-E=       -0.000023738762 Rises=F Damp=F
 DIIS: error= 3.77D-05 at cycle   1 NSaved=   1.
 NSaved= 1 IEnMin= 1 EnMin= -271.832950641645     IErMin= 1 ErrMin= 3.77D-05
 ErrMax= 3.77D-05  0.00D+00 EMaxC= 1.00D-01 BMatC= 1.59D-07 BMatP= 1.59D-07
 IDIUse=1 WtCom= 1.00D+00 WtEn= 0.00D+00
 Coeff-Com:  0.100D+01
 Coeff:      0.100D+01
 Gap=     0.275 Goal=   None    Shift=    0.000
 RMSDP=6.33D-06 MaxDP=3.43D-04 DE=-2.37D-05 OVMax= 1.04D-04

 Cycle   8  Pass 1  IDiag  1:
 RMSU=  4.09D-06    CP:  1.00D+00
 E= -271.832950655817     Delta-E=       -0.000000014172 Rises=F Damp=F
 DIIS: error= 2.35D-05 at cycle   2 NSaved=   2.
 NSaved= 2 IEnMin= 2 EnMin= -271.832950655817     IErMin= 2 ErrMin= 2.35D-05
 ErrMax= 2.35D-05  0.00D+00 EMaxC= 1.00D-01 BMatC= 6.23D-08 BMatP= 1.59D-07
 IDIUse=1 WtCom= 1.00D+00 WtEn= 0.00D+00
 Coeff-Com:  0.344D+00 0.656D+00
 Coeff:      0.344D+00 0.656D+00
 Gap=     0.275 Goal=   None    Shift=    0.000
 RMSDP=9.51D-07 MaxDP=3.84D-05 DE=-1.42D-08 OVMax= 8.30D-05

 Cycle   9  Pass 1  IDiag  1:
 RMSU=  9.16D-07    CP:  1.00D+00  9.39D-01
 E= -271.832950694896     Delta-E=       -0.000000039079 Rises=F Damp=F
 DIIS: error= 1.38D-05 at cycle   3 NSaved=   3.
 NSaved= 3 IEnMin= 3 EnMin= -271.832950694896     IErMin= 3 ErrMin= 1.38D-05
 ErrMax= 1.38D-05  0.00D+00 EMaxC= 1.00D-01 BMatC= 2.36D-08 BMatP= 6.23D-08
 IDIUse=1 WtCom= 1.00D+00 WtEn= 0.00D+00
 Coeff-Com:  0.172D-01 0.380D+00 0.603D+00
 Coeff:      0.172D-01 0.380D+00 0.603D+00
 Gap=     0.275 Goal=   None    Shift=    0.000
 RMSDP=3.44D-07 MaxDP=1.41D-05 DE=-3.91D-08 OVMax= 3.15D-05

 Cycle  10  Pass 1  IDiag  1:
 RMSU=  1.55D-07    CP:  1.00D+00  9.69D-01  6.92D-01
 E= -271.832950716130     Delta-E=       -0.000000021234 Rises=F Damp=F
 DIIS: error= 2.14D-06 at cycle   4 NSaved=   4.
 NSaved= 4 IEnMin= 4 EnMin= -271.832950716130     IErMin= 4 ErrMin= 2.14D-06
 ErrMax= 2.14D-06  0.00D+00 EMaxC= 1.00D-01 BMatC= 6.93D-10 BMatP= 2.36D-08
 IDIUse=1 WtCom= 1.00D+00 WtEn= 0.00D+00
 Coeff-Com:  0.747D-03 0.185D+00 0.313D+00 0.501D+00
 Coeff:      0.747D-03 0.185D+00 0.313D+00 0.501D+00
 Gap=     0.275 Goal=   None    Shift=    0.000
 RMSDP=9.58D-08 MaxDP=3.23D-06 DE=-2.12D-08 OVMax= 7.13D-06

 Cycle  11  Pass 1  IDiag  1:
 RMSU=  3.84D-08    CP:  1.00D+00  9.73D-01  6.59D-01  4.83D-01
 E= -271.832950716550     Delta-E=       -0.000000000420 Rises=F Damp=F
 DIIS: error= 7.43D-07 at cycle   5 NSaved=   5.
 NSaved= 5 IEnMin= 5 EnMin= -271.832950716550     IErMin= 5 ErrMin= 7.43D-07
 ErrMax= 7.43D-07  0.00D+00 EMaxC= 1.00D-01 BMatC= 7.22D-11 BMatP= 6.93D-10
 IDIUse=1 WtCom= 1.00D+00 WtEn= 0.00D+00
 Coeff-Com: -0.145D-02 0.697D-01 0.120D+00 0.285D+00 0.526D+00
 Coeff:     -0.145D-02 0.697D-01 0.120D+00 0.285D+00 0.526D+00
 Gap=     0.275 Goal=   None    Shift=    0.000
 RMSDP=2.20D-08 MaxDP=8.00D-07 DE=-4.20D-10 OVMax= 1.83D-06

 Cycle  12  Pass 1  IDiag  1:
 RMSU=  9.45D-09    CP:  1.00D+00  9.73D-01  6.67D-01  5.80D-01  7.20D-01
 E= -271.832950716602     Delta-E=       -0.000000000052 Rises=F Damp=F
 DIIS: error= 3.65D-08 at cycle   6 NSaved=   6.
 NSaved= 6 IEnMin= 6 EnMin= -271.832950716602     IErMin= 6 ErrMin= 3.65D-08
 ErrMax= 3.65D-08  0.00D+00 EMaxC= 1.00D-01 BMatC= 3.18D-13 BMatP= 7.22D-11
 IDIUse=1 WtCom= 1.00D+00 WtEn= 0.00D+00
 Coeff-Com: -0.272D-03 0.721D-02 0.125D-01 0.314D-01 0.952D-01 0.854D+00
 Coeff:     -0.272D-03 0.721D-02 0.125D-01 0.314D-01 0.952D-01 0.854D+00
 Gap=     0.275 Goal=   None    Shift=    0.000
 RMSDP=2.05D-09 MaxDP=5.66D-08 DE=-5.21D-11 OVMax= 1.85D-07

 SCF Done:  E(RB3LYP) =  -271.832950717     A.U. after   12 cycles
            NFock= 12  Conv=0.21D-08     -V/T= 2.0071
 KE= 2.699263072678D+02 PE=-1.149645004887D+03 EE= 3.491724039730D+02
 Leave Link  502 at Tue Apr 12 17:47:39 2022, MaxMem=  1073741824 cpu:             319.8 elap:              40.0
 (Enter /home/saurabh/gaussian/g16/l801.exe)
 DoSCS=F DFT=T ScalE2(SS,OS)=  1.000000  1.000000
 Range of M.O.s used for correlation:     1   320
 NBasis=   320 NAE=    24 NBE=    24 NFC=     0 NFV=     0
 NROrb=    320 NOA=    24 NOB=    24 NVA=   296 NVB=   296

 **** Warning!!: The largest alpha MO coefficient is  0.13646433D+02

 Leave Link  801 at Tue Apr 12 17:47:39 2022, MaxMem=  1073741824 cpu:               0.1 elap:               0.0
 (Enter /home/saurabh/gaussian/g16/l1101.exe)
 Using compressed storage, NAtomX=    16.
 Will process     17 centers per pass.
 Leave Link 1101 at Tue Apr 12 17:47:39 2022, MaxMem=  1073741824 cpu:               2.2 elap:               0.3
 (Enter /home/saurabh/gaussian/g16/l1102.exe)
 Symmetrizing basis deriv contribution to polar:
 IMax=3 JMax=2 DiffMx= 0.00D+00
 Leave Link 1102 at Tue Apr 12 17:47:40 2022, MaxMem=  1073741824 cpu:               0.3 elap:               0.1
 (Enter /home/saurabh/gaussian/g16/l1110.exe)
 Forming Gx(P) for the SCF density, NAtomX=    16.
 Integral derivatives from FoFJK, PRISM(SPDF).
 Do as many integral derivatives as possible in FoFJK.
 G2DrvN: MDV=    1073740040.
 G2DrvN: will do    17 centers at a time, making    1 passes.
 Calling FoFCou, ICntrl=  3107 FMM=F I1Cent=   0 AccDes= 0.00D+00.
 FoFJK:  IHMeth= 1 ICntrl=    3107 DoSepK=F KAlg= 0 I1Cent=           0 FoldK=F
 IRaf=         0 NMat=       1 IRICut=       1 DoRegI=T DoRafI=F ISym2E= 0 IDoP0=0 IntGTp=1.
 FoFCou: FMM=F IPFlag=           0 FMFlag=      100000 FMFlg1=           0
         NFxFlg=           0 DoJE=F BraDBF=F KetDBF=F FulRan=T
         wScrn=  0.000000 ICntrl=      3107 IOpCl=  0 I1Cent=           0 NGrid=           0
         NMat0=    1 NMatS0=      1 NMatT0=    0 NMatD0=    1 NMtDS0=    0 NMtDT0=    0
 Symmetry not used in FoFCou.
 End of G2Drv F.D. properties file   721 does not exist.
 End of G2Drv F.D. properties file   722 does not exist.
 End of G2Drv F.D. properties file   788 does not exist.
 Leave Link 1110 at Tue Apr 12 17:48:48 2022, MaxMem=  1073741824 cpu:             548.9 elap:              68.6
 (Enter /home/saurabh/gaussian/g16/l1002.exe)
 Minotr:  Closed shell wavefunction.
          IDoAtm=1111111111111111
          Direct CPHF calculation.
          Differentiating once with respect to nuclear coordinates.
          Requested convergence is 1.0D-08 RMS, and 1.0D-07 maximum.
          Secondary convergence is 1.0D-12 RMS, and 1.0D-12 maximum.
          NewPWx=T KeepS1=F KeepF1=F KeepIn=T MapXYZ=F SortEE=F KeepMc=T.
         4741 words used for storage of precomputed grid.
 Two-electron integrals replicated using symmetry.
          MDV=    1073741824 using IRadAn=       1.
          Solving linear equations simultaneously, MaxMat=     384.
 FoF2E skips out because all densities are zero.
 CalDSu exits because no D1Ps are significant.
 FoFJK:  IHMeth= 1 ICntrl=       0 DoSepK=F KAlg= 0 I1Cent=           0 FoldK=F
 IRaf= 980000000 NMat=      48 IRICut=     120 DoRegI=T DoRafI=T ISym2E= 2 IDoP0=3 IntGTp=3.
 FoFCou: FMM=F IPFlag=           0 FMFlag=      100000 FMFlg1=           0
         NFxFlg=           0 DoJE=F BraDBF=F KetDBF=F FulRan=T
         wScrn=  0.000000 ICntrl=         0 IOpCl=  0 I1Cent=           0 NGrid=           0
         NMat0=   48 NMatS0=     48 NMatT0=    0 NMatD0=   48 NMtDS0=    0 NMtDT0=    0
 Integrals replicated using symmetry in FoFCou.
 Raff kept on since  96.86% of shell-pairs survive, threshold=   0.20 IRatSp=97.
          There are    51 degrees of freedom in the 1st order CPHF.  IDoFFX=6 NUNeed=     0.
     45 vectors produced by pass  0 Test12= 1.39D-14 1.96D-09 XBig12= 8.97D-02 8.38D-02.
 AX will form    45 AO Fock derivatives at one time.
     45 vectors produced by pass  1 Test12= 1.39D-14 1.96D-09 XBig12= 1.47D-02 2.91D-02.
     45 vectors produced by pass  2 Test12= 1.39D-14 1.96D-09 XBig12= 1.45D-04 2.76D-03.
     45 vectors produced by pass  3 Test12= 1.39D-14 1.96D-09 XBig12= 1.20D-06 1.86D-04.
     45 vectors produced by pass  4 Test12= 1.39D-14 1.96D-09 XBig12= 2.68D-09 7.73D-06.
     34 vectors produced by pass  5 Test12= 1.39D-14 1.96D-09 XBig12= 5.51D-12 4.70D-07.
     10 vectors produced by pass  6 Test12= 1.39D-14 1.96D-09 XBig12= 5.40D-15 1.19D-08.
 InvSVY:  IOpt=1 It=  1 EMax= 2.78D-16
 Solved reduced A of dimension   269 with    51 vectors.
 End of Minotr F.D. properties file   721 does not exist.
 End of Minotr F.D. properties file   722 does not exist.
 End of Minotr F.D. properties file   788 does not exist.
 Leave Link 1002 at Tue Apr 12 17:50:59 2022, MaxMem=  1073741824 cpu:            1045.3 elap:             130.7
 (Enter /home/saurabh/gaussian/g16/l601.exe)
 Copying SCF densities to generalized density rwf, IOpCl= 0 IROHF=0.

 **********************************************************************

            Population analysis using the SCF Density.

 **********************************************************************

 Orbital symmetries:
       Occupied  (A) (A) (A) (A) (A) (A) (A) (A) (A) (A) (A) (A)
                 (A) (A) (A) (A) (A) (A) (A) (A) (A) (A) (A) (A)
       Virtual   (A) (A) (A) (A) (A) (A) (A) (A) (A) (A) (A) (A)
                 (A) (A) (A) (A) (A) (A) (A) (A) (A) (A) (A) (A)
                 (A) (A) (A) (A) (A) (A) (A) (A) (A) (A) (A) (A)
                 (A) (A) (A) (A) (A) (A) (A) (A) (A) (A) (A) (A)
                 (A) (A) (A) (A) (A) (A) (A) (A) (A) (A) (A) (A)
                 (A) (A) (A) (A) (A) (A) (A) (A) (A) (A) (A) (A)
                 (A) (A) (A) (A) (A) (A) (A) (A) (A) (A) (A) (A)
                 (A) (A) (A) (A) (A) (A) (A) (A) (A) (A) (A) (A)
                 (A) (A) (A) (A) (A) (A) (A) (A) (A) (A) (A) (A)
                 (A) (A) (A) (A) (A) (A) (A) (A) (A) (A) (A) (A)
                 (A) (A) (A) (A) (A) (A) (A) (A) (A) (A) (A) (A)
                 (A) (A) (A) (A) (A) (A) (A) (A) (A) (A) (A) (A)
                 (A) (A) (A) (A) (A) (A) (A) (A) (A) (A) (A) (A)
                 (A) (A) (A) (A) (A) (A) (A) (A) (A) (A) (A) (A)
                 (A) (A) (A) (A) (A) (A) (A) (A) (A) (A) (A) (A)
                 (A) (A) (A) (A) (A) (A) (A) (A) (A) (A) (A) (A)
                 (A) (A) (A) (A) (A) (A) (A) (A) (A) (A) (A) (A)
                 (A) (A) (A) (A) (A) (A) (A) (A) (A) (A) (A) (A)
                 (A) (A) (A) (A) (A) (A) (A) (A) (A) (A) (A) (A)
                 (A) (A) (A) (A) (A) (A) (A) (A) (A) (A) (A) (A)
                 (A) (A) (A) (A) (A) (A) (A) (A) (A) (A) (A) (A)
                 (A) (A) (A) (A) (A) (A) (A) (A) (A) (A) (A) (A)
                 (A) (A) (A) (A) (A) (A) (A) (A) (A) (A) (A) (A)
                 (A) (A) (A) (A) (A) (A) (A) (A) (A) (A) (A) (A)
                 (A) (A) (A) (A) (A) (A) (A) (A)
 The electronic state is 1-A.
 Alpha  occ. eigenvalues --  -19.11740 -10.21683 -10.21682 -10.18981 -10.17725
 Alpha  occ. eigenvalues --  -10.17711  -1.05999  -0.80534  -0.69517  -0.69432
 Alpha  occ. eigenvalues --   -0.65533  -0.52995  -0.50039  -0.47644  -0.47113
 Alpha  occ. eigenvalues --   -0.42119  -0.40998  -0.40415  -0.38969  -0.38130
 Alpha  occ. eigenvalues --   -0.35069  -0.31081  -0.29795  -0.25084
 Alpha virt. eigenvalues --    0.02391   0.05372   0.06861   0.08106   0.08250
 Alpha virt. eigenvalues --    0.09211   0.09993   0.10209   0.10830   0.13721
 Alpha virt. eigenvalues --    0.14252   0.14350   0.14566   0.19253   0.21751
 Alpha virt. eigenvalues --    0.22492   0.26489   0.27773   0.28971   0.29884
 Alpha virt. eigenvalues --    0.31709   0.33189   0.33659   0.35736   0.37220
 Alpha virt. eigenvalues --    0.41120   0.41932   0.42606   0.43652   0.44414
 Alpha virt. eigenvalues --    0.44946   0.45170   0.45262   0.46242   0.46941
 Alpha virt. eigenvalues --    0.47252   0.48754   0.49848   0.50337   0.50855
 Alpha virt. eigenvalues --    0.51896   0.56021   0.56803   0.60939   0.65297
 Alpha virt. eigenvalues --    0.66971   0.70951   0.71624   0.74839   0.80703
 Alpha virt. eigenvalues --    0.83038   0.83584   0.84251   0.84872   0.90031
 Alpha virt. eigenvalues --    0.90573   0.91828   0.92816   0.94031   0.95381
 Alpha virt. eigenvalues --    0.95771   0.97016   0.98195   0.98752   1.00429
 Alpha virt. eigenvalues --    1.00848   1.04579   1.08792   1.09845   1.10177
 Alpha virt. eigenvalues --    1.10515   1.12692   1.14237   1.18719   1.20807
 Alpha virt. eigenvalues --    1.21518   1.21790   1.22383   1.22820   1.23989
 Alpha virt. eigenvalues --    1.24467   1.24592   1.28139   1.29342   1.30167
 Alpha virt. eigenvalues --    1.32340   1.34380   1.35016   1.37900   1.38835
 Alpha virt. eigenvalues --    1.40167   1.45104   1.46275   1.48070   1.48578
 Alpha virt. eigenvalues --    1.48598   1.49335   1.53257   1.55774   1.57547
 Alpha virt. eigenvalues --    1.58936   1.65518   1.66124   1.68421   1.84072
 Alpha virt. eigenvalues --    1.97117   2.01352   2.04175   2.08094   2.14904
 Alpha virt. eigenvalues --    2.15892   2.20579   2.26130   2.27943   2.29801
 Alpha virt. eigenvalues --    2.34548   2.38866   2.43207   2.45929   2.48183
 Alpha virt. eigenvalues --    2.50141   2.52308   2.54029   2.56556   2.57106
 Alpha virt. eigenvalues --    2.57882   2.60543   2.62204   2.65487   2.65927
 Alpha virt. eigenvalues --    2.70987   2.75352   2.77108   2.77262   2.79509
 Alpha virt. eigenvalues --    2.82659   2.82676   2.85371   2.87278   2.89390
 Alpha virt. eigenvalues --    2.90210   2.91081   2.92089   2.96471   2.97158
 Alpha virt. eigenvalues --    2.97867   2.97967   2.99685   3.00392   3.01564
 Alpha virt. eigenvalues --    3.02858   3.03812   3.04665   3.05830   3.06163
 Alpha virt. eigenvalues --    3.09265   3.09793   3.11506   3.13437   3.16203
 Alpha virt. eigenvalues --    3.16804   3.18686   3.20117   3.21828   3.22507
 Alpha virt. eigenvalues --    3.29856   3.30347   3.30559   3.33036   3.34333
 Alpha virt. eigenvalues --    3.34944   3.38152   3.38674   3.39033   3.39980
 Alpha virt. eigenvalues --    3.44652   3.45374   3.46877   3.47992   3.48484
 Alpha virt. eigenvalues --    3.50337   3.54066   3.55677   3.57191   3.57594
 Alpha virt. eigenvalues --    3.61962   3.62862   3.64871   3.65587   3.67213
 Alpha virt. eigenvalues --    3.70239   3.73382   3.75486   3.76425   3.78079
 Alpha virt. eigenvalues --    3.79880   3.84200   3.88117   3.88486   3.89430
 Alpha virt. eigenvalues --    3.89792   3.91712   3.94958   3.95566   3.97383
 Alpha virt. eigenvalues --    3.98264   3.98546   4.01307   4.01645   4.03232
 Alpha virt. eigenvalues --    4.03822   4.07936   4.09017   4.09743   4.12263
 Alpha virt. eigenvalues --    4.13188   4.14271   4.15766   4.18130   4.19104
 Alpha virt. eigenvalues --    4.20148   4.21259   4.23093   4.27619   4.30254
 Alpha virt. eigenvalues --    4.31504   4.32567   4.34585   4.37105   4.44230
 Alpha virt. eigenvalues --    4.45141   4.46502   4.53762   4.58274   4.59827
 Alpha virt. eigenvalues --    4.63128   4.65845   4.67690   4.72134   4.74075
 Alpha virt. eigenvalues --    4.75474   4.76055   4.78839   4.80636   4.80869
 Alpha virt. eigenvalues --    4.91773   4.93251   4.93964   4.94557   4.95523
 Alpha virt. eigenvalues --    5.00171   5.06898   5.07545   5.09526   5.09950
 Alpha virt. eigenvalues --    5.13911   5.16269   5.17852   5.20339   5.21225
 Alpha virt. eigenvalues --    5.25734   5.26215   5.26912   5.27649   5.29233
 Alpha virt. eigenvalues --    5.33047   5.33731   5.35289   5.42293   5.42635
 Alpha virt. eigenvalues --    5.52766   5.56689   5.72654   5.76092   5.85234
 Alpha virt. eigenvalues --    5.86358   5.86589   5.89516   5.89764   5.90433
 Alpha virt. eigenvalues --    5.95069   6.01161   6.07442   6.15473   6.53180
 Alpha virt. eigenvalues --    6.85505   6.92021   7.04932   7.17792   7.25819
 Alpha virt. eigenvalues --   10.23183  11.40268  12.79703  12.80510  13.31318
 Alpha virt. eigenvalues --   13.44626
          Condensed to atoms (all electrons):
               1          2          3          4          5          6
     1  C    4.980739   0.293438  -0.054475  -0.053785  -0.053785   0.388213
     2  C    0.293438   4.962037   0.313212   0.387464   0.387465  -0.028407
     3  C   -0.054475   0.313212   4.959438  -0.053050  -0.053050  -0.004724
     4  C   -0.053785   0.387464  -0.053050   4.693535  -0.109054   0.008675
     5  C   -0.053785   0.387465  -0.053050  -0.109054   4.693532  -0.005920
     6  H    0.388213  -0.028407  -0.004724   0.008675  -0.005920   0.607858
     7  H    0.406876  -0.042074   0.007689  -0.003485  -0.003485  -0.031534
     8  H    0.388213  -0.028407  -0.004724  -0.005920   0.008675  -0.027450
     9  H    0.009745  -0.022295  -0.015521   0.002836   0.375437  -0.000173
    10  H   -0.016223  -0.022773   0.008327   0.006835   0.371842   0.004441
    11  H   -0.004614  -0.029806   0.389448   0.008644  -0.005307   0.004190
    12  H   -0.004614  -0.029805   0.389449  -0.005307   0.008644  -0.000448
    13  H    0.007921  -0.037564   0.404049  -0.004638  -0.004638  -0.000148
    14  O    0.018734  -0.133875   0.016582   0.333646   0.333648  -0.001067
    15  H    0.009745  -0.022295  -0.015521   0.375437   0.002836  -0.000692
    16  H   -0.016222  -0.022773   0.008327   0.371843   0.006834   0.000570
               7          8          9         10         11         12
     1  C    0.406876   0.388213   0.009745  -0.016223  -0.004614  -0.004614
     2  C   -0.042074  -0.028407  -0.022295  -0.022773  -0.029806  -0.029805
     3  C    0.007689  -0.004724  -0.015521   0.008327   0.389448   0.389449
     4  C   -0.003485  -0.005920   0.002836   0.006835   0.008644  -0.005307
     5  C   -0.003485   0.008675   0.375437   0.371842  -0.005307   0.008644
     6  H   -0.031534  -0.027450  -0.000173   0.004441   0.004190  -0.000448
     7  H    0.606514  -0.031534   0.000833  -0.004277  -0.000107  -0.000107
     8  H   -0.031534   0.607858  -0.000692   0.000570  -0.000448   0.004190
     9  H    0.000833  -0.000692   0.717502  -0.074146   0.003601   0.000533
    10  H   -0.004277   0.000570  -0.074146   0.720633   0.000025  -0.000689
    11  H   -0.000107  -0.000448   0.003601   0.000025   0.607276  -0.027362
    12  H   -0.000107   0.004190   0.000533  -0.000689  -0.027362   0.607276
    13  H   -0.000475  -0.000148  -0.001881   0.000471  -0.031437  -0.031437
    14  O    0.006078  -0.001067  -0.047537  -0.045308  -0.000980  -0.000980
    15  H    0.000833  -0.000173   0.007974  -0.004925   0.000533   0.003601
    16  H   -0.004277   0.004441  -0.004925   0.005605  -0.000689   0.000025
              13         14         15         16
     1  C    0.007921   0.018734   0.009745  -0.016222
     2  C   -0.037564  -0.133875  -0.022295  -0.022773
     3  C    0.404049   0.016582  -0.015521   0.008327
     4  C   -0.004638   0.333646   0.375437   0.371843
     5  C   -0.004638   0.333648   0.002836   0.006834
     6  H   -0.000148  -0.001067  -0.000692   0.000570
     7  H   -0.000475   0.006078   0.000833  -0.004277
     8  H   -0.000148  -0.001067  -0.000173   0.004441
     9  H   -0.001881  -0.047537   0.007974  -0.004925
    10  H    0.000471  -0.045308  -0.004925   0.005605
    11  H   -0.031437  -0.000980   0.000533  -0.000689
    12  H   -0.031437  -0.000980   0.003601   0.000025
    13  H    0.607914   0.003916  -0.001881   0.000471
    14  O    0.003916   7.910748  -0.047537  -0.045308
    15  H   -0.001881  -0.047537   0.717499  -0.074145
    16  H    0.000471  -0.045308  -0.074145   0.720630
 Mulliken charges:
               1
     1  C   -0.299907
     2  C    0.076460
     3  C   -0.295458
     4  C    0.046325
     5  C    0.046327
     6  H    0.086616
     7  H    0.092533
     8  H    0.086616
     9  H    0.048711
    10  H    0.049593
    11  H    0.087033
    12  H    0.087033
    13  H    0.089504
    14  O   -0.299692
    15  H    0.048712
    16  H    0.049594
 Sum of Mulliken charges =  -0.00000
 Mulliken charges with hydrogens summed into heavy atoms:
               1
     1  C   -0.034142
     2  C    0.076460
     3  C   -0.031888
     4  C    0.144631
     5  C    0.144630
    14  O   -0.299692
 APT charges:
               1
     1  C   -1.013707
     2  C    0.096231
     3  C   -1.005675
     4  C   -0.562032
     5  C   -0.562032
     6  H    0.344315
     7  H    0.312333
     8  H    0.344316
     9  H    0.296685
    10  H    0.296234
    11  H    0.344522
    12  H    0.344522
    13  H    0.310900
    14  O   -0.139532
    15  H    0.296686
    16  H    0.296235
 Sum of APT charges =  -0.00000
 APT charges with hydrogens summed into heavy atoms:
               1
     1  C   -0.012743
     2  C    0.096231
     3  C   -0.005730
     4  C    0.030889
     5  C    0.030886
    14  O   -0.139532
 Electronic spatial extent (au):  <R**2>=            561.4372
 Charge=             -0.0000 electrons
 Dipole moment (field-independent basis, Debye):
    X=             -1.8395    Y=             -0.0278    Z=              0.0000  Tot=              1.8397
 Quadrupole moment (field-independent basis, Debye-Ang):
   XX=            -44.0102   YY=            -38.0950   ZZ=            -37.3748
   XY=             -0.0834   XZ=              0.0000   YZ=             -0.0000
 Traceless Quadrupole moment (field-independent basis, Debye-Ang):
   XX=             -4.1835   YY=              1.7316   ZZ=              2.4519
   XY=             -0.0834   XZ=              0.0000   YZ=             -0.0000
 Octapole moment (field-independent basis, Debye-Ang**2):
  XXX=             -3.3939  YYY=             -0.3130  ZZZ=              0.0000  XYY=              4.8859
  XXY=              0.0222  XXZ=              0.0000  XZZ=              2.8993  YZZ=              0.2774
  YYZ=              0.0000  XYZ=              0.0000
 Hexadecapole moment (field-independent basis, Debye-Ang**3):
 XXXX=           -380.9616 YYYY=           -240.4821 ZZZZ=           -173.0699 XXXY=             -0.4454
 XXXZ=             -0.0000 YYYX=              0.0657 YYYZ=             -0.0000 ZZZX=              0.0000
 ZZZY=              0.0000 XXYY=           -102.8144 XXZZ=            -81.4868 YYZZ=            -67.2129
 XXYZ=             -0.0000 YYXZ=              0.0000 ZZXY=             -0.0039
 N-N= 2.587133429297D+02 E-N=-1.149645003229D+03  KE= 2.699263072678D+02
  Exact polarizability:       0.000       0.000       0.000       0.000       0.000       0.000
 Approx polarizability:      83.760      -0.129      85.232       0.000      -0.000      88.803
 No NMR shielding tensors so no spin-rotation constants.
 Leave Link  601 at Tue Apr 12 17:50:59 2022, MaxMem=  1073741824 cpu:               1.4 elap:               0.2
 (Enter /home/saurabh/gaussian/g16/l701.exe)
 ... and contract with generalized density number  0.
 Compute integral second derivatives.
 Leave Link  701 at Tue Apr 12 17:50:59 2022, MaxMem=  1073741824 cpu:               1.8 elap:               0.3
 (Enter /home/saurabh/gaussian/g16/l702.exe)
 L702 exits ... SP integral derivatives will be done elsewhere.
 Leave Link  702 at Tue Apr 12 17:50:59 2022, MaxMem=  1073741824 cpu:               0.1 elap:               0.0
 (Enter /home/saurabh/gaussian/g16/l703.exe)
 Integral derivatives from FoFJK, PRISM(SPDF).
 Compute integral second derivatives, UseDBF=F ICtDFT=           0.
 Calling FoFJK, ICntrl=    100127 FMM=F ISym2X=0 I1Cent= 0 IOpClX= 0 NMat=1 NMatS=1 NMatT=0.
 FoFJK:  IHMeth= 1 ICntrl=  100127 DoSepK=F KAlg= 0 I1Cent=           0 FoldK=F
 IRaf=         0 NMat=       1 IRICut=       1 DoRegI=T DoRafI=F ISym2E= 0 IDoP0=0 IntGTp=1.
 FoFCou: FMM=F IPFlag=           0 FMFlag=      100000 FMFlg1=         800
         NFxFlg=           0 DoJE=F BraDBF=F KetDBF=F FulRan=T
         wScrn=  0.000000 ICntrl=    100127 IOpCl=  0 I1Cent=           0 NGrid=           0
         NMat0=    1 NMatS0=      1 NMatT0=    0 NMatD0=    1 NMtDS0=    0 NMtDT0=    0
 Symmetry not used in FoFCou.
 Leave Link  703 at Tue Apr 12 17:53:49 2022, MaxMem=  1073741824 cpu:            1354.7 elap:             169.4
 (Enter /home/saurabh/gaussian/g16/l716.exe)
 Dipole        =-7.23697521D-01-1.09505319D-02 4.27065954D-06
 Polarizability= 0.00000000D+00 0.00000000D+00 0.00000000D+00
                 0.00000000D+00 0.00000000D+00 0.00000000D+00
 ***** Axes restored to original set *****
 -------------------------------------------------------------------
 Center     Atomic                   Forces (Hartrees/Bohr)
 Number     Number              X              Y              Z
 -------------------------------------------------------------------
      1        6          -0.005734803    0.002486831   -0.000447606
      2        6          -0.022862590    0.012145003    0.000146365
      3        6          -0.004790071    0.003651502    0.000986815
      4        6          -0.006444354   -0.019963139    0.018459647
      5        6           0.011477959    0.014249232   -0.021122599
      6        1           0.001913530   -0.007858611    0.008310763
      7        1          -0.010455970   -0.003179176   -0.007482267
      8        1           0.008517976    0.004748568   -0.006275342
      9        1           0.004013458    0.012361932    0.007698489
     10        1          -0.004872505   -0.008385198   -0.011014681
     11        1           0.000391524   -0.009987430    0.005919896
     12        1           0.007060166    0.002742280   -0.008807819
     13        1          -0.002462344    0.010304059    0.007791186
     14        8           0.028059622   -0.011656162    0.002632197
     15        1           0.001784898    0.008107699    0.012619918
     16        1          -0.005596496   -0.009767391   -0.009414962
 -------------------------------------------------------------------
 Cartesian Forces:  Max     0.028059622 RMS     0.010219449
 FormGI is forming the generalized inverse of G from B-inverse, IUseBI=4.
 Leave Link  716 at Tue Apr 12 17:53:49 2022, MaxMem=  1073741824 cpu:               0.2 elap:               0.0
 (Enter /home/saurabh/gaussian/g16/l103.exe)

 GradGradGradGradGradGradGradGradGradGradGradGradGradGradGradGradGradGrad
 Berny optimization.
 Red2BG is reusing G-inverse.
 Internal  Forces:  Max     0.023087210 RMS     0.006603535
 Search for a local minimum.
 Step number   1 out of a maximum of  100
 All quantities printed in internal units (Hartrees-Bohrs-Radians)
 RMS Force = .66035D-02 SwitMx=.10000D-02 MixMth= 1
 Mixed Optimization -- RFO/linear search
 Second derivative matrix not updated -- analytic derivatives used.
 ITU=  0
     Eigenvalues ---   -0.00062   0.00246   0.00310   0.02597   0.02810
     Eigenvalues ---    0.04192   0.04398   0.04413   0.04480   0.04536
     Eigenvalues ---    0.04688   0.04773   0.06267   0.07417   0.07505
     Eigenvalues ---    0.08821   0.09124   0.09360   0.09866   0.11969
     Eigenvalues ---    0.12379   0.14344   0.14564   0.14867   0.15154
     Eigenvalues ---    0.21136   0.24314   0.26114   0.26446   0.27761
     Eigenvalues ---    0.28420   0.28491   0.28726   0.28874   0.29433
     Eigenvalues ---    0.29559   0.29628   0.29703   0.30525   0.30670
     Eigenvalues ---    0.35735   0.36284
 Eigenvalue     1 is  -6.18D-04 should be greater than     0.000000 Eigenvector:
                          D28       D20       D31       D23       D29
   1                    0.22089  -0.22089   0.21840  -0.21840   0.21729
                          D21       D32       D24       D30       D19
   1                   -0.21729   0.21480  -0.21480   0.21214  -0.21214
 RFO step:  Lambda=-1.37674445D-02 EMin=-6.18361880D-04
 Linear search not attempted -- first point.
 Iteration  1 RMS(Cart)=  0.07987285 RMS(Int)=  0.00708484
 Iteration  2 RMS(Cart)=  0.00711738 RMS(Int)=  0.00122431
 Iteration  3 RMS(Cart)=  0.00006569 RMS(Int)=  0.00122292
 Iteration  4 RMS(Cart)=  0.00000003 RMS(Int)=  0.00122292
 ITry= 1 IFail=0 DXMaxC= 3.18D-01 DCOld= 1.00D+10 DXMaxT= 3.00D-01 DXLimC= 3.00D+00 Rises=F
 Variable       Old X    -DE/DX   Delta X   Delta X   Delta X     New X
                                 (Linear)    (Quad)   (Total)
    R1        2.90429  -0.00559   0.00000  -0.02074  -0.02074   2.88355
    R2        2.09882  -0.01130   0.00000  -0.03514  -0.03514   2.06368
    R3        2.10110  -0.01324   0.00000  -0.04002  -0.04002   2.06108
    R4        2.09882  -0.01130   0.00000  -0.03513  -0.03513   2.06368
    R5        2.90140  -0.00509   0.00000  -0.02562  -0.02562   2.87577
    R6        2.86165   0.02309   0.00000   0.05723   0.05642   2.91807
    R7        2.86165   0.02309   0.00000   0.05723   0.05642   2.91807
    R8        2.09870  -0.01127   0.00000  -0.03457  -0.03457   2.06413
    R9        2.09870  -0.01127   0.00000  -0.03457  -0.03457   2.06413
   R10        2.10054  -0.01315   0.00000  -0.03997  -0.03997   2.06056
   R11        2.66743   0.02174   0.00000   0.05674   0.05761   2.72504
   R12        2.10337  -0.01099   0.00000  -0.03508  -0.03508   2.06829
   R13        2.10262  -0.01130   0.00000  -0.04065  -0.04065   2.06197
   R14        2.10337  -0.01100   0.00000  -0.03508  -0.03508   2.06829
   R15        2.10262  -0.01130   0.00000  -0.04065  -0.04065   2.06197
   R16        2.66742   0.02174   0.00000   0.05675   0.05761   2.72504
    A1        1.91768   0.00334   0.00000   0.01716   0.01709   1.93477
    A2        1.94492  -0.00200   0.00000  -0.00719  -0.00715   1.93776
    A3        1.91768   0.00334   0.00000   0.01716   0.01709   1.93477
    A4        1.89199  -0.00093   0.00000  -0.00627  -0.00623   1.88576
    A5        1.89870  -0.00299   0.00000  -0.01553  -0.01570   1.88300
    A6        1.89199  -0.00093   0.00000  -0.00627  -0.00623   1.88576
    A7        1.98140  -0.00400   0.00000  -0.02815  -0.02900   1.95240
    A8        1.98100   0.00110   0.00000  -0.01429  -0.01329   1.96771
    A9        1.98100   0.00110   0.00000  -0.01429  -0.01329   1.96771
   A10        1.99898   0.00147   0.00000   0.03459   0.03521   2.03419
   A11        1.99898   0.00147   0.00000   0.03459   0.03521   2.03419
   A12        1.46758   0.00036   0.00000  -0.00346  -0.00681   1.46078
   A13        1.91769   0.00347   0.00000   0.01861   0.01852   1.93621
   A14        1.91769   0.00347   0.00000   0.01861   0.01851   1.93621
   A15        1.94261  -0.00153   0.00000   0.00211   0.00206   1.94467
   A16        1.89998  -0.00326   0.00000  -0.02325  -0.02338   1.87660
   A17        1.89254  -0.00117   0.00000  -0.00872  -0.00876   1.88378
   A18        1.89254  -0.00117   0.00000  -0.00872  -0.00876   1.88378
   A19        1.60510  -0.00031   0.00000  -0.00153  -0.00697   1.59813
   A20        1.98822   0.00281   0.00000   0.00512   0.00575   1.99397
   A21        1.99375   0.00328   0.00000   0.04225   0.04339   2.03714
   A22        1.90874   0.00272   0.00000   0.03082   0.03240   1.94114
   A23        1.93236   0.00110   0.00000   0.01654   0.01794   1.95030
   A24        1.99592  -0.00773   0.00000  -0.07394  -0.07424   1.92169
   A25        1.98822   0.00281   0.00000   0.00512   0.00575   1.99397
   A26        1.99375   0.00328   0.00000   0.04225   0.04339   2.03714
   A27        1.60511  -0.00032   0.00000  -0.00153  -0.00697   1.59814
   A28        1.99592  -0.00773   0.00000  -0.07394  -0.07423   1.92169
   A29        1.90874   0.00272   0.00000   0.03082   0.03240   1.94114
   A30        1.93237   0.00110   0.00000   0.01654   0.01794   1.95030
   A31        1.60315   0.00024   0.00000  -0.00660  -0.01156   1.59159
    D1       -1.04422  -0.00023   0.00000  -0.00110  -0.00116  -1.04538
    D2        2.91610   0.00049   0.00000  -0.00980  -0.01117   2.90492
    D3        1.27865  -0.00096   0.00000   0.00759   0.00885   1.28750
    D4        3.14159   0.00000   0.00000   0.00000   0.00000  -3.14159
    D5        0.81873   0.00073   0.00000  -0.00869  -0.01001   0.80871
    D6       -0.81872  -0.00073   0.00000   0.00869   0.01001  -0.80871
    D7        1.04422   0.00023   0.00000   0.00111   0.00116   1.04538
    D8       -1.27865   0.00096   0.00000  -0.00759  -0.00885  -1.28750
    D9       -2.91610  -0.00049   0.00000   0.00980   0.01117  -2.90492
   D10        1.04502   0.00016   0.00000  -0.00273  -0.00271   1.04231
   D11       -1.04501  -0.00016   0.00000   0.00273   0.00271  -1.04231
   D12       -3.14159  -0.00000   0.00000  -0.00000  -0.00000  -3.14159
   D13       -2.92394  -0.00079   0.00000  -0.01782  -0.01710  -2.94104
   D14        1.26921  -0.00110   0.00000  -0.01235  -0.01168   1.25753
   D15       -0.82736  -0.00095   0.00000  -0.01508  -0.01439  -0.84175
   D16       -1.26922   0.00110   0.00000   0.01235   0.01168  -1.25753
   D17        2.92394   0.00079   0.00000   0.01782   0.01710   2.94104
   D18        0.82736   0.00095   0.00000   0.01509   0.01439   0.84175
   D19       -1.92797  -0.00114   0.00000   0.15217   0.15197  -1.77600
   D20        2.39665  -0.00463   0.00000   0.11743   0.11793   2.51458
   D21        0.05828   0.00070   0.00000   0.17993   0.17953   0.23781
   D22        2.04080   0.00221   0.00000   0.17382   0.17362   2.21443
   D23        0.08224  -0.00127   0.00000   0.13907   0.13958   0.22182
   D24       -2.25613   0.00406   0.00000   0.20158   0.20119  -2.05494
   D25        0.04581   0.00030   0.00000   0.13404   0.13383   0.17963
   D26       -1.91276  -0.00319   0.00000   0.09929   0.09979  -1.81297
   D27        2.03205   0.00214   0.00000   0.16180   0.16140   2.19345
   D28       -2.39665   0.00463   0.00000  -0.11743  -0.11793  -2.51458
   D29       -0.05828  -0.00070   0.00000  -0.17993  -0.17953  -0.23781
   D30        1.92797   0.00114   0.00000  -0.15217  -0.15197   1.77600
   D31       -0.08224   0.00127   0.00000  -0.13908  -0.13959  -0.22182
   D32        2.25613  -0.00406   0.00000  -0.20158  -0.20119   2.05494
   D33       -2.04080  -0.00221   0.00000  -0.17382  -0.17362  -2.21443
   D34        1.91276   0.00319   0.00000  -0.09929  -0.09979   1.81297
   D35       -2.03206  -0.00214   0.00000  -0.16179  -0.16139  -2.19345
   D36       -0.04581  -0.00030   0.00000  -0.13404  -0.13383  -0.17963
   D37       -0.04891  -0.00031   0.00000  -0.14304  -0.14247  -0.19138
   D38        1.97974   0.00317   0.00000  -0.13161  -0.13210   1.84764
   D39       -2.08879  -0.00402   0.00000  -0.19238  -0.19140  -2.28019
   D40        0.04891   0.00031   0.00000   0.14304   0.14247   0.19138
   D41       -1.97974  -0.00317   0.00000   0.13161   0.13210  -1.84764
   D42        2.08879   0.00402   0.00000   0.19238   0.19140   2.28019
         Item               Value     Threshold  Converged?
 Maximum Force            0.023087     0.000450     NO 
 RMS     Force            0.006604     0.000300     NO 
 Maximum Displacement     0.318086     0.001800     NO 
 RMS     Displacement     0.079392     0.001200     NO 
 Predicted change in Energy=-7.521818D-03
 Lowest energy point so far.  Saving SCF results.
 GradGradGradGradGradGradGradGradGradGradGradGradGradGradGradGradGradGrad

 Leave Link  103 at Tue Apr 12 17:53:49 2022, MaxMem=  1073741824 cpu:               0.2 elap:               0.1
 (Enter /home/saurabh/gaussian/g16/l202.exe)
                          Input orientation:                          
 ---------------------------------------------------------------------
 Center     Atomic      Atomic             Coordinates (Angstroms)
 Number     Number       Type             X           Y           Z
 ---------------------------------------------------------------------
      1          6           0       -3.863340    2.143898    0.803172
      2          6           0       -3.622635    0.951692   -0.118298
      3          6           0       -4.850637    0.625847   -0.955970
      4          6           0       -2.945168   -0.233442    0.603492
      5          6           0       -2.277426    1.041194   -0.871216
      6          1           0       -4.116004    3.036188    0.226490
      7          1           0       -2.975438    2.365341    1.396610
      8          1           0       -4.688240    1.943860    1.490274
      9          1           0       -2.306830    0.648157   -1.892281
     10          1           0       -1.769724    2.006902   -0.855527
     11          1           0       -5.134084    1.476141   -1.580277
     12          1           0       -5.705108    0.386126   -0.319169
     13          1           0       -4.670775   -0.226767   -1.611469
     14          8           0       -1.663605    0.100199    0.032771
     15          1           0       -3.284479   -1.218054    0.266860
     16          1           0       -2.924053   -0.196568    1.693811
 ---------------------------------------------------------------------
                    Distance matrix (angstroms):
                    1          2          3          4          5
     1  C    0.000000
     2  C    1.525910   0.000000
     3  C    2.524641   1.521794   0.000000
     4  C    2.556297   1.544178   2.607894   0.000000
     5  C    2.556298   1.544178   2.607894   2.060423   0.000000
     6  H    1.092054   2.169658   2.783458   3.493346   2.926659
     7  H    1.090677   2.170764   3.475175   2.717283   2.717283
     8  H    1.092054   2.169658   2.783458   2.926658   3.493346
     9  H    3.453322   2.229460   2.710744   2.722788   1.094493
    10  H    2.674562   2.256160   3.377785   2.920539   1.091146
    11  H    2.782359   2.167235   1.092292   3.533112   2.975306
    12  H    2.782359   2.167235   1.092292   2.975305   3.533111
    13  H    3.478864   2.171847   1.090404   2.807814   2.807814
    14  O    3.099848   2.141416   3.378030   1.442027   1.442027
    15  H    3.453322   2.229461   2.710744   1.094493   2.722788
    16  H    2.674562   2.256160   3.377785   1.091146   2.920539
                    6          7          8          9         10
     6  H    0.000000
     7  H    1.766383   0.000000
     8  H    1.765724   1.766383   0.000000
     9  H    3.669468   3.769955   4.334932   0.000000
    10  H    2.781227   2.579603   3.744929   1.791516   0.000000
    11  H    2.595119   3.783159   3.137806   2.962477   3.482225
    12  H    3.137806   3.783159   2.595119   3.753883   4.289737
    13  H    3.785860   4.317607   3.785860   2.536254   3.738559
    14  O    3.830381   2.951582   3.830381   2.102337   2.106146
    15  H    4.334932   3.769956   3.669467   3.016692   3.735583
    16  H    3.744929   2.579602   2.781226   3.735583   3.561865
                   11         12         13         14         15
    11  H    0.000000
    12  H    1.761986   0.000000
    13  H    1.765084   1.765084   0.000000
    14  O    4.066862   4.066862   3.442892   0.000000
    15  H    3.753883   2.962477   2.536255   2.102338   0.000000
    16  H    4.289738   3.482225   3.738560   2.106147   1.791516
                   16
    16  H    0.000000
 Stoichiometry    C5H10O
 Framework group  C1[X(C5H10O)]
 Deg. of freedom    42
 Full point group                 C1      NOp   1
 RotChk:  IX=0 Diff= 1.40D-01
 Largest Abelian subgroup         C1      NOp   1
 Largest concise Abelian subgroup C1      NOp   1
                         Standard orientation:                         
 ---------------------------------------------------------------------
 Center     Atomic      Atomic             Coordinates (Angstroms)
 Number     Number       Type             X           Y           Z
 ---------------------------------------------------------------------
      1          6           0       -1.040594    1.377063   -0.000000
      2          6           0       -0.400524   -0.008112   -0.000000
      3          6           0       -1.444870   -1.114999    0.000000
      4          6           0        0.742452   -0.137554    1.030212
      5          6           0        0.742453   -0.137555   -1.030211
      6          1           0       -1.668319    1.515260   -0.882862
      7          1           0       -0.280576    2.159335   -0.000001
      8          1           0       -1.668319    1.515261    0.882862
      9          1           0        0.807462   -1.119938   -1.508346
     10          1           0        0.817884    0.650688   -1.780933
     11          1           0       -2.086879   -1.045881   -0.880993
     12          1           0       -2.086879   -1.045881    0.880993
     13          1           0       -0.979844   -2.101270    0.000000
     14          8           0        1.740827    0.008577   -0.000000
     15          1           0        0.807462   -1.119937    1.508347
     16          1           0        0.817884    0.650690    1.780932
 ---------------------------------------------------------------------
 Rotational constants (GHZ):           5.2057827           3.1782888           2.8565861
 Leave Link  202 at Tue Apr 12 17:53:49 2022, MaxMem=  1073741824 cpu:               0.1 elap:               0.0
 (Enter /home/saurabh/gaussian/g16/l301.exe)
 Standard basis: CC-pVTZ (5D, 7F)
 Ernie: Thresh=  0.10000D-02 Tol=  0.10000D-05 Strict=F.
 Ernie:  18 primitive shells out of 236 were deleted.
 There are   360 symmetry adapted cartesian basis functions of A   symmetry.
 There are   320 symmetry adapted basis functions of A   symmetry.
   320 basis functions,   482 primitive gaussians,   360 cartesian basis functions
    24 alpha electrons       24 beta electrons
       nuclear repulsion energy       257.3581640680 Hartrees.
 IExCor=  402 DFT=T Ex+Corr=B3LYP ExCW=0 ScaHFX=  0.200000
 ScaDFX=  0.800000  0.720000  1.000000  0.810000 ScalE2=  1.000000  1.000000
 IRadAn=      5 IRanWt=     -1 IRanGd=            0 ICorTp=0 IEmpDi=  4
 NAtoms=   16 NActive=   16 NUniq=   16 SFac= 1.00D+00 NAtFMM=   60 NAOKFM=F Big=F
 Integral buffers will be    131072 words long.
 Raffenetti 2 integral format.
 Two-electron integral symmetry is turned on.
 Leave Link  301 at Tue Apr 12 17:53:49 2022, MaxMem=  1073741824 cpu:               0.5 elap:               0.1
 (Enter /home/saurabh/gaussian/g16/l302.exe)
 NPDir=0 NMtPBC=     1 NCelOv=     1 NCel=       1 NClECP=     1 NCelD=      1
         NCelK=      1 NCelE2=     1 NClLst=     1 CellRange=     0.0.
 One-electron integrals computed using PRISM.
 One-electron integral symmetry used in STVInt
 NBasis=   320 RedAO= T EigKep=  4.07D-04  NBF=   320
 NBsUse=   320 1.00D-06 EigRej= -1.00D+00 NBFU=   320
 Precomputing XC quadrature grid using
 IXCGrd= 4 IRadAn=           5 IRanWt=          -1 IRanGd=           0 AccXCQ= 0.00D+00.
 Generated NRdTot=       0 NPtTot=           0 NUsed=           0 NTot=          32
 NSgBfM=   360   360   360   360   360 MxSgAt=    16 MxSgA2=    16.
 Leave Link  302 at Tue Apr 12 17:53:49 2022, MaxMem=  1073741824 cpu:               2.2 elap:               0.3
 (Enter /home/saurabh/gaussian/g16/l303.exe)
 DipDrv:  MaxL=1.
 Leave Link  303 at Tue Apr 12 17:53:49 2022, MaxMem=  1073741824 cpu:               0.3 elap:               0.1
 (Enter /home/saurabh/gaussian/g16/l401.exe)
 Initial guess from the checkpoint file:  "Mol_04.chk"
 B after Tr=     0.000000   -0.000000    0.000000
         Rot=    0.999243    0.000000   -0.000000    0.038901 Ang=   4.46 deg.
 Guess basis will be translated and rotated to current coordinates.
 JPrj=2 DoOrth=T DoCkMO=T.
 Generating alternative initial guess.
 ExpMin= 1.03D-01 ExpMax= 1.53D+04 ExpMxC= 5.22D+02 IAcc=3 IRadAn=         5 AccDes= 0.00D+00
 Harris functional with IExCor=  402 and IRadAn=       5 diagonalized for initial guess.
 HarFok:  IExCor=  402 AccDes= 0.00D+00 IRadAn=         5 IDoV= 1 UseB2=F ITyADJ=14
 ICtDFT=  3500011 ScaDFX=  1.000000  1.000000  1.000000  1.000000
 FoFCou: FMM=F IPFlag=           0 FMFlag=      100000 FMFlg1=           0
         NFxFlg=           0 DoJE=T BraDBF=F KetDBF=T FulRan=T
         wScrn=  0.000000 ICntrl=       500 IOpCl=  0 I1Cent=   200000004 NGrid=           0
         NMat0=    1 NMatS0=      1 NMatT0=    0 NMatD0=    1 NMtDS0=    0 NMtDT0=    0
 Petite list used in FoFCou.
 Harris En= -271.889680020490    
 Leave Link  401 at Tue Apr 12 17:53:51 2022, MaxMem=  1073741824 cpu:               9.3 elap:               1.2
 (Enter /home/saurabh/gaussian/g16/l502.exe)
 Integral symmetry usage will be decided dynamically.
 Closed shell SCF:
 Using DIIS extrapolation, IDIIS=  1040.
 NGot=  1073741824 LenX=  1073476114 LenY=  1073346073
 Requested convergence on RMS density matrix=1.00D-08 within1000 cycles.
 Requested convergence on MAX density matrix=1.00D-06.
 Requested convergence on             energy=1.00D-06.
 No special actions if energy rises.
 Fock matrices will be formed incrementally for  20 cycles.
 Integral accuracy reduced to 1.0D-05 until final iterations.

 Cycle   1  Pass 0  IDiag  1:
 FoFJK:  IHMeth= 1 ICntrl=       0 DoSepK=F KAlg= 0 I1Cent=           0 FoldK=F
 IRaf= 990000000 NMat=       1 IRICut=       1 DoRegI=T DoRafI=F ISym2E= 0 IDoP0=0 IntGTp=1.
 FoFCou: FMM=F IPFlag=           0 FMFlag=      100000 FMFlg1=           0
         NFxFlg=           0 DoJE=F BraDBF=F KetDBF=F FulRan=T
         wScrn=  0.000000 ICntrl=         0 IOpCl=  0 I1Cent=           0 NGrid=           0
         NMat0=    1 NMatS0=      1 NMatT0=    0 NMatD0=    1 NMtDS0=    0 NMtDT0=    0
 Symmetry not used in FoFCou.
 E= -271.819931666774    
 DIIS: error= 6.16D-03 at cycle   1 NSaved=   1.
 NSaved= 1 IEnMin= 1 EnMin= -271.819931666774     IErMin= 1 ErrMin= 6.16D-03
 ErrMax= 6.16D-03  0.00D+00 EMaxC= 1.00D-01 BMatC= 1.50D-02 BMatP= 1.50D-02
 IDIUse=3 WtCom= 9.38D-01 WtEn= 6.16D-02
 Coeff-Com:  0.100D+01
 Coeff-En:   0.100D+01
 Coeff:      0.100D+01
 Gap=     0.745 Goal=   None    Shift=    0.000
 GapD=    0.745 DampG=2.000 DampE=1.000 DampFc=2.0000 IDamp=-1.
 RMSDP=5.02D-04 MaxDP=1.49D-02              OVMax= 4.43D-02

 Cycle   2  Pass 0  IDiag  1:
 RMSU=  5.01D-04    CP:  9.97D-01
 E= -271.839588271419     Delta-E=       -0.019656604646 Rises=F Damp=F
 DIIS: error= 2.14D-03 at cycle   2 NSaved=   2.
 NSaved= 2 IEnMin= 2 EnMin= -271.839588271419     IErMin= 2 ErrMin= 2.14D-03
 ErrMax= 2.14D-03  0.00D+00 EMaxC= 1.00D-01 BMatC= 7.98D-04 BMatP= 1.50D-02
 IDIUse=3 WtCom= 9.79D-01 WtEn= 2.14D-02
 Coeff-Com:  0.136D-01 0.986D+00
 Coeff-En:   0.000D+00 0.100D+01
 Coeff:      0.133D-01 0.987D+00
 Gap=     0.288 Goal=   None    Shift=    0.000
 RMSDP=1.53D-04 MaxDP=4.65D-03 DE=-1.97D-02 OVMax= 1.23D-02

 Cycle   3  Pass 0  IDiag  1:
 RMSU=  1.50D-04    CP:  9.96D-01  1.05D+00
 E= -271.839056732696     Delta-E=        0.000531538723 Rises=F Damp=F
 DIIS: error= 3.44D-03 at cycle   3 NSaved=   3.
 NSaved= 3 IEnMin= 2 EnMin= -271.839588271419     IErMin= 2 ErrMin= 2.14D-03
 ErrMax= 3.44D-03  0.00D+00 EMaxC= 1.00D-01 BMatC= 1.69D-03 BMatP= 7.98D-04
 IDIUse=3 WtCom= 1.46D-01 WtEn= 8.54D-01
 Coeff-Com: -0.411D-01 0.622D+00 0.419D+00
 Coeff-En:   0.000D+00 0.637D+00 0.363D+00
 Coeff:     -0.599D-02 0.635D+00 0.371D+00
 Gap=     0.279 Goal=   None    Shift=    0.000
 RMSDP=9.29D-05 MaxDP=3.05D-03 DE= 5.32D-04 OVMax= 7.76D-03

 Cycle   4  Pass 0  IDiag  1:
 RMSU=  3.05D-05    CP:  9.97D-01  1.07D+00  4.23D-01
 E= -271.840248038114     Delta-E=       -0.001191305417 Rises=F Damp=F
 DIIS: error= 2.13D-04 at cycle   4 NSaved=   4.
 NSaved= 4 IEnMin= 4 EnMin= -271.840248038114     IErMin= 4 ErrMin= 2.13D-04
 ErrMax= 2.13D-04  0.00D+00 EMaxC= 1.00D-01 BMatC= 1.24D-05 BMatP= 7.98D-04
 IDIUse=3 WtCom= 9.98D-01 WtEn= 2.13D-03
 Coeff-Com: -0.155D-01 0.185D+00 0.118D+00 0.712D+00
 Coeff-En:   0.000D+00 0.000D+00 0.000D+00 0.100D+01
 Coeff:     -0.154D-01 0.185D+00 0.118D+00 0.713D+00
 Gap=     0.279 Goal=   None    Shift=    0.000
 RMSDP=1.08D-05 MaxDP=4.21D-04 DE=-1.19D-03 OVMax= 1.13D-03

 Cycle   5  Pass 0  IDiag  1:
 RMSU=  9.83D-06    CP:  9.97D-01  1.07D+00  4.42D-01  9.75D-01
 E= -271.840256136014     Delta-E=       -0.000008097901 Rises=F Damp=F
 DIIS: error= 1.19D-04 at cycle   5 NSaved=   5.
 NSaved= 5 IEnMin= 5 EnMin= -271.840256136014     IErMin= 5 ErrMin= 1.19D-04
 ErrMax= 1.19D-04  0.00D+00 EMaxC= 1.00D-01 BMatC= 3.90D-06 BMatP= 1.24D-05
 IDIUse=3 WtCom= 9.99D-01 WtEn= 1.19D-03
 Coeff-Com: -0.276D-02 0.189D-01 0.114D-01 0.365D+00 0.608D+00
 Coeff-En:   0.000D+00 0.000D+00 0.000D+00 0.201D+00 0.799D+00
 Coeff:     -0.276D-02 0.189D-01 0.114D-01 0.364D+00 0.608D+00
 Gap=     0.279 Goal=   None    Shift=    0.000
 RMSDP=3.44D-06 MaxDP=1.66D-04 DE=-8.10D-06 OVMax= 4.69D-04

 Initial convergence to 1.0D-05 achieved.  Increase integral accuracy.
 Cycle   6  Pass 1  IDiag  1:
 E= -271.840252438298     Delta-E=        0.000003697716 Rises=F Damp=F
 DIIS: error= 4.27D-05 at cycle   1 NSaved=   1.
 NSaved= 1 IEnMin= 1 EnMin= -271.840252438298     IErMin= 1 ErrMin= 4.27D-05
 ErrMax= 4.27D-05  0.00D+00 EMaxC= 1.00D-01 BMatC= 2.14D-07 BMatP= 2.14D-07
 IDIUse=1 WtCom= 1.00D+00 WtEn= 0.00D+00
 Coeff-Com:  0.100D+01
 Coeff:      0.100D+01
 Gap=     0.279 Goal=   None    Shift=    0.000
 RMSDP=3.44D-06 MaxDP=1.66D-04 DE= 3.70D-06 OVMax= 9.46D-05

 Cycle   7  Pass 1  IDiag  1:
 RMSU=  4.40D-06    CP:  1.00D+00
 E= -271.840252460679     Delta-E=       -0.000000022381 Rises=F Damp=F
 DIIS: error= 1.62D-05 at cycle   2 NSaved=   2.
 NSaved= 2 IEnMin= 2 EnMin= -271.840252460679     IErMin= 2 ErrMin= 1.62D-05
 ErrMax= 1.62D-05  0.00D+00 EMaxC= 1.00D-01 BMatC= 6.84D-08 BMatP= 2.14D-07
 IDIUse=1 WtCom= 1.00D+00 WtEn= 0.00D+00
 Coeff-Com:  0.314D+00 0.686D+00
 Coeff:      0.314D+00 0.686D+00
 Gap=     0.279 Goal=   None    Shift=    0.000
 RMSDP=9.46D-07 MaxDP=2.66D-05 DE=-2.24D-08 OVMax= 8.43D-05

 Cycle   8  Pass 1  IDiag  1:
 RMSU=  8.67D-07    CP:  1.00D+00  9.16D-01
 E= -271.840252500181     Delta-E=       -0.000000039502 Rises=F Damp=F
 DIIS: error= 1.09D-05 at cycle   3 NSaved=   3.
 NSaved= 3 IEnMin= 3 EnMin= -271.840252500181     IErMin= 3 ErrMin= 1.09D-05
 ErrMax= 1.09D-05  0.00D+00 EMaxC= 1.00D-01 BMatC= 2.88D-08 BMatP= 6.84D-08
 IDIUse=1 WtCom= 1.00D+00 WtEn= 0.00D+00
 Coeff-Com:  0.224D-01 0.393D+00 0.585D+00
 Coeff:      0.224D-01 0.393D+00 0.585D+00
 Gap=     0.279 Goal=   None    Shift=    0.000
 RMSDP=3.41D-07 MaxDP=1.01D-05 DE=-3.95D-08 OVMax= 3.25D-05

 Cycle   9  Pass 1  IDiag  1:
 RMSU=  1.57D-07    CP:  1.00D+00  9.48D-01  6.92D-01
 E= -271.840252524954     Delta-E=       -0.000000024773 Rises=F Damp=F
 DIIS: error= 2.41D-06 at cycle   4 NSaved=   4.
 NSaved= 4 IEnMin= 4 EnMin= -271.840252524954     IErMin= 4 ErrMin= 2.41D-06
 ErrMax= 2.41D-06  0.00D+00 EMaxC= 1.00D-01 BMatC= 9.99D-10 BMatP= 2.88D-08
[...]
     6         -0.54123207         -1.20586909          6.94756558
     6         -2.61023326         -1.96405437          8.79828266
     6         -0.03421821         -3.10462773          4.77834051
     6         -1.38111811          0.57090858          4.77834051
     1          1.44536686          1.29713458          9.51731999
     1          3.31260638          0.20636961          6.97643029
     1          2.59226319         -1.83261478          9.51731999
     1         -3.40663909          0.98151034          4.71731288
     1         -0.32443528          2.33559794          4.58867481
     1         -3.12840803         -0.38051213         10.01705300
     1         -1.98253735         -3.50746259         10.01705300
     1         -4.30986441         -2.58688403          7.81175705
     8         -0.66469034         -1.25111036          2.87595614
     1         -1.31484187         -4.72676586          4.71731288
     1          1.91249277         -3.76872375          4.58867481

 Electric dipole moment (dipole orientation):
 (Debye = 10**-18 statcoulomb cm , SI units = C m)
                  (au)            (Debye)         (10**-30 SI)
   Tot        0.774537D+00      0.196868D+01      0.656680D+01
   x          0.000000D+00      0.000000D+00      0.000000D+00
   y          0.000000D+00      0.000000D+00      0.000000D+00
   z          0.774537D+00      0.196868D+01      0.656680D+01

 Dipole polarizability, Alpha (dipole orientation).
 (esu units = cm**3 , SI units = C**2 m**2 J**-1)
 Alpha(0;0):
               (au)            (10**-24 esu)      (10**-40 SI)
   iso        0.617801D+02      0.915487D+01      0.101862D+02
   aniso      0.153106D+01      0.226879D+00      0.252437D+00
   xx         0.610553D+02      0.904746D+01      0.100667D+02
   yx        -0.560858D+00     -0.831105D-01     -0.924729D-01
   yy         0.623803D+02      0.924380D+01      0.102851D+02
   zx         0.119654D+00      0.177309D-01      0.197283D-01
   zy         0.438473D-01      0.649750D-02      0.722944D-02
   zz         0.619049D+02      0.917336D+01      0.102067D+02

 ----------------------------------------------------------------------
 Unable to Open any file for archive entry.
 1\1\GINC-MEDIAWIKI\Freq\RB3LYP\CC-pVTZ\C5H10O1\SAURABH\12-Apr-2022\0\\
 #P Geom=AllCheck Guess=TCheck SCRF=Check GenChk RB3LYP/CC-pVTZ Freq\\M
 ol_04\\0,1\C,-3.8816541376,2.1512649204,0.8012475535\C,-3.6160478268,0
 .9581114473,-0.1097662599\C,-4.8342207561,0.6160093398,-0.9570390069\C
 ,-2.9442240445,-0.2401176195,0.6058817241\C,-2.2728953694,1.0413655578
 ,-0.8767488915\H,-4.1404903074,3.038037288,0.2182817036\H,-3.004737097
 2,2.3900446431,1.404696412\H,-4.7121321878,1.9468438379,1.4807538494\H
 ,-2.3262753428,0.7703874244,-1.935454856\H,-1.7170706012,1.9768038399,
 -0.7727960549\H,-5.1209937769,1.4600083038,-1.5885229412\H,-5.69212444
 61,0.3697906925,-0.3271798063\H,-4.6394287069,-0.2381366326,-1.6071026
 141\O,-1.6943594145,-0.018406696,-0.0836687529\H,-3.368879517,-1.21981
 4632,0.3671383832\H,-2.8320116169,-0.1514802753,1.689553232\\Version=E
 S64L-G16RevC.01\State=1-A'\HF=-271.8404193\RMSD=2.205e-09\RMSF=4.790e-
 06\ZeroPoint=0.142063\Thermal=0.1488319\ETot=-271.6915874\HTot=-271.69
 06432\GTot=-271.7291153\Dipole=-0.6980074,0.3346248,-0.0268282\DipoleD
 eriv=0.0746897,-0.0042337,-0.0238396,-0.0033313,0.0549919,-0.0570555,-
 0.0230596,-0.0574641,0.0591486,0.1311336,-0.0158633,0.0599539,-0.01284
 06,0.0755653,0.0867738,0.0625665,0.0854052,0.0705925,0.0498639,-0.0099
 632,-0.0373217,-0.0177196,0.0732334,-0.0426286,-0.0440258,-0.0391165,0
 .0595261,0.4074909,0.2248997,-0.2366567,0.1189357,0.3082732,-0.0509161
 ,-0.146308,-0.083397,0.4546682,0.1774263,-0.0398159,0.1082327,0.052659
 3,0.5147613,-0.2160894,0.0062253,-0.1775009,0.4782446,0.0470348,0.0498
 287,-0.0141912,0.0613847,-0.1017455,0.051635,-0.0282473,0.1119141,-0.0
 182336,-0.0771834,-0.050111,-0.1048262,-0.0129021,0.0327509,-0.0282446
 ,-0.0726654,-0.0450926,-0.0132077,-0.0721327,-0.0045416,0.1176894,-0.0
 446692,0.0262481,0.0352178,0.1070501,-0.0121241,-0.0270597,0.0272681,0
 .0081262,-0.026711,0.00786,-0.0052243,-0.0611621,0.013769,-0.0030936,-
 0.225199,-0.0384673,-0.0924573,0.0058596,-0.1106533,-0.1605933,0.03795
 96,-0.0266481,-0.0178922,0.0178499,0.0182353,0.0171515,-0.0314331,0.06
 07192,-0.0749896,0.1132204,-0.0654323,0.0815494,-0.0127163,-0.0998066,
 -0.032149,0.055301,-0.046495,0.056365,0.0179321,0.1145573,0.0363717,-0
 .026029,0.0294851,0.0462604,0.0264399,0.0085769,-0.0727153,-0.110306,-
 0.0061312,-0.0932431,-0.023971,-0.6518952,0.0072952,0.0954566,0.037324
 ,-0.5737933,0.2545844,0.1214113,0.2409875,-0.5855181,-0.0301434,-0.097
 7559,0.0202424,-0.0888542,-0.1827589,0.0000265,-0.0127735,-0.0619522,0
 .009747,0.0070008,-0.0066709,-0.0141961,-0.0099943,0.0296309,-0.030947
 4,-0.0002883,0.0346483,-0.2178425\Polar=61.8229321,-0.1222975,61.78333
 47,-0.4511202,-0.748955,61.7341712\Quadrupole=-2.2941169,0.6471653,1.6
 469516,1.9493299,-0.3748668,-0.5068854\PG=CS [SG(C3H2O1),X(C2H8)]\NIma
 g=0\\0.56787106,0.01581599,0.49832492,0.01669867,-0.04716857,0.5279746
 3,-0.08074919,0.01214998,0.00977069,0.52804320,0.01326613,-0.14115828,
 -0.04760181,-0.03518066,0.47167439,0.01073541,-0.04810720,-0.11585455,
 0.02431491,0.03980778,0.45260494,0.00416381,-0.00240793,-0.00070602,-0
 .14425898,-0.02088152,-0.04625637,0.49627714,-0.02334020,-0.00956235,-
 0.01980713,-0.02045127,-0.08493501,-0.01182997,-0.02074312,0.56367556,
 -0.01879842,-0.01032909,-0.01631299,-0.04588449,-0.01202479,-0.1131316
 2,-0.04621888,-0.00513991,0.53338529,-0.00315396,0.00525510,0.00153246
 ,-0.06046156,0.03808041,-0.04305820,-0.01088663,0.01735438,-0.01378139
 ,0.38349851,0.00728435,-0.02745981,0.01213504,0.01682794,-0.12574363,0
 .02774414,0.00194658,0.00876265,-0.00241135,0.07082021,0.54746890,0.00
 544510,-0.01332211,0.01230171,-0.02442992,0.01931267,-0.08891177,-0.00
 607613,0.01487808,-0.01384678,0.02945663,0.00857795,0.58932917,-0.0049
 2953,0.00508116,0.00656426,-0.12795711,-0.02910987,0.05079626,-0.02407
 400,-0.00557017,0.00988240,-0.01002233,-0.02056299,0.02930899,0.427692
 63,0.02040555,0.00372475,-0.01472346,-0.00922388,-0.05779043,-0.020108
 64,-0.00714568,-0.00430124,0.00724544,-0.01442236,-0.03411590,0.049282
 17,0.10665810,0.52325423,0.01765092,0.00287604,-0.01710728,0.03098689,
 -0.01105844,-0.08936941,-0.01250205,-0.00235402,0.01240448,0.02238412,
 0.04962506,-0.04604835,-0.01482147,0.03122014,0.56934972,-0.06153774,0
 .04792145,-0.03312933,-0.00289858,0.00524026,-0.00315530,0.00007593,-0
 .00068566,0.00008553,0.00119277,0.00144860,0.00075488,0.00068722,0.000
 44733,-0.00095152,0.06202729,0.04785951,-0.21181642,0.11193009,0.00677
 054,-0.02280726,0.01490156,0.00049569,0.00089960,0.00145974,-0.0021692
 1,-0.00234289,-0.00398843,-0.00016352,0.00006913,0.00079084,-0.0546221
 7,0.23330523,-0.03304028,0.11280854,-0.12398041,0.00464428,-0.01712233
 ,0.01104062,0.00051699,0.00008515,0.00118593,0.00012457,-0.00343058,-0
 .00240079,-0.00069043,0.00060579,0.00116242,0.03627310,-0.12210922,0.1
 3275740,-0.21862131,-0.04421490,-0.11567827,0.00422045,0.00144876,0.00
 392970,0.00076581,0.00066212,0.00079036,0.00065061,0.00045824,-0.00049
 710,0.00052123,-0.00002581,0.00079527,-0.00575421,-0.00110504,-0.00296
 524,0.23574362,-0.04217207,-0.05824359,-0.02834124,-0.02150934,-0.0067
 6177,-0.01412062,0.00207009,-0.00412573,-0.00287432,-0.00123157,0.0007
 6505,-0.00090601,-0.00089510,0.00095478,0.00027243,0.02190647,0.006328
 28,0.01372262,0.04736130,0.06288481,-0.11391259,-0.02926623,-0.1244212
 2,-0.01591370,-0.00372529,-0.01211832,0.00200731,-0.00351184,-0.001842
 28,-0.00046721,0.00093548,0.00049325,-0.00144652,-0.00041031,0.0004329
 1,-0.01384717,-0.00394277,-0.00987832,0.12637536,0.03513128,0.13463751
 ,-0.19552850,-0.03943602,0.11966740,-0.00594517,-0.00056698,0.00348998
 ,0.00044085,-0.00021424,-0.00071800,-0.00026128,-0.00044210,0.00068390
 ,0.00178151,0.00032374,0.00127679,0.00663465,0.00098067,-0.00547054,-0
 .01926819,-0.00519026,0.01651544,0.21140253,-0.03976621,-0.05760110,0.
 03224929,0.02123358,0.00481679,-0.01719878,0.00083452,0.00111659,0.000
 71599,-0.00014004,0.00187232,-0.00013787,-0.00058200,-0.00360560,-0.00
 401552,-0.02078226,-0.00503877,0.01535174,-0.00431371,-0.00227861,0.00
 413036,0.04273618,0.06070067,0.11923943,0.03154839,-0.14420497,0.01585
 597,0.00426101,-0.01353683,0.00077809,0.00108081,0.00060404,0.00015591
 ,0.00018700,0.00030774,-0.00200275,-0.00252512,-0.00172683,0.01337370,
 0.00325959,-0.01115937,-0.01349842,-0.00351240,0.01224256,-0.13393371,
 -0.03229946,0.15598672,-0.00328208,-0.00195858,0.00240085,0.00281356,0
 .00879602,0.02398705,0.00216452,0.00114835,0.00051867,-0.00354686,-0.0
 0107929,-0.00049842,-0.05308000,-0.00625134,-0.00676569,-0.00004000,0.
 00011192,-0.00014717,0.00010454,-0.00007989,0.00007621,-0.00041974,0.0
 0132516,0.00090930,0.05009500,0.00083663,0.00009397,-0.00078068,-0.002
 15166,-0.00050255,-0.00072425,-0.00066117,0.00106237,0.00014340,0.0026
 8532,-0.00057086,0.00067603,-0.00506948,-0.07302087,-0.07404227,-0.000
 07804,0.00003281,-0.00000816,0.00012717,0.00016651,0.00042989,0.000459
 51,-0.00018350,-0.00004726,0.00348079,0.07544776,0.00146502,0.00164322
 ,-0.00075965,-0.00033259,-0.00486950,-0.00857814,-0.00157748,-0.001137
 92,0.00082681,-0.00271355,-0.00059110,-0.00056220,-0.00857816,-0.07121
 296,-0.27351449,-0.00000464,-0.00014955,0.00006197,-0.00009009,0.00013
 672,0.00020631,0.00022703,-0.00039357,-0.00041954,0.01370661,0.0676281
 7,0.30287944,0.00175712,-0.00099388,-0.00216050,-0.01023389,-0.0206293
 1,-0.00558016,-0.00223511,-0.00103269,0.00325090,-0.00253493,0.0016316
 2,0.00177003,-0.12299227,-0.11302573,-0.01617289,-0.00035054,0.0006089
 2,-0.00006688,0.00034021,0.00036505,0.00071882,0.00040647,0.00004395,-
 0.00019206,0.00185366,-0.00180128,0.00077206,0.12154048,0.00030475,0.0
 0091772,-0.00086341,0.00066662,0.00402649,0.00040261,0.00048498,0.0000
 3958,0.00031123,0.00257045,-0.00235310,-0.00203717,-0.10895305,-0.2236
 6721,-0.03079866,-0.00034311,0.00038294,0.00044895,0.00007725,0.000239
 24,0.00051510,0.00017228,0.00015138,0.00004414,-0.00736151,-0.00558636
 ,-0.00319299,0.11946048,0.25020842,0.00042522,0.00031509,0.00159016,0.
 00719185,0.00935263,0.00107246,0.00030937,0.00017094,-0.00127671,-0.00
 056134,0.00185311,-0.00123973,-0.01886820,-0.03244957,-0.05663074,0.00
 003759,-0.00031068,0.00004088,-0.00001091,0.00011737,-0.00032730,-0.00
 023117,0.00003055,0.00010470,-0.01622630,-0.02635096,-0.00275292,0.018
 21883,0.02431795,0.05865998,0.00077186,0.00101170,0.00099019,-0.007996
 92,0.02262442,-0.01656894,-0.06266978,0.04968819,-0.03637579,-0.001949
 10,-0.00300449,-0.00387058,0.00114354,0.00078569,-0.00022060,0.0003197
 9,-0.00066188,-0.00003060,-0.00003661,-0.00004073,0.00034362,0.0000348
 4,-0.00018239,0.00001526,-0.00015381,-0.00000438,0.00067346,-0.0000430
 3,-0.00006570,0.00001321,0.06732464,-0.00012594,0.00086344,-0.00024545
 ,-0.00114098,0.00565440,-0.00511931,0.04995195,-0.20322880,0.11419144,
 -0.00195595,0.00018541,-0.00089000,0.00063936,0.00008918,0.00061944,-0
 .00013947,0.00027012,0.00012948,0.00007082,0.00021565,0.00007867,0.000
 01979,-0.00005244,-0.00005904,0.00030703,-0.00009359,-0.00007729,0.000
 15309,-0.00000725,-0.00008977,-0.05491690,0.21954095,0.00053070,0.0011
 9324,0.00053309,-0.00454723,0.01515144,-0.01196191,-0.03660001,0.11353
 937,-0.13113746,-0.00094208,-0.00288872,-0.00091388,-0.00020962,0.0001
 9688,0.00024441,-0.00007188,-0.00089718,-0.00004714,0.00012610,-0.0002
 4099,0.00037269,-0.00006532,-0.00001109,-0.00009039,-0.00026941,-0.000
 08448,0.00023765,-0.00020905,-0.00007943,0.00009357,0.04363858,-0.1260
 9627,0.14097130,0.00083569,0.00087150,0.00128414,-0.02306454,-0.006181
 61,0.01675318,-0.20066765,-0.04449388,0.11675078,0.00001964,-0.0003356
 5,0.00086144,-0.00087271,-0.00317748,-0.00383078,0.00004006,-0.0000312
 7,-0.00011835,0.00028483,0.00031101,-0.00021365,0.00059191,-0.00044280
 ,-0.00079742,0.00036917,0.00005489,-0.00022585,-0.00133029,0.00013725,
 0.00027393,0.00726264,0.00132508,-0.00506953,0.22133121,-0.00023074,0.
 00016321,0.00081618,-0.00552289,-0.00279378,0.00464454,-0.04438346,-0.
 06024762,0.03306561,-0.00013348,0.00056872,-0.00034636,0.00036879,0.00
 037064,-0.00141038,-0.00011991,-0.00004967,0.00001646,0.00026942,0.000
 09491,-0.00006857,0.00000974,-0.00001840,-0.00051664,-0.00002898,-0.00
 000663,0.00018964,-0.00001989,-0.00005306,0.00032689,-0.02054993,-0.00
 565366,0.01482152,0.05038948,0.06040431,-0.00019237,0.00039169,0.00116
 950,-0.01524034,-0.00516360,0.01155389,0.11729841,0.03354826,-0.136120
 76,0.00089872,0.00005092,0.00088877,-0.00278785,-0.00149218,-0.0021755
 1,0.00006038,-0.00008290,-0.00009839,0.00006434,0.00021941,0.00017200,
 0.00008653,0.00006857,-0.00003073,-0.00014316,0.00007559,0.00031216,-0
 .00061505,0.00019043,0.00043611,0.01417323,0.00324258,-0.01127133,-0.1
 2758475,-0.03625558,0.14610137,-0.00447524,-0.00068514,-0.00273054,0.0
 0414971,-0.02146221,-0.01588434,-0.05725507,0.04066064,0.03070931,0.00
 122166,-0.00056016,0.00001676,0.00122503,-0.00075764,-0.00071679,-0.00
 009790,0.00005098,0.00017790,0.00045257,-0.00126102,-0.00117156,0.0001
 1415,0.00009645,-0.00025502,-0.00017583,0.00000701,0.00049360,0.000187
 82,0.00013670,0.00016099,-0.00247219,0.00549369,0.00497711,-0.00471723
 ,0.02051572,0.01376637,0.06144428,-0.00213463,0.00072512,-0.00055358,0
 .00144228,-0.00676898,-0.00369503,0.03877771,-0.20650090,-0.11990512,0
 .00037910,0.00028488,0.00083509,0.00062535,0.00036569,-0.00109477,0.00
 005257,0.00048783,0.00017860,0.00009462,-0.00016130,-0.00064355,0.0001
 7577,0.00003717,-0.00002595,-0.00050220,0.00011037,0.00079867,0.000125
 45,0.00010999,0.00035757,0.00478767,-0.01916708,-0.01497626,-0.0009595
 3,0.00671791,0.00502951,-0.04248442,0.22314066,-0.00398338,0.00010275,
 -0.00146753,0.00391272,-0.01406609,-0.01212448,0.02908183,-0.11905253,
 -0.13719314,0.00027147,-0.00161015,0.00050998,0.00103568,0.00029897,0.
 00042580,0.00006812,-0.00020185,0.00016321,0.00000016,-0.00125738,-0.0
 0045388,-0.00007531,0.00031786,0.00040182,-0.00022776,0.00024288,0.000
 48639,0.00011578,0.00002002,0.00018284,-0.00365073,0.01480894,0.012296
 98,0.00322225,-0.01471211,-0.01134298,-0.03008792,0.13318334,0.1482867
 8,-0.00380775,0.00061075,-0.00248930,-0.08268536,0.03585005,0.00542553
 ,-0.00290830,0.00468440,0.00082612,-0.15936037,0.00294865,0.03380005,-
 0.08191483,0.02088161,-0.01512653,0.00008681,0.00117758,0.00010627,0.0
 0040353,0.00024206,0.00067739,0.00032839,0.00010930,0.00023454,0.00195
 333,0.00351112,-0.00505621,0.01228507,-0.00551699,0.00833222,-0.000636
 37,0.00025673,-0.00111876,-0.00002927,-0.00042336,-0.00016608,0.000202
 62,-0.00041582,0.00006820,0.33805662,0.00112770,0.00108753,-0.00101767
 ,0.03958454,-0.02317139,0.02057111,0.00313699,-0.00136224,-0.00339512,
 -0.03530130,-0.06030962,0.01201994,0.05813312,-0.12991973,0.03876658,-
 0.00045340,0.00104733,0.00001703,-0.00055931,-0.00003381,0.00026242,0.
 00053296,0.00001067,-0.00089805,0.00260417,0.00346673,0.01053493,0.015
 82143,-0.02390836,0.02154624,-0.00013669,0.00055346,-0.00023221,0.0016
 5330,0.00045996,0.00019252,-0.00006386,-0.00004430,0.00057392,-0.05586
 165,0.22501443,-0.00204249,-0.00125174,0.00084896,0.00865336,0.0188801
 5,-0.00599744,-0.00051137,-0.00269446,0.00164872,0.06818737,-0.0046618
 0,-0.08841981,-0.05037682,0.05590041,-0.09625524,0.00015955,-0.0008808
 0,0.00035837,-0.00001525,0.00062528,-0.00009689,-0.00086226,0.00054644
 ,0.00115345,-0.01733714,0.03216627,-0.01732411,0.00024114,0.00988393,0
 .00097853,0.00111547,-0.00046461,0.00087568,-0.00094543,-0.00033725,0.
 00036209,0.00037242,0.00041455,-0.00021482,-0.04719277,-0.12091873,0.2
 0976650,-0.00058481,0.00235321,-0.00181707,0.00743320,0.01348497,0.005
 31630,0.00134210,0.00014214,0.00051726,-0.07874364,-0.07525137,-0.0255
 3839,-0.00412762,0.00102964,-0.00315569,-0.00044858,0.00086511,0.00062
 671,0.00001095,-0.00002607,-0.00006318,-0.00004338,-0.00007222,0.00000
 613,0.00013160,-0.00009016,0.00037003,0.00121419,-0.00145152,0.0007430
 9,0.00010371,-0.00004895,0.00013642,0.00002241,-0.00008080,0.00030733,
 0.00007322,-0.00009728,-0.00002063,-0.02003834,-0.02847690,0.00474305,
 0.09125447,0.00046862,-0.00220617,0.00335159,-0.00639679,-0.01648840,-
 0.00751377,-0.00116409,0.00117837,-0.00221571,-0.07813993,-0.25070241,
 -0.05669247,-0.00025173,-0.00003548,-0.00035822,0.00040035,-0.00106952
 ,-0.00057760,-0.00003225,0.00030595,0.00012135,0.00011492,0.00006193,-
 0.00015591,-0.00001054,-0.00029390,0.00031093,-0.00047678,-0.00035762,
 0.00045595,-0.00017302,0.00048747,-0.00000648,0.00074317,-0.00004906,0
 .00010840,0.00029618,0.00052779,0.00104959,-0.00754439,0.00316664,0.00
 601921,0.09305192,0.26743094,-0.00009416,0.00051537,-0.00115677,0.0029
 8911,0.01059091,0.00278808,-0.00007962,0.00047640,0.00153323,-0.025201
 07,-0.05874900,-0.07016930,0.00120577,-0.00021549,-0.00051682,0.000159
 06,0.00037112,0.00049532,0.00027675,0.00032357,0.00016047,-0.00013883,
 -0.00001324,0.00003623,0.00016768,0.00010050,-0.00025874,-0.00013240,0
 .00057192,-0.00060687,0.00018436,-0.00010233,0.00008351,-0.00019252,-0
 .00013088,0.00001690,0.00003821,0.00008508,-0.00018009,0.01133864,0.01
 776174,0.00496766,0.02103922,0.05732548,0.06973680,0.00127059,-0.00137
 438,-0.00019765,-0.00040882,-0.00477885,-0.01424501,-0.00027463,0.0021
 9099,-0.00155437,-0.05566251,-0.00213014,-0.04118722,-0.00308076,0.003
 49825,0.00117002,0.00006303,-0.00016783,0.00005966,0.00018200,0.000150
 08,0.00032144,-0.00026903,-0.00009751,0.00011105,0.00121295,-0.0013062
 8,0.00087076,0.00013506,-0.00031887,0.00019162,-0.00100320,0.00011065,
 -0.00030603,-0.00007585,-0.00005970,0.00007429,0.00012239,0.00013335,0
 .00026951,-0.00193579,-0.00174110,0.03581116,0.00240053,-0.00088563,-0
 .01156021,0.05732405,0.00040054,0.00214706,0.00062080,0.00290198,0.002
 74940,0.02034582,-0.00031153,-0.00247083,0.00116254,-0.00365114,-0.056
 30971,-0.02726152,-0.00034797,-0.00237194,0.00096175,-0.00019301,0.000
 30124,-0.00011645,-0.00031867,-0.00035038,-0.00003602,0.00032403,0.000
 01090,-0.00034112,-0.00050111,-0.00012229,0.00038258,-0.00023041,-0.00
 014280,0.00035671,0.00083843,0.00034275,0.00061067,0.00013655,0.000092
 22,-0.00012361,0.00001707,0.00013514,0.00030184,-0.00051003,0.00394269
 ,0.00677314,-0.00533170,-0.00195653,-0.02891113,0.00677697,0.05400308,
 -0.00012679,-0.00194939,0.00084734,-0.00197151,-0.00172474,-0.00747553
 ,0.00053592,0.00174876,-0.00072677,-0.03628641,-0.02676600,-0.29131800
 ,0.00098845,-0.00161207,-0.00067507,0.00018793,-0.00014956,0.00029828,
 0.00039726,0.00070428,0.00042052,-0.00045193,0.00065872,0.00033141,-0.
 00015131,0.00057534,-0.00084096,0.00004142,0.00026536,-0.00032494,-0.0
 0043015,0.00007353,-0.00028679,-0.00016746,-0.00010306,0.00002691,0.00
 013352,0.00001184,0.00022312,0.01034068,0.00421535,-0.01265166,-0.0032
 1060,-0.00122235,-0.00692961,0.03017097,0.02527399,0.31908176\\0.00000
 029,0.00000282,0.00000257,0.00000705,-0.00000320,0.00000042,-0.0000027
 5,-0.00000152,-0.00000256,-0.00000715,-0.00000618,0.00000863,0.0000008
 3,0.00000906,-0.00000900,0.00000113,-0.00000504,0.00000345,-0.00000597
 ,-0.00000207,-0.00000449,0.00000451,0.00000142,-0.00000403,0.00000036,
 -0.00000266,0.00000825,-0.00000344,-0.00000758,0.00000445,0.00000157,-
 0.00000520,0.00000340,0.00000490,0.00000116,-0.00000396,-0.00000074,0.
 00000588,0.00000474,-0.00000816,0.00000303,-0.00000107,0.00000518,0.00
 000654,-0.00000239,0.00000239,0.00000354,-0.00000842\\\@
 The archive entry for this job was punched.


 Standing in the middle of the road is very dangerous;
 you get knocked down by the traffic from both sides.
                                -- Margaret Thatcher
 Job cpu time:       0 days  0 hours 34 minutes 29.1 seconds.
 Elapsed time:       0 days  0 hours  4 minutes 19.1 seconds.
 File lengths (MBytes):  RWF=    130 Int=      0 D2E=      0 Chk=      9 Scr=      1
 Normal termination of Gaussian 16 at Tue Apr 12 18:04:03 2022.
