 Entering Gaussian System, Link 0=g16
 Input=Mol_05.com
 Output=Mol_05.log
 Initial command:
 /home/saurabh/gaussian/g16/l1.exe "/home/saurabh/gaussian/gauss_scr/Gau-30671.inp" -scrdir="/home/saurabh/gaussian/gauss_scr/"
 Entering Link 1 = /home/saurabh/gaussian/g16/l1.exe PID=     30672.
  
 Copyright (c) 1988-2019, Gaussian, Inc.  All Rights Reserved.
  
 This is part of the Gaussian(R) 16 program.  It is based on
 the Gaussian(R) 09 system (copyright 2009, Gaussian, Inc.),
 the Gaussian(R) 03 system (copyright 2003, Gaussian, Inc.),
 the Gaussian(R) 98 system (copyright 1998, Gaussian, Inc.),
 the Gaussian(R) 94 system (copyright 1995, Gaussian, Inc.),
 the Gaussian 92(TM) system (copyright 1992, Gaussian, Inc.),
 the Gaussian 90(TM) system (copyright 1990, Gaussian, Inc.),
 the Gaussian 88(TM) system (copyright 1988, Gaussian, Inc.),
 the Gaussian 86(TM) system (copyright 1986, Carnegie Mellon
 University), and the Gaussian 82(TM) system (copyright 1983,
 Carnegie Mellon University). Gaussian is a federally registered
 trademark of Gaussian, Inc.
  
 This software contains proprietary and confidential information,
 including trade secrets, belonging to Gaussian, Inc.
  
 This software is provided under written license and may be
 used, copied, transmitted, or stored only in accord with that
 written license.
  
 The following legend is applicable only to US Government
 contracts under FAR:
  
                    RESTRICTED RIGHTS LEGEND
  
 Use, reproduction and disclosure by the US Government is
 subject to restrictions as set forth in subparagraphs (a)
 and (c) of the Commercial Computer Software - Restricted
 Rights clause in FAR 52.227-19.
  
 Gaussian, Inc.
 340 Quinnipiac St., Bldg. 40, Wallingford CT 06492
  
  
 ---------------------------------------------------------------
 Warning -- This program may not be used in any manner that
 competes with the business of Gaussian, Inc. or will provide
 assistance to any competitor of Gaussian, Inc.  The licensee
 of this program is prohibited from giving any competitor of
 Gaussian, Inc. access to this program.  By using this program,
 the user acknowledges that Gaussian, Inc. is engaged in the
 business of creating and licensing software in the field of
 computational chemistry and represents and warrants to the
 licensee that it is not a competitor of Gaussian, Inc. and that
 it will not use this program in any manner prohibited above.
 ---------------------------------------------------------------
  

 Cite this work as:
 Gaussian 16, Revision C.01,
 M. J. Frisch, G. W. Trucks, H. B. Schlegel, G. E. Scuseria, 
 M. A. Robb, J. R. Cheeseman, G. Scalmani, V. Barone, 
 G. A. Petersson, H. Nakatsuji, X. Li, M. Caricato, A. V. Marenich, 
 J. Bloino, B. G. Janesko, R. Gomperts, B. Mennucci, H. P. Hratchian, 
 J. V. Ortiz, A. F. Izmaylov, J. L. Sonnenberg, D. Williams-Young, 
 F. Ding, F. Lipparini, F. Egidi, J. Goings, B. Peng, A. Petrone, 
 T. Henderson, D. Ranasinghe, V. G. Zakrzewski, J. Gao, N. Rega, 
 G. Zheng, W. Liang, M. Hada, M. Ehara, K. Toyota, R. Fukuda, 
 J. Hasegawa, M. Ishida, T. Nakajima, Y. Honda, O. Kitao, H. Nakai, 
 T. Vreven, K. Throssell, J. A. Montgomery, Jr., J. E. Peralta, 
 F. Ogliaro, M. J. Bearpark, J. J. Heyd, E. N. Brothers, K. N. Kudin, 
 V. N. Staroverov, T. A. Keith, R. Kobayashi, J. Normand, 
 K. Raghavachari, A. P. Rendell, J. C. Burant, S. S. Iyengar, 
 J. Tomasi, M. Cossi, J. M. Millam, M. Klene, C. Adamo, R. Cammi, 
 J. W. Ochterski, R. L. Martin, K. Morokuma, O. Farkas, 
 J. B. Foresman, and D. J. Fox, Gaussian, Inc., Wallingford CT, 2019.
 
 ******************************************
 Gaussian 16:  ES64L-G16RevC.01  3-Jul-2019
                12-Apr-2022 
 ******************************************
 %mem=8gb
 %nproc=8
 Will use up to    8 processors via shared memory.
 %chk=Mol_05.chk
 ----------------------------------------------------------------------
 #p B3LYP/cc-PVTZ scf(verytight, maxcycles=1000) opt(calcfc, maxcyc=100
 0) freq(hpmodes) int(grid=ultrafine)
 ----------------------------------------------------------------------
 1/6=1000,10=4,18=20,19=15,26=4,38=1/1,3;
 2/9=110,12=2,17=6,18=5,40=1/2;
 3/5=16,6=1,11=2,25=1,30=1,71=2,74=-5,75=-5,140=1/1,2,3;
 4//1;
 5/5=2,7=1000,17=3,38=5/2;
 8/6=4,10=90,11=11/1;
 11/6=1,8=1,9=11,15=111,16=1/1,2,10;
 10/6=1,13=1/2;
 6/7=2,8=2,9=2,10=2,28=1/1;
 7/10=1,25=1/1,2,3,16;
 1/6=1000,10=4,18=20,19=15,26=4/3(2);
 2/9=110/2;
 99//99;
 2/9=110/2;
 3/5=16,6=1,11=2,25=1,30=1,71=1,74=-5,75=-5/1,2,3;
 4/5=5,16=3,69=1/1;
 5/5=2,7=1000,17=3,38=5/2;
 7//1,2,3,16;
 1/6=1000,18=20,19=15,26=4/3(-5);
 2/9=110/2;
 6/7=2,8=2,9=2,10=2,19=2,28=1/1;
 99/9=1/99;
 Leave Link    1 at Tue Apr 12 18:04:03 2022, MaxMem=  1073741824 cpu:               0.5 elap:               0.1
 (Enter /home/saurabh/gaussian/g16/l101.exe)
 ------
 Mol_05
 ------
 Symbolic Z-matrix:
 Charge =  0 Multiplicity = 1
 C                    -3.8525    2.14545   0.96295 
 C                    -3.71908   0.97655  -0.01897 
 C                    -4.87268   0.73883  -0.99927 
 C                    -2.8587   -0.20279   0.37912 
 C                    -2.34657   0.84778  -0.64025 
 H                    -4.01195   3.08892   0.39978 
 H                    -2.94803   2.26425   1.59796 
 H                    -4.72606   1.97134   1.62518 
 H                    -5.04977   1.65799  -1.59635 
 H                    -5.79476   0.49782  -0.43035 
 H                    -4.66199  -0.09895  -1.69867 
 H                    -1.46255   1.30444  -0.14613 
 H                    -2.20917   0.27499  -1.58218 
 H                    -3.33225  -1.13165  -0.00565 
 H                    -2.57644  -0.08956   1.44804 
 
 ITRead=  0  0  0  0  0  0  0  0  0  0  0  0  0  0  0
 MicOpt= -1 -1 -1 -1 -1 -1 -1 -1 -1 -1 -1 -1 -1 -1 -1
 NAtoms=     15 NQM=       15 NQMF=       0 NMMI=      0 NMMIF=      0
                NMic=       0 NMicF=      0.
                    Isotopes and Nuclear Properties:
 (Nuclear quadrupole moments (NQMom) in fm**2, nuclear magnetic moments (NMagM)
  in nuclear magnetons)

  Atom         1           2           3           4           5           6           7           8           9          10
 IAtWgt=          12          12          12          12          12           1           1           1           1           1
 AtmWgt=  12.0000000  12.0000000  12.0000000  12.0000000  12.0000000   1.0078250   1.0078250   1.0078250   1.0078250   1.0078250
 NucSpn=           0           0           0           0           0           1           1           1           1           1
 AtZEff=  -0.0000000  -0.0000000  -0.0000000  -0.0000000  -0.0000000  -0.0000000  -0.0000000  -0.0000000  -0.0000000  -0.0000000
 NQMom=    0.0000000   0.0000000   0.0000000   0.0000000   0.0000000   0.0000000   0.0000000   0.0000000   0.0000000   0.0000000
 NMagM=    0.0000000   0.0000000   0.0000000   0.0000000   0.0000000   2.7928460   2.7928460   2.7928460   2.7928460   2.7928460
 AtZNuc=   6.0000000   6.0000000   6.0000000   6.0000000   6.0000000   1.0000000   1.0000000   1.0000000   1.0000000   1.0000000

  Atom        11          12          13          14          15
 IAtWgt=           1           1           1           1           1
 AtmWgt=   1.0078250   1.0078250   1.0078250   1.0078250   1.0078250
 NucSpn=           1           1           1           1           1
 AtZEff=  -0.0000000  -0.0000000  -0.0000000  -0.0000000  -0.0000000
 NQMom=    0.0000000   0.0000000   0.0000000   0.0000000   0.0000000
 NMagM=    2.7928460   2.7928460   2.7928460   2.7928460   2.7928460
 AtZNuc=   1.0000000   1.0000000   1.0000000   1.0000000   1.0000000
 Leave Link  101 at Tue Apr 12 18:04:03 2022, MaxMem=  1073741824 cpu:               1.7 elap:               0.2
 (Enter /home/saurabh/gaussian/g16/l103.exe)

 GradGradGradGradGradGradGradGradGradGradGradGradGradGradGradGradGradGrad
 Berny optimization.
 Initialization pass.
                           ----------------------------
                           !    Initial Parameters    !
                           ! (Angstroms and Degrees)  !
 --------------------------                            --------------------------
 ! Name  Definition              Value          Derivative Info.                !
 --------------------------------------------------------------------------------
 ! R1    R(1,2)                  1.5324         calculate D2E/DX2 analytically  !
 ! R2    R(1,6)                  1.1103         calculate D2E/DX2 analytically  !
 ! R3    R(1,7)                  1.1115         calculate D2E/DX2 analytically  !
 ! R4    R(1,8)                  1.1099         calculate D2E/DX2 analytically  !
 ! R5    R(2,3)                  1.5324         calculate D2E/DX2 analytically  !
 ! R6    R(2,4)                  1.5131         calculate D2E/DX2 analytically  !
 ! R7    R(2,5)                  1.5121         calculate D2E/DX2 analytically  !
 ! R8    R(3,9)                  1.1103         calculate D2E/DX2 analytically  !
 ! R9    R(3,10)                 1.1099         calculate D2E/DX2 analytically  !
 ! R10   R(3,11)                 1.1115         calculate D2E/DX2 analytically  !
 ! R11   R(4,5)                  1.5508         calculate D2E/DX2 analytically  !
 ! R12   R(4,14)                 1.1113         calculate D2E/DX2 analytically  !
 ! R13   R(4,15)                 1.1113         calculate D2E/DX2 analytically  !
 ! R14   R(5,12)                 1.1109         calculate D2E/DX2 analytically  !
 ! R15   R(5,13)                 1.1109         calculate D2E/DX2 analytically  !
 ! A1    A(2,1,6)              109.6132         calculate D2E/DX2 analytically  !
 ! A2    A(2,1,7)              112.1329         calculate D2E/DX2 analytically  !
 ! A3    A(2,1,8)              109.3398         calculate D2E/DX2 analytically  !
 ! A4    A(6,1,7)              108.4112         calculate D2E/DX2 analytically  !
 ! A5    A(6,1,8)              108.8389         calculate D2E/DX2 analytically  !
 ! A6    A(7,1,8)              108.4414         calculate D2E/DX2 analytically  !
 ! A7    A(1,2,3)              117.5608         calculate D2E/DX2 analytically  !
 ! A8    A(1,2,4)              118.3882         calculate D2E/DX2 analytically  !
 ! A9    A(1,2,5)              114.0333         calculate D2E/DX2 analytically  !
 ! A10   A(3,2,4)              118.3883         calculate D2E/DX2 analytically  !
 ! A11   A(3,2,5)              114.0331         calculate D2E/DX2 analytically  !
 ! A12   A(2,3,9)              109.6132         calculate D2E/DX2 analytically  !
 ! A13   A(2,3,10)             109.3399         calculate D2E/DX2 analytically  !
 ! A14   A(2,3,11)             112.1329         calculate D2E/DX2 analytically  !
 ! A15   A(9,3,10)             108.8389         calculate D2E/DX2 analytically  !
 ! A16   A(9,3,11)             108.4112         calculate D2E/DX2 analytically  !
 ! A17   A(10,3,11)            108.4414         calculate D2E/DX2 analytically  !
 ! A18   A(2,4,14)             108.5449         calculate D2E/DX2 analytically  !
 ! A19   A(2,4,15)             108.5452         calculate D2E/DX2 analytically  !
 ! A20   A(5,4,14)             118.6416         calculate D2E/DX2 analytically  !
 ! A21   A(5,4,15)             118.6412         calculate D2E/DX2 analytically  !
 ! A22   A(14,4,15)            121.7615         calculate D2E/DX2 analytically  !
 ! A23   A(2,5,12)             120.3007         calculate D2E/DX2 analytically  !
 ! A24   A(2,5,13)             120.3008         calculate D2E/DX2 analytically  !
 ! A25   A(4,5,12)             104.4112         calculate D2E/DX2 analytically  !
 ! A26   A(4,5,13)             104.4111         calculate D2E/DX2 analytically  !
 ! A27   A(12,5,13)            119.3824         calculate D2E/DX2 analytically  !
 ! D1    D(6,1,2,3)            -56.8965         calculate D2E/DX2 analytically  !
 ! D2    D(6,1,2,4)            150.0194         calculate D2E/DX2 analytically  !
 ! D3    D(6,1,2,5)             80.4731         calculate D2E/DX2 analytically  !
 ! D4    D(7,1,2,3)           -177.3536         calculate D2E/DX2 analytically  !
 ! D5    D(7,1,2,4)             29.5623         calculate D2E/DX2 analytically  !
 ! D6    D(7,1,2,5)            -39.984          calculate D2E/DX2 analytically  !
 ! D7    D(8,1,2,3)             62.3368         calculate D2E/DX2 analytically  !
 ! D8    D(8,1,2,4)            -90.7473         calculate D2E/DX2 analytically  !
 ! D9    D(8,1,2,5)           -160.2936         calculate D2E/DX2 analytically  !
 ! D10   D(1,2,3,9)             56.8964         calculate D2E/DX2 analytically  !
 ! D11   D(1,2,3,10)           -62.3369         calculate D2E/DX2 analytically  !
 ! D12   D(1,2,3,11)           177.3535         calculate D2E/DX2 analytically  !
 ! D13   D(4,2,3,9)           -150.0196         calculate D2E/DX2 analytically  !
 ! D14   D(4,2,3,10)            90.7472         calculate D2E/DX2 analytically  !
 ! D15   D(4,2,3,11)           -29.5624         calculate D2E/DX2 analytically  !
 ! D16   D(5,2,3,9)            -80.4733         calculate D2E/DX2 analytically  !
 ! D17   D(5,2,3,10)           160.2935         calculate D2E/DX2 analytically  !
 ! D18   D(5,2,3,11)            39.9839         calculate D2E/DX2 analytically  !
 ! D19   D(1,2,4,14)           143.5694         calculate D2E/DX2 analytically  !
 ! D20   D(1,2,4,15)             9.2896         calculate D2E/DX2 analytically  !
 ! D21   D(3,2,4,14)            -9.2904         calculate D2E/DX2 analytically  !
 ! D22   D(3,2,4,15)          -143.5703         calculate D2E/DX2 analytically  !
 ! D23   D(1,2,5,12)            21.2856         calculate D2E/DX2 analytically  !
 ! D24   D(1,2,5,13)          -160.1842         calculate D2E/DX2 analytically  !
 ! D25   D(3,2,5,12)           160.1837         calculate D2E/DX2 analytically  !
 ! D26   D(3,2,5,13)           -21.2861         calculate D2E/DX2 analytically  !
 ! D27   D(14,4,5,12)         -147.5541         calculate D2E/DX2 analytically  !
 ! D28   D(14,4,5,13)          -21.4635         calculate D2E/DX2 analytically  !
 ! D29   D(15,4,5,12)           21.4627         calculate D2E/DX2 analytically  !
 ! D30   D(15,4,5,13)          147.5533         calculate D2E/DX2 analytically  !
 --------------------------------------------------------------------------------
 Trust Radius=3.00D-01 FncErr=1.00D-07 GrdErr=1.00D-06 EigMax=2.50D+02 EigMin=1.00D-04
 Number of steps in this run=    100 maximum allowed number of steps=    100.
 GradGradGradGradGradGradGradGradGradGradGradGradGradGradGradGradGradGrad

 Leave Link  103 at Tue Apr 12 18:04:03 2022, MaxMem=  1073741824 cpu:               0.1 elap:               0.0
 (Enter /home/saurabh/gaussian/g16/l202.exe)
                          Input orientation:                          
 ---------------------------------------------------------------------
 Center     Atomic      Atomic             Coordinates (Angstroms)
 Number     Number       Type             X           Y           Z
 ---------------------------------------------------------------------
      1          6           0       -3.852500    2.145454    0.962946
      2          6           0       -3.719082    0.976552   -0.018971
      3          6           0       -4.872684    0.738834   -0.999271
      4          6           0       -2.858697   -0.202787    0.379117
      5          6           0       -2.346568    0.847779   -0.640252
      6          1           0       -4.011950    3.088919    0.399778
      7          1           0       -2.948026    2.264249    1.597963
      8          1           0       -4.726058    1.971338    1.625185
      9          1           0       -5.049768    1.657986   -1.596354
     10          1           0       -5.794759    0.497821   -0.430350
     11          1           0       -4.661989   -0.098949   -1.698670
     12          1           0       -1.462545    1.304440   -0.146127
     13          1           0       -2.209172    0.274991   -1.582182
     14          1           0       -3.332249   -1.131648   -0.005653
     15          1           0       -2.576438   -0.089557    1.448038
 ---------------------------------------------------------------------
                    Distance matrix (angstroms):
                    1          2          3          4          5
     1  C    0.000000
     2  C    1.532415   0.000000
     3  C    2.621002   1.532415   0.000000
     4  C    2.615862   1.513135   2.615864   0.000000
     5  C    2.553828   1.512074   2.553825   1.550831   0.000000
     6  H    1.110274   2.173296   2.867246   3.487943   2.979575
     7  H    1.111500   2.206166   3.574468   2.753149   2.716200
     8  H    1.109946   2.169528   2.903159   3.125146   3.472256
     9  H    2.867245   2.173296   1.110274   3.487944   2.979574
    10  H    2.903160   2.169528   1.109946   3.125147   3.472254
    11  H    3.574468   2.206166   1.111500   2.753152   2.716196
    12  H    2.765724   2.283777   3.560450   2.120579   1.110943
    13  H    3.560454   2.283778   2.765724   2.120578   1.110943
    14  H    3.456623   2.143438   2.618953   1.111343   2.300525
    15  H    2.618955   2.143441   3.456631   1.111343   2.300520
                    6          7          8          9         10
     6  H    0.000000
     7  H    1.802127   0.000000
     8  H    1.805702   1.802204   0.000000
     9  H    2.666304   3.871503   3.252889   0.000000
    10  H    3.252892   3.916403   2.745650   1.805702   0.000000
    11  H    3.871503   4.403427   3.916402   1.802127   1.802204
    12  H    3.159405   2.483895   3.772640   3.885398   4.415823
    13  H    3.885404   3.823136   4.415825   3.159409   3.772639
    14  H    4.294130   3.775093   3.772381   3.641739   2.983202
    15  H    3.641738   2.387668   2.983209   4.294135   3.772392
                   11         12         13         14         15
    11  H    0.000000
    12  H    3.823131   0.000000
    13  H    2.483891   1.918194   0.000000
    14  H    2.387673   3.074094   2.392777   0.000000
    15  H    3.775101   2.392770   3.074087   1.941758   0.000000
 Stoichiometry    C5H10
 Framework group  C1[X(C5H10)]
 Deg. of freedom    39
 Full point group                 C1      NOp   1
 Largest Abelian subgroup         C1      NOp   1
 Largest concise Abelian subgroup C1      NOp   1
                         Standard orientation:                         
 ---------------------------------------------------------------------
 Center     Atomic      Atomic             Coordinates (Angstroms)
 Number     Number       Type             X           Y           Z
 ---------------------------------------------------------------------
      1          6           0       -0.952949    1.310502   -0.007904
      2          6           0       -0.160536    0.000000    0.046497
      3          6           0       -0.952953   -1.310500   -0.007903
      4          6           0        1.182899    0.000000    0.742743
      5          6           0        1.088833   -0.000004   -0.805233
      6          1           0       -1.572995    1.333154   -0.928631
      7          1           0       -0.288744    2.201714   -0.009956
      8          1           0       -1.621407    1.372827    0.875985
      9          1           0       -1.573000   -1.333150   -0.928629
     10          1           0       -1.621410   -1.372823    0.875988
     11          1           0       -0.288750   -2.201713   -0.009955
     12          1           0        1.558894    0.959092   -1.110802
     13          1           0        1.558895   -0.959103   -1.110793
     14          1           0        1.308373   -0.970875    1.268803
     15          1           0        1.308385    0.970882    1.268790
 ---------------------------------------------------------------------
 Rotational constants (GHZ):           5.9061085           5.3003323           3.7706978
 Leave Link  202 at Tue Apr 12 18:04:03 2022, MaxMem=  1073741824 cpu:               0.1 elap:               0.0
 (Enter /home/saurabh/gaussian/g16/l301.exe)
 Standard basis: CC-pVTZ (5D, 7F)
 Ernie: Thresh=  0.10000D-02 Tol=  0.10000D-05 Strict=F.
 Ernie:  15 primitive shells out of 210 were deleted.
 There are   325 symmetry adapted cartesian basis functions of A   symmetry.
 There are   290 symmetry adapted basis functions of A   symmetry.
   290 basis functions,   430 primitive gaussians,   325 cartesian basis functions
    20 alpha electrons       20 beta electrons
       nuclear repulsion energy       183.0767635725 Hartrees.
 IExCor=  402 DFT=T Ex+Corr=B3LYP ExCW=0 ScaHFX=  0.200000
 ScaDFX=  0.800000  0.720000  1.000000  0.810000 ScalE2=  1.000000  1.000000
 IRadAn=      5 IRanWt=     -1 IRanGd=            0 ICorTp=0 IEmpDi=  4
 NAtoms=   15 NActive=   15 NUniq=   15 SFac= 1.00D+00 NAtFMM=   60 NAOKFM=F Big=F
 Integral buffers will be    131072 words long.
 Raffenetti 2 integral format.
 Two-electron integral symmetry is turned on.
 Leave Link  301 at Tue Apr 12 18:04:03 2022, MaxMem=  1073741824 cpu:               0.4 elap:               0.1
 (Enter /home/saurabh/gaussian/g16/l302.exe)
 NPDir=0 NMtPBC=     1 NCelOv=     1 NCel=       1 NClECP=     1 NCelD=      1
         NCelK=      1 NCelE2=     1 NClLst=     1 CellRange=     0.0.
 One-electron integrals computed using PRISM.
 One-electron integral symmetry used in STVInt
 NBasis=   290 RedAO= T EigKep=  3.93D-04  NBF=   290
 NBsUse=   290 1.00D-06 EigRej= -1.00D+00 NBFU=   290
 Precomputing XC quadrature grid using
 IXCGrd= 4 IRadAn=           5 IRanWt=          -1 IRanGd=           0 AccXCQ= 0.00D+00.
 Generated NRdTot=       0 NPtTot=           0 NUsed=           0 NTot=          32
 NSgBfM=   325   325   325   325   325 MxSgAt=    15 MxSgA2=    15.
 Leave Link  302 at Tue Apr 12 18:04:03 2022, MaxMem=  1073741824 cpu:               1.9 elap:               0.3
 (Enter /home/saurabh/gaussian/g16/l303.exe)
 DipDrv:  MaxL=1.
 Leave Link  303 at Tue Apr 12 18:04:03 2022, MaxMem=  1073741824 cpu:               0.3 elap:               0.1
 (Enter /home/saurabh/gaussian/g16/l401.exe)
 ExpMin= 1.03D-01 ExpMax= 8.24D+03 ExpMxC= 2.81D+02 IAcc=3 IRadAn=         5 AccDes= 0.00D+00
 Harris functional with IExCor=  402 and IRadAn=       5 diagonalized for initial guess.
 HarFok:  IExCor=  402 AccDes= 0.00D+00 IRadAn=         5 IDoV= 1 UseB2=F ITyADJ=14
 ICtDFT=  3500011 ScaDFX=  1.000000  1.000000  1.000000  1.000000
 FoFCou: FMM=F IPFlag=           0 FMFlag=      100000 FMFlg1=           0
         NFxFlg=           0 DoJE=T BraDBF=F KetDBF=T FulRan=T
         wScrn=  0.000000 ICntrl=       500 IOpCl=  0 I1Cent=   200000004 NGrid=           0
         NMat0=    1 NMatS0=      1 NMatT0=    0 NMatD0=    1 NMtDS0=    0 NMtDT0=    0
 Petite list used in FoFCou.
 Harris En= -196.636002123574    
 JPrj=0 DoOrth=F DoCkMO=F.
 Leave Link  401 at Tue Apr 12 18:04:04 2022, MaxMem=  1073741824 cpu:               7.0 elap:               0.9
 (Enter /home/saurabh/gaussian/g16/l502.exe)
 Integral symmetry usage will be decided dynamically.
 Closed shell SCF:
 Using DIIS extrapolation, IDIIS=  1040.
 NGot=  1073741824 LenX=  1073524648 LenY=  1073418582
 Requested convergence on RMS density matrix=1.00D-08 within1000 cycles.
 Requested convergence on MAX density matrix=1.00D-06.
 Requested convergence on             energy=1.00D-06.
 No special actions if energy rises.
 Fock matrices will be formed incrementally for  20 cycles.
 Integral accuracy reduced to 1.0D-05 until final iterations.

 Cycle   1  Pass 0  IDiag  1:
 FoFJK:  IHMeth= 1 ICntrl=       0 DoSepK=F KAlg= 0 I1Cent=           0 FoldK=F
 IRaf= 990000000 NMat=       1 IRICut=       1 DoRegI=T DoRafI=F ISym2E= 0 IDoP0=0 IntGTp=1.
 FoFCou: FMM=F IPFlag=           0 FMFlag=      100000 FMFlg1=           0
         NFxFlg=           0 DoJE=F BraDBF=F KetDBF=F FulRan=T
         wScrn=  0.000000 ICntrl=         0 IOpCl=  0 I1Cent=           0 NGrid=           0
         NMat0=    1 NMatS0=      1 NMatT0=    0 NMatD0=    1 NMtDS0=    0 NMtDT0=    0
 Symmetry not used in FoFCou.
 E= -196.359380728627    
 DIIS: error= 3.90D-02 at cycle   1 NSaved=   1.
 NSaved= 1 IEnMin= 1 EnMin= -196.359380728627     IErMin= 1 ErrMin= 3.90D-02
 ErrMax= 3.90D-02  0.00D+00 EMaxC= 1.00D-01 BMatC= 2.17D-01 BMatP= 2.17D-01
 IDIUse=3 WtCom= 6.10D-01 WtEn= 3.90D-01
 Coeff-Com:  0.100D+01
 Coeff-En:   0.100D+01
 Coeff:      0.100D+01
 Gap=     0.298 Goal=   None    Shift=    0.000
 GapD=    0.298 DampG=1.000 DampE=0.500 DampFc=0.5000 IDamp=-1.
 Damping current iteration by 5.00D-01
 RMSDP=2.90D-03 MaxDP=9.47D-02              OVMax= 1.95D-01

 Cycle   2  Pass 0  IDiag  1:
 RMSU=  1.44D-03    CP:  9.82D-01
 E= -196.447557388079     Delta-E=       -0.088176659452 Rises=F Damp=T
 DIIS: error= 7.68D-03 at cycle   2 NSaved=   2.
 NSaved= 2 IEnMin= 2 EnMin= -196.447557388079     IErMin= 2 ErrMin= 7.68D-03
 ErrMax= 7.68D-03  0.00D+00 EMaxC= 1.00D-01 BMatC= 1.18D-02 BMatP= 2.17D-01
 IDIUse=3 WtCom= 9.23D-01 WtEn= 7.68D-02
 Coeff-Com:  0.997D-01 0.900D+00
 Coeff-En:   0.209D+00 0.791D+00
 Coeff:      0.108D+00 0.892D+00
 Gap=     0.306 Goal=   None    Shift=    0.000
 RMSDP=7.34D-04 MaxDP=2.89D-02 DE=-8.82D-02 OVMax= 1.27D-01

 Cycle   3  Pass 0  IDiag  1:
 RMSU=  4.94D-04    CP:  9.88D-01  6.25D-01
 E= -196.577577386979     Delta-E=       -0.130019998900 Rises=F Damp=F
 DIIS: error= 6.05D-03 at cycle   3 NSaved=   3.
 NSaved= 3 IEnMin= 3 EnMin= -196.577577386979     IErMin= 3 ErrMin= 6.05D-03
 ErrMax= 6.05D-03  0.00D+00 EMaxC= 1.00D-01 BMatC= 3.39D-03 BMatP= 1.18D-02
 IDIUse=3 WtCom= 9.39D-01 WtEn= 6.05D-02
 Coeff-Com:  0.135D-02 0.310D+00 0.689D+00
 Coeff-En:   0.000D+00 0.000D+00 0.100D+01
 Coeff:      0.127D-02 0.291D+00 0.708D+00
 Gap=     0.294 Goal=   None    Shift=    0.000
 RMSDP=1.96D-04 MaxDP=8.99D-03 DE=-1.30D-01 OVMax= 2.31D-02

 Cycle   4  Pass 0  IDiag  1:
 RMSU=  1.41D-04    CP:  9.87D-01  6.94D-01  8.14D-01
 E= -196.579696938949     Delta-E=       -0.002119551970 Rises=F Damp=F
 DIIS: error= 2.66D-03 at cycle   4 NSaved=   4.
 NSaved= 4 IEnMin= 4 EnMin= -196.579696938949     IErMin= 4 ErrMin= 2.66D-03
 ErrMax= 2.66D-03  0.00D+00 EMaxC= 1.00D-01 BMatC= 1.35D-03 BMatP= 3.39D-03
 IDIUse=3 WtCom= 9.73D-01 WtEn= 2.66D-02
 Coeff-Com: -0.131D-01 0.563D-01 0.403D+00 0.554D+00
 Coeff-En:   0.000D+00 0.000D+00 0.275D+00 0.725D+00
 Coeff:     -0.128D-01 0.548D-01 0.400D+00 0.558D+00
 Gap=     0.298 Goal=   None    Shift=    0.000
 RMSDP=7.36D-05 MaxDP=4.40D-03 DE=-2.12D-03 OVMax= 1.07D-02

 Cycle   5  Pass 0  IDiag  1:
 RMSU=  2.90D-05    CP:  9.87D-01  6.80D-01  8.78D-01  5.99D-01
 E= -196.580899405455     Delta-E=       -0.001202466506 Rises=F Damp=F
 DIIS: error= 3.23D-04 at cycle   5 NSaved=   5.
 NSaved= 5 IEnMin= 5 EnMin= -196.580899405455     IErMin= 5 ErrMin= 3.23D-04
 ErrMax= 3.23D-04  0.00D+00 EMaxC= 1.00D-01 BMatC= 1.82D-05 BMatP= 1.35D-03
 IDIUse=3 WtCom= 9.97D-01 WtEn= 3.23D-03
 Coeff-Com: -0.395D-02 0.749D-02 0.115D+00 0.201D+00 0.680D+00
 Coeff-En:   0.000D+00 0.000D+00 0.000D+00 0.000D+00 0.100D+01
 Coeff:     -0.393D-02 0.746D-02 0.114D+00 0.201D+00 0.681D+00
 Gap=     0.298 Goal=   None    Shift=    0.000
 RMSDP=1.25D-05 MaxDP=4.92D-04 DE=-1.20D-03 OVMax= 1.82D-03

 Cycle   6  Pass 0  IDiag  1:
 RMSU=  8.46D-06    CP:  9.87D-01  6.79D-01  8.82D-01  6.24D-01  7.28D-01
 E= -196.580912418553     Delta-E=       -0.000013013098 Rises=F Damp=F
 DIIS: error= 1.30D-04 at cycle   6 NSaved=   6.
 NSaved= 6 IEnMin= 6 EnMin= -196.580912418553     IErMin= 6 ErrMin= 1.30D-04
 ErrMax= 1.30D-04  0.00D+00 EMaxC= 1.00D-01 BMatC= 3.37D-06 BMatP= 1.82D-05
 IDIUse=3 WtCom= 9.99D-01 WtEn= 1.30D-03
 Coeff-Com: -0.131D-02 0.759D-03 0.413D-01 0.816D-01 0.383D+00 0.495D+00
 Coeff-En:   0.000D+00 0.000D+00 0.000D+00 0.000D+00 0.104D+00 0.896D+00
 Coeff:     -0.131D-02 0.758D-03 0.413D-01 0.815D-01 0.383D+00 0.495D+00
 Gap=     0.298 Goal=   None    Shift=    0.000
 RMSDP=3.95D-06 MaxDP=1.51D-04 DE=-1.30D-05 OVMax= 5.56D-04

 Initial convergence to 1.0D-05 achieved.  Increase integral accuracy.
 Cycle   7  Pass 1  IDiag  1:
 E= -196.580919824961     Delta-E=       -0.000007406408 Rises=F Damp=F
 DIIS: error= 3.35D-05 at cycle   1 NSaved=   1.
 NSaved= 1 IEnMin= 1 EnMin= -196.580919824961     IErMin= 1 ErrMin= 3.35D-05
 ErrMax= 3.35D-05  0.00D+00 EMaxC= 1.00D-01 BMatC= 1.51D-07 BMatP= 1.51D-07
 IDIUse=1 WtCom= 1.00D+00 WtEn= 0.00D+00
 Coeff-Com:  0.100D+01
 Coeff:      0.100D+01
 Gap=     0.298 Goal=   None    Shift=    0.000
 RMSDP=3.95D-06 MaxDP=1.51D-04 DE=-7.41D-06 OVMax= 1.45D-04

 Cycle   8  Pass 1  IDiag  1:
 RMSU=  4.13D-06    CP:  1.00D+00
 E= -196.580919837198     Delta-E=       -0.000000012237 Rises=F Damp=F
 DIIS: error= 2.13D-05 at cycle   2 NSaved=   2.
 NSaved= 2 IEnMin= 2 EnMin= -196.580919837198     IErMin= 2 ErrMin= 2.13D-05
 ErrMax= 2.13D-05  0.00D+00 EMaxC= 1.00D-01 BMatC= 5.91D-08 BMatP= 1.51D-07
 IDIUse=1 WtCom= 1.00D+00 WtEn= 0.00D+00
 Coeff-Com:  0.343D+00 0.657D+00
 Coeff:      0.343D+00 0.657D+00
 Gap=     0.298 Goal=   None    Shift=    0.000
 RMSDP=8.09D-07 MaxDP=4.02D-05 DE=-1.22D-08 OVMax= 1.22D-04

 Cycle   9  Pass 1  IDiag  1:
 RMSU=  7.99D-07    CP:  1.00D+00  9.69D-01
 E= -196.580919874424     Delta-E=       -0.000000037226 Rises=F Damp=F
 DIIS: error= 1.30D-05 at cycle   3 NSaved=   3.
 NSaved= 3 IEnMin= 3 EnMin= -196.580919874424     IErMin= 3 ErrMin= 1.30D-05
 ErrMax= 1.30D-05  0.00D+00 EMaxC= 1.00D-01 BMatC= 2.12D-08 BMatP= 5.91D-08
 IDIUse=1 WtCom= 1.00D+00 WtEn= 0.00D+00
 Coeff-Com:  0.137D-01 0.374D+00 0.613D+00
 Coeff:      0.137D-01 0.374D+00 0.613D+00
 Gap=     0.298 Goal=   None    Shift=    0.000
 RMSDP=3.24D-07 MaxDP=1.54D-05 DE=-3.72D-08 OVMax= 5.34D-05

 Cycle  10  Pass 1  IDiag  1:
 RMSU=  1.26D-07    CP:  1.00D+00  9.90D-01  6.42D-01
 E= -196.580919894885     Delta-E=       -0.000000020461 Rises=F Damp=F
 DIIS: error= 1.15D-06 at cycle   4 NSaved=   4.
 NSaved= 4 IEnMin= 4 EnMin= -196.580919894885     IErMin= 4 ErrMin= 1.15D-06
 ErrMax= 1.15D-06  0.00D+00 EMaxC= 1.00D-01 BMatC= 3.89D-10 BMatP= 2.12D-08
 IDIUse=1 WtCom= 1.00D+00 WtEn= 0.00D+00
 Coeff-Com: -0.948D-03 0.158D+00 0.284D+00 0.559D+00
 Coeff:     -0.948D-03 0.158D+00 0.284D+00 0.559D+00
 Gap=     0.298 Goal=   None    Shift=    0.000
 RMSDP=5.45D-08 MaxDP=1.80D-06 DE=-2.05D-08 OVMax= 6.59D-06

 Cycle  11  Pass 1  IDiag  1:
 RMSU=  3.22D-08    CP:  1.00D+00  9.90D-01  6.46D-01  6.51D-01
 E= -196.580919895257     Delta-E=       -0.000000000372 Rises=F Damp=F
 DIIS: error= 4.88D-07 at cycle   5 NSaved=   5.
 NSaved= 5 IEnMin= 5 EnMin= -196.580919895257     IErMin= 5 ErrMin= 4.88D-07
 ErrMax= 4.88D-07  0.00D+00 EMaxC= 1.00D-01 BMatC= 2.65D-11 BMatP= 3.89D-10
 IDIUse=1 WtCom= 1.00D+00 WtEn= 0.00D+00
 Coeff-Com: -0.119D-02 0.691D-01 0.128D+00 0.299D+00 0.506D+00
 Coeff:     -0.119D-02 0.691D-01 0.128D+00 0.299D+00 0.506D+00
 Gap=     0.298 Goal=   None    Shift=    0.000
 RMSDP=1.35D-08 MaxDP=4.15D-07 DE=-3.72D-10 OVMax= 1.30D-06

 Cycle  12  Pass 1  IDiag  1:
 RMSU=  9.36D-09    CP:  1.00D+00  9.90D-01  6.49D-01  6.59D-01  7.12D-01
 E= -196.580919895283     Delta-E=       -0.000000000026 Rises=F Damp=F
 DIIS: error= 4.84D-08 at cycle   6 NSaved=   6.
 NSaved= 6 IEnMin= 6 EnMin= -196.580919895283     IErMin= 6 ErrMin= 4.84D-08
 ErrMax= 4.84D-08  0.00D+00 EMaxC= 1.00D-01 BMatC= 5.13D-13 BMatP= 2.65D-11
 IDIUse=1 WtCom= 1.00D+00 WtEn= 0.00D+00
 Coeff-Com: -0.298D-03 0.972D-02 0.189D-01 0.496D-01 0.158D+00 0.764D+00
 Coeff:     -0.298D-03 0.972D-02 0.189D-01 0.496D-01 0.158D+00 0.764D+00
 Gap=     0.298 Goal=   None    Shift=    0.000
 RMSDP=2.40D-09 MaxDP=9.47D-08 DE=-2.61D-11 OVMax= 2.20D-07

 SCF Done:  E(RB3LYP) =  -196.580919895     A.U. after   12 cycles
            NFock= 12  Conv=0.24D-08     -V/T= 2.0094
 KE= 1.947543140177D+02 PE=-8.200278238457D+02 EE= 2.456158263603D+02
 Leave Link  502 at Tue Apr 12 18:04:34 2022, MaxMem=  1073741824 cpu:             237.4 elap:              29.7
 (Enter /home/saurabh/gaussian/g16/l801.exe)
 DoSCS=F DFT=T ScalE2(SS,OS)=  1.000000  1.000000
 Range of M.O.s used for correlation:     1   290
 NBasis=   290 NAE=    20 NBE=    20 NFC=     0 NFV=     0
 NROrb=    290 NOA=    20 NOB=    20 NVA=   270 NVB=   270

 **** Warning!!: The largest alpha MO coefficient is  0.10780003D+02

 Leave Link  801 at Tue Apr 12 18:04:34 2022, MaxMem=  1073741824 cpu:               0.2 elap:               0.1
 (Enter /home/saurabh/gaussian/g16/l1101.exe)
 Using compressed storage, NAtomX=    15.
 Will process     16 centers per pass.
 Leave Link 1101 at Tue Apr 12 18:04:34 2022, MaxMem=  1073741824 cpu:               2.1 elap:               0.3
 (Enter /home/saurabh/gaussian/g16/l1102.exe)
 Symmetrizing basis deriv contribution to polar:
 IMax=3 JMax=2 DiffMx= 0.00D+00
 Leave Link 1102 at Tue Apr 12 18:04:34 2022, MaxMem=  1073741824 cpu:               0.3 elap:               0.1
 (Enter /home/saurabh/gaussian/g16/l1110.exe)
 Forming Gx(P) for the SCF density, NAtomX=    15.
 Integral derivatives from FoFJK, PRISM(SPDF).
 Do as many integral derivatives as possible in FoFJK.
 G2DrvN: MDV=    1073740143.
 G2DrvN: will do    16 centers at a time, making    1 passes.
 Calling FoFCou, ICntrl=  3107 FMM=F I1Cent=   0 AccDes= 0.00D+00.
 FoFJK:  IHMeth= 1 ICntrl=    3107 DoSepK=F KAlg= 0 I1Cent=           0 FoldK=F
 IRaf=         0 NMat=       1 IRICut=       1 DoRegI=T DoRafI=F ISym2E= 0 IDoP0=0 IntGTp=1.
 FoFCou: FMM=F IPFlag=           0 FMFlag=      100000 FMFlg1=           0
         NFxFlg=           0 DoJE=F BraDBF=F KetDBF=F FulRan=T
         wScrn=  0.000000 ICntrl=      3107 IOpCl=  0 I1Cent=           0 NGrid=           0
         NMat0=    1 NMatS0=      1 NMatT0=    0 NMatD0=    1 NMtDS0=    0 NMtDT0=    0
 Symmetry not used in FoFCou.
 End of G2Drv F.D. properties file   721 does not exist.
 End of G2Drv F.D. properties file   722 does not exist.
 End of G2Drv F.D. properties file   788 does not exist.
 Leave Link 1110 at Tue Apr 12 18:05:26 2022, MaxMem=  1073741824 cpu:             410.7 elap:              51.4
 (Enter /home/saurabh/gaussian/g16/l1002.exe)
 Minotr:  Closed shell wavefunction.
          IDoAtm=111111111111111
          Direct CPHF calculation.
          Differentiating once with respect to nuclear coordinates.
          Requested convergence is 1.0D-08 RMS, and 1.0D-07 maximum.
          Secondary convergence is 1.0D-12 RMS, and 1.0D-12 maximum.
          NewPWx=T KeepS1=F KeepF1=F KeepIn=T MapXYZ=F SortEE=F KeepMc=T.
         4436 words used for storage of precomputed grid.
 Keep R1 ints in memory in canonical form, NReq=907561643.
 FoFCou: FMM=F IPFlag=           0 FMFlag=           0 FMFlg1=           0
         NFxFlg=           0 DoJE=F BraDBF=F KetDBF=F FulRan=T
         wScrn=  0.000000 ICntrl=       600 IOpCl=  0 I1Cent=           0 NGrid=           0
         NMat0=    1 NMatS0=  42195 NMatT0=    0 NMatD0=    1 NMtDS0=    0 NMtDT0=    0
 Symmetry not used in FoFCou.
 Two-electron integral symmetry not used.
          MDV=    1073741824 using IRadAn=       1.
          Solving linear equations simultaneously, MaxMat=       0.
          There are    48 degrees of freedom in the 1st order CPHF.  IDoFFX=6 NUNeed=     0.
     42 vectors produced by pass  0 Test12= 1.12D-14 2.08D-09 XBig12= 1.04D-01 6.63D-02.
 AX will form    42 AO Fock derivatives at one time.
     42 vectors produced by pass  1 Test12= 1.12D-14 2.08D-09 XBig12= 1.37D-02 2.18D-02.
     42 vectors produced by pass  2 Test12= 1.12D-14 2.08D-09 XBig12= 1.15D-04 1.85D-03.
     42 vectors produced by pass  3 Test12= 1.12D-14 2.08D-09 XBig12= 5.07D-07 9.67D-05.
     42 vectors produced by pass  4 Test12= 1.12D-14 2.08D-09 XBig12= 1.11D-09 4.67D-06.
     22 vectors produced by pass  5 Test12= 1.12D-14 2.08D-09 XBig12= 1.02D-12 1.72D-07.
      8 vectors produced by pass  6 Test12= 1.12D-14 2.08D-09 XBig12= 9.15D-16 4.37D-09.
 InvSVY:  IOpt=1 It=  1 EMax= 1.67D-15
 Solved reduced A of dimension   240 with    42 vectors.
 End of Minotr F.D. properties file   721 does not exist.
 End of Minotr F.D. properties file   722 does not exist.
 End of Minotr F.D. properties file   788 does not exist.
 Leave Link 1002 at Tue Apr 12 18:06:19 2022, MaxMem=  1073741824 cpu:             425.2 elap:              53.2
 (Enter /home/saurabh/gaussian/g16/l601.exe)
 Copying SCF densities to generalized density rwf, IOpCl= 0 IROHF=0.

 **********************************************************************

            Population analysis using the SCF Density.

 **********************************************************************

 Orbital symmetries:
       Occupied  (A) (A) (A) (A) (A) (A) (A) (A) (A) (A) (A) (A)
                 (A) (A) (A) (A) (A) (A) (A) (A)
       Virtual   (A) (A) (A) (A) (A) (A) (A) (A) (A) (A) (A) (A)
                 (A) (A) (A) (A) (A) (A) (A) (A) (A) (A) (A) (A)
                 (A) (A) (A) (A) (A) (A) (A) (A) (A) (A) (A) (A)
                 (A) (A) (A) (A) (A) (A) (A) (A) (A) (A) (A) (A)
                 (A) (A) (A) (A) (A) (A) (A) (A) (A) (A) (A) (A)
                 (A) (A) (A) (A) (A) (A) (A) (A) (A) (A) (A) (A)
                 (A) (A) (A) (A) (A) (A) (A) (A) (A) (A) (A) (A)
                 (A) (A) (A) (A) (A) (A) (A) (A) (A) (A) (A) (A)
                 (A) (A) (A) (A) (A) (A) (A) (A) (A) (A) (A) (A)
                 (A) (A) (A) (A) (A) (A) (A) (A) (A) (A) (A) (A)
                 (A) (A) (A) (A) (A) (A) (A) (A) (A) (A) (A) (A)
                 (A) (A) (A) (A) (A) (A) (A) (A) (A) (A) (A) (A)
                 (A) (A) (A) (A) (A) (A) (A) (A) (A) (A) (A) (A)
                 (A) (A) (A) (A) (A) (A) (A) (A) (A) (A) (A) (A)
                 (A) (A) (A) (A) (A) (A) (A) (A) (A) (A) (A) (A)
                 (A) (A) (A) (A) (A) (A) (A) (A) (A) (A) (A) (A)
                 (A) (A) (A) (A) (A) (A) (A) (A) (A) (A) (A) (A)
                 (A) (A) (A) (A) (A) (A) (A) (A) (A) (A) (A) (A)
                 (A) (A) (A) (A) (A) (A) (A) (A) (A) (A) (A) (A)
                 (A) (A) (A) (A) (A) (A) (A) (A) (A) (A) (A) (A)
                 (A) (A) (A) (A) (A) (A) (A) (A) (A) (A) (A) (A)
                 (A) (A) (A) (A) (A) (A) (A) (A) (A) (A) (A) (A)
                 (A) (A) (A) (A) (A) (A)
 The electronic state is 1-A.
 Alpha  occ. eigenvalues --  -10.19299 -10.17661 -10.17267 -10.17229 -10.17229
 Alpha  occ. eigenvalues --   -0.86276  -0.71704  -0.68979  -0.59019  -0.53268
 Alpha  occ. eigenvalues --   -0.48464  -0.44685  -0.42530  -0.39324  -0.39151
 Alpha  occ. eigenvalues --   -0.37703  -0.35979  -0.34704  -0.27999  -0.26813
 Alpha virt. eigenvalues --    0.02990   0.06204   0.06563   0.07741   0.08899
 Alpha virt. eigenvalues --    0.09031   0.10517   0.12927   0.13428   0.13746
 Alpha virt. eigenvalues --    0.14413   0.15020   0.18695   0.19920   0.22318
 Alpha virt. eigenvalues --    0.23531   0.27247   0.27906   0.28576   0.30637
 Alpha virt. eigenvalues --    0.32706   0.32770   0.35728   0.39157   0.41069
 Alpha virt. eigenvalues --    0.41894   0.44315   0.44563   0.44701   0.45382
 Alpha virt. eigenvalues --    0.45642   0.46338   0.46824   0.47815   0.48919
 Alpha virt. eigenvalues --    0.49051   0.49284   0.49751   0.50545   0.52957
 Alpha virt. eigenvalues --    0.53062   0.65821   0.70244   0.71738   0.73799
 Alpha virt. eigenvalues --    0.74019   0.77195   0.77916   0.79230   0.83041
 Alpha virt. eigenvalues --    0.87976   0.89708   0.91180   0.91366   0.93357
 Alpha virt. eigenvalues --    0.93610   0.94250   0.95198   0.98750   1.00101
 Alpha virt. eigenvalues --    1.00461   1.01447   1.01863   1.06449   1.07184
 Alpha virt. eigenvalues --    1.12184   1.12929   1.15233   1.16639   1.18449
 Alpha virt. eigenvalues --    1.19881   1.20715   1.21794   1.22414   1.23166
 Alpha virt. eigenvalues --    1.24304   1.26202   1.26903   1.29846   1.31422
 Alpha virt. eigenvalues --    1.31653   1.33819   1.34151   1.39030   1.39971
 Alpha virt. eigenvalues --    1.41081   1.42568   1.45459   1.46382   1.48778
 Alpha virt. eigenvalues --    1.49020   1.50202   1.51099   1.53449   1.55370
 Alpha virt. eigenvalues --    1.61034   1.65846   1.70022   1.71064   1.74028
 Alpha virt. eigenvalues --    2.13200   2.15873   2.19738   2.20302   2.25316
 Alpha virt. eigenvalues --    2.32535   2.33052   2.38323   2.39823   2.43053
 Alpha virt. eigenvalues --    2.47073   2.47855   2.49448   2.52337   2.54846
 Alpha virt. eigenvalues --    2.55610   2.59109   2.59698   2.63237   2.65884
 Alpha virt. eigenvalues --    2.67898   2.69617   2.72040   2.75836   2.76368
 Alpha virt. eigenvalues --    2.76495   2.78246   2.80456   2.80985   2.82926
 Alpha virt. eigenvalues --    2.86836   2.88167   2.90177   2.91918   2.92433
 Alpha virt. eigenvalues --    2.96411   2.97169   2.97376   2.99806   3.00188
 Alpha virt. eigenvalues --    3.00932   3.04150   3.04736   3.05573   3.07753
 Alpha virt. eigenvalues --    3.08018   3.09670   3.10529   3.11616   3.16619
 Alpha virt. eigenvalues --    3.16928   3.18684   3.21168   3.22846   3.23778
 Alpha virt. eigenvalues --    3.28795   3.30046   3.30896   3.32442   3.33559
 Alpha virt. eigenvalues --    3.34882   3.35408   3.39478   3.39754   3.42425
 Alpha virt. eigenvalues --    3.42715   3.45040   3.47285   3.49300   3.50116
 Alpha virt. eigenvalues --    3.51446   3.54969   3.57346   3.58883   3.61470
 Alpha virt. eigenvalues --    3.62491   3.66624   3.67595   3.70571   3.73404
 Alpha virt. eigenvalues --    3.73871   3.75709   3.78634   3.79327   3.79339
 Alpha virt. eigenvalues --    3.83717   3.85638   3.86037   3.88972   3.92577
 Alpha virt. eigenvalues --    3.93505   3.94526   3.95967   3.96779   3.97013
 Alpha virt. eigenvalues --    4.00286   4.01930   4.02632   4.05250   4.05415
 Alpha virt. eigenvalues --    4.08773   4.10847   4.12482   4.13695   4.14662
 Alpha virt. eigenvalues --    4.15668   4.17043   4.18394   4.19299   4.22848
 Alpha virt. eigenvalues --    4.24368   4.24899   4.29077   4.29294   4.34848
 Alpha virt. eigenvalues --    4.34924   4.37000   4.40536   4.41126   4.44303
 Alpha virt. eigenvalues --    4.45967   4.51605   4.62144   4.65040   4.65338
 Alpha virt. eigenvalues --    4.73245   4.75308   4.78179   4.79151   4.83503
 Alpha virt. eigenvalues --    4.86593   4.90179   4.92626   4.93015   4.97384
 Alpha virt. eigenvalues --    4.98309   5.01153   5.02750   5.06529   5.09083
 Alpha virt. eigenvalues --    5.10500   5.13268   5.15104   5.16065   5.19871
 Alpha virt. eigenvalues --    5.21011   5.21035   5.24433   5.27513   5.29299
 Alpha virt. eigenvalues --    5.33283   5.33853   5.37266   5.41924   5.47379
 Alpha virt. eigenvalues --    5.51930   5.63053   5.70506   5.75630   5.81604
 Alpha virt. eigenvalues --    5.85531   5.88022   5.89948   5.91674   5.94092
 Alpha virt. eigenvalues --    9.92034  12.03803  12.53080  13.15073  13.41540
          Condensed to atoms (all electrons):
               1          2          3          4          5          6
     1  C    4.883013   0.368091  -0.058923  -0.044331  -0.041920   0.395227
     2  C    0.368091   4.873098   0.368090   0.271538   0.292944  -0.039548
     3  C   -0.058923   0.368090   4.883013  -0.044330  -0.041920  -0.002935
     4  C   -0.044331   0.271538  -0.044330   5.033745   0.235068   0.008515
     5  C   -0.041920   0.292944  -0.041920   0.235068   4.994435  -0.005601
     6  H    0.395227  -0.039548  -0.002935   0.008515  -0.005601   0.611029
     7  H    0.395724  -0.026332   0.006683  -0.005550  -0.004810  -0.029705
     8  H    0.395146  -0.044141  -0.003019  -0.003025   0.008645  -0.031429
     9  H   -0.002935  -0.039548   0.395227   0.008515  -0.005601   0.005064
    10  H   -0.003019  -0.044141   0.395146  -0.003025   0.008645  -0.000805
    11  H    0.006683  -0.026332   0.395724  -0.005550  -0.004810  -0.000156
    12  H   -0.006428  -0.031033   0.004233  -0.026589   0.420841   0.001523
    13  H    0.004232  -0.031032  -0.006428  -0.026590   0.420841   0.000504
    14  H    0.004895  -0.038995  -0.008215   0.424469  -0.023432  -0.000538
    15  H   -0.008216  -0.038994   0.004895   0.424470  -0.023432  -0.000133
               7          8          9         10         11         12
     1  C    0.395724   0.395146  -0.002935  -0.003019   0.006683  -0.006428
     2  C   -0.026332  -0.044141  -0.039548  -0.044141  -0.026332  -0.031033
     3  C    0.006683  -0.003019   0.395227   0.395146   0.395724   0.004233
     4  C   -0.005550  -0.003025   0.008515  -0.003025  -0.005550  -0.026589
     5  C   -0.004810   0.008645  -0.005601   0.008645  -0.004810   0.420841
     6  H   -0.029705  -0.031429   0.005064  -0.000805  -0.000156   0.001523
     7  H    0.610566  -0.030323  -0.000156  -0.000248  -0.000404   0.002258
     8  H   -0.030323   0.615862  -0.000805   0.005202  -0.000248  -0.000058
     9  H   -0.000156  -0.000805   0.611029  -0.031429  -0.029705   0.000504
    10  H   -0.000248   0.005202  -0.031429   0.615862  -0.030323  -0.000376
    11  H   -0.000404  -0.000248  -0.029705  -0.030323   0.610566  -0.000239
    12  H    0.002258  -0.000058   0.000504  -0.000376  -0.000239   0.581298
    13  H   -0.000239  -0.000376   0.001523  -0.000058   0.002258  -0.030230
    14  H   -0.000138   0.000618  -0.000133   0.002426   0.002139   0.003048
    15  H    0.002139   0.002426  -0.000538   0.000618  -0.000138  -0.011282
              13         14         15
     1  C    0.004232   0.004895  -0.008216
     2  C   -0.031032  -0.038995  -0.038994
     3  C   -0.006428  -0.008215   0.004895
     4  C   -0.026590   0.424469   0.424470
     5  C    0.420841  -0.023432  -0.023432
     6  H    0.000504  -0.000538  -0.000133
     7  H   -0.000239  -0.000138   0.002139
     8  H   -0.000376   0.000618   0.002426
     9  H    0.001523  -0.000133  -0.000538
    10  H   -0.000058   0.002426   0.000618
    11  H    0.002258   0.002139  -0.000138
    12  H   -0.030230   0.003048  -0.011282
    13  H    0.581298  -0.011282   0.003048
    14  H   -0.011282   0.589759  -0.029733
    15  H    0.003048  -0.029733   0.589760
 Mulliken charges:
               1
     1  C   -0.287240
     2  C    0.186334
     3  C   -0.287240
     4  C   -0.247331
     5  C   -0.229893
     6  H    0.088986
     7  H    0.080533
     8  H    0.085524
     9  H    0.088987
    10  H    0.085524
    11  H    0.080534
    12  H    0.092530
    13  H    0.092530
    14  H    0.085111
    15  H    0.085111
 Sum of Mulliken charges =  -0.00000
 Mulliken charges with hydrogens summed into heavy atoms:
               1
     1  C   -0.032196
     2  C    0.186334
     3  C   -0.032196
     4  C   -0.077110
     5  C   -0.044833
 APT charges:
               1
     1  C   -0.980555
     2  C    0.130586
     3  C   -0.980556
     4  C   -0.644314
     5  C   -0.795152
     6  H    0.320125
     7  H    0.324222
     8  H    0.322579
     9  H    0.320126
    10  H    0.322578
    11  H    0.324222
    12  H    0.369176
    13  H    0.369177
    14  H    0.298891
    15  H    0.298893
 Sum of APT charges =  -0.00000
 APT charges with hydrogens summed into heavy atoms:
               1
     1  C   -0.013629
     2  C    0.130586
     3  C   -0.013630
     4  C   -0.046529
     5  C   -0.056798
 Electronic spatial extent (au):  <R**2>=            443.1264
 Charge=             -0.0000 electrons
 Dipole moment (field-independent basis, Debye):
    X=             -0.2067    Y=              0.0000    Z=              0.1535  Tot=              0.2575
 Quadrupole moment (field-independent basis, Debye-Ang):
   XX=            -35.0481   YY=            -32.5208   ZZ=            -35.0072
   XY=              0.0000   XZ=             -0.2744   YZ=             -0.0000
 Traceless Quadrupole moment (field-independent basis, Debye-Ang):
   XX=             -0.8561   YY=              1.6712   ZZ=             -0.8152
   XY=              0.0000   XZ=             -0.2744   YZ=             -0.0000
 Octapole moment (field-independent basis, Debye-Ang**2):
  XXX=             -3.5077  YYY=             -0.0000  ZZZ=              1.5411  XYY=              3.8204
  XXY=              0.0000  XXZ=             -1.4882  XZZ=             -1.6531  YZZ=             -0.0000
  YYZ=              0.2529  XYZ=             -0.0000
 Hexadecapole moment (field-independent basis, Debye-Ang**3):
 XXXX=           -281.8106 YYYY=           -243.5598 ZZZZ=           -124.5798 XXXY=              0.0000
 XXXZ=             -4.1426 YYYX=              0.0000 YYYZ=              0.0000 ZZZX=              1.2169
 ZZZY=             -0.0001 XXYY=            -85.1901 XXZZ=            -62.3714 YYZZ=            -59.9350
 XXYZ=              0.0000 YYXZ=             -0.2709 ZZXY=              0.0000
 N-N= 1.830767635725D+02 E-N=-8.200278294136D+02  KE= 1.947543140177D+02
  Exact polarizability:       0.000       0.000       0.000       0.000       0.000       0.000
 Approx polarizability:      86.991       0.000      82.941       0.779      -0.000      86.411
 No NMR shielding tensors so no spin-rotation constants.
 Leave Link  601 at Tue Apr 12 18:06:19 2022, MaxMem=  1073741824 cpu:               1.3 elap:               0.2
 (Enter /home/saurabh/gaussian/g16/l701.exe)
 ... and contract with generalized density number  0.
 Compute integral second derivatives.
 Leave Link  701 at Tue Apr 12 18:06:20 2022, MaxMem=  1073741824 cpu:               1.7 elap:               0.2
 (Enter /home/saurabh/gaussian/g16/l702.exe)
 L702 exits ... SP integral derivatives will be done elsewhere.
 Leave Link  702 at Tue Apr 12 18:06:20 2022, MaxMem=  1073741824 cpu:               0.1 elap:               0.0
 (Enter /home/saurabh/gaussian/g16/l703.exe)
 Integral derivatives from FoFJK, PRISM(SPDF).
 Compute integral second derivatives, UseDBF=F ICtDFT=           0.
 Calling FoFJK, ICntrl=    100127 FMM=F ISym2X=0 I1Cent= 0 IOpClX= 0 NMat=1 NMatS=1 NMatT=0.
 FoFJK:  IHMeth= 1 ICntrl=  100127 DoSepK=F KAlg= 0 I1Cent=           0 FoldK=F
 IRaf=         0 NMat=       1 IRICut=       1 DoRegI=T DoRafI=F ISym2E= 0 IDoP0=0 IntGTp=1.
 FoFCou: FMM=F IPFlag=           0 FMFlag=      100000 FMFlg1=         800
         NFxFlg=           0 DoJE=F BraDBF=F KetDBF=F FulRan=T
         wScrn=  0.000000 ICntrl=    100127 IOpCl=  0 I1Cent=           0 NGrid=           0
         NMat0=    1 NMatS0=      1 NMatT0=    0 NMatD0=    1 NMtDS0=    0 NMtDT0=    0
 Symmetry not used in FoFCou.
 Leave Link  703 at Tue Apr 12 18:08:26 2022, MaxMem=  1073741824 cpu:            1009.5 elap:             126.2
 (Enter /home/saurabh/gaussian/g16/l716.exe)
 Dipole        =-8.13145194D-02 8.94101467D-07 6.04087432D-02
 Polarizability= 0.00000000D+00 0.00000000D+00 0.00000000D+00
                 0.00000000D+00 0.00000000D+00 0.00000000D+00
 ***** Axes restored to original set *****
 -------------------------------------------------------------------
 Center     Atomic                   Forces (Hartrees/Bohr)
 Number     Number              X              Y              Z
 -------------------------------------------------------------------
      1        6          -0.008657620   -0.002362741   -0.001693589
      2        6           0.015225648    0.014162933   -0.018068510
      3        6          -0.004060318    0.003975866    0.007149413
      4        6          -0.036659143    0.007414593    0.013744914
      5        6           0.021726739   -0.042174102    0.018936622
      6        1           0.000984824   -0.008269129    0.007980649
      7        1          -0.010653096   -0.002472595   -0.008352853
      8        1           0.008441030    0.004777856   -0.004532616
      9        1          -0.000509927   -0.010330280    0.005105531
     10        1           0.006528783    0.002141393   -0.008210508
     11        1          -0.001524111    0.010114406    0.009205900
     12        1          -0.014629804    0.005054081   -0.021428383
     13        1           0.000179869    0.025474286    0.007056505
     14        1           0.020238501    0.007876003    0.012776012
     15        1           0.003368626   -0.015382572   -0.019669087
 -------------------------------------------------------------------
 Cartesian Forces:  Max     0.042174102 RMS     0.013875697
 FormGI is forming the generalized inverse of G from B-inverse, IUseBI=4.
 Leave Link  716 at Tue Apr 12 18:08:26 2022, MaxMem=  1073741824 cpu:               0.2 elap:               0.0
 (Enter /home/saurabh/gaussian/g16/l103.exe)

 GradGradGradGradGradGradGradGradGradGradGradGradGradGradGradGradGradGrad
 Berny optimization.
 Red2BG is reusing G-inverse.
 Internal  Forces:  Max     0.019629866 RMS     0.007612042
 Search for a local minimum.
 Step number   1 out of a maximum of  100
 All quantities printed in internal units (Hartrees-Bohrs-Radians)
 RMS Force = .76120D-02 SwitMx=.10000D-02 MixMth= 1
 Mixed Optimization -- RFO/linear search
 Second derivative matrix not updated -- analytic derivatives used.
 ITU=  0
     Eigenvalues ---    0.00211   0.00239   0.01696   0.01909   0.02045
     Eigenvalues ---    0.02206   0.02728   0.03092   0.04402   0.04414
     Eigenvalues ---    0.04548   0.04583   0.05995   0.06145   0.07758
     Eigenvalues ---    0.10423   0.11920   0.12249   0.13319   0.13828
     Eigenvalues ---    0.14425   0.14795   0.15243   0.18644   0.18856
     Eigenvalues ---    0.24439   0.25644   0.27491   0.28336   0.29431
     Eigenvalues ---    0.29524   0.29596   0.29762   0.29808   0.29889
     Eigenvalues ---    0.29973   0.30005   0.30685   0.30855
 RFO step:  Lambda=-2.87454361D-02 EMin= 2.11215029D-03
 Linear search not attempted -- first point.
 Maximum step size (   0.300) exceeded in Quadratic search.
    -- Step size scaled by   0.918
 Iteration  1 RMS(Cart)=  0.04800897 RMS(Int)=  0.00547109
 Iteration  2 RMS(Cart)=  0.00369043 RMS(Int)=  0.00422488
 Iteration  3 RMS(Cart)=  0.00001167 RMS(Int)=  0.00422485
 Iteration  4 RMS(Cart)=  0.00000015 RMS(Int)=  0.00422485
 ITry= 1 IFail=0 DXMaxC= 1.51D-01 DCOld= 1.00D+10 DXMaxT= 3.00D-01 DXLimC= 3.00D+00 Rises=F
 Variable       Old X    -DE/DX   Delta X   Delta X   Delta X     New X
                                 (Linear)    (Quad)   (Total)
    R1        2.89584  -0.00972   0.00000  -0.03045  -0.03045   2.86539
    R2        2.09811  -0.01122   0.00000  -0.02952  -0.02952   2.06859
    R3        2.10043  -0.01371   0.00000  -0.03538  -0.03538   2.06505
    R4        2.09749  -0.01010   0.00000  -0.02766  -0.02766   2.06983
    R5        2.89584  -0.00972   0.00000  -0.03045  -0.03045   2.86539
    R6        2.85941   0.00263   0.00000  -0.00813  -0.00746   2.85195
    R7        2.85740  -0.00261   0.00000  -0.01552  -0.01577   2.84164
    R8        2.09811  -0.01122   0.00000  -0.02952  -0.02952   2.06859
    R9        2.09749  -0.01010   0.00000  -0.02766  -0.02766   2.06983
   R10        2.10043  -0.01371   0.00000  -0.03538  -0.03538   2.06505
   R11        2.93065   0.00015   0.00000  -0.05120  -0.05162   2.87903
   R12        2.10013  -0.01963   0.00000  -0.05411  -0.05411   2.04603
   R13        2.10013  -0.01963   0.00000  -0.05411  -0.05411   2.04603
   R14        2.09938  -0.01909   0.00000  -0.05332  -0.05332   2.04606
   R15        2.09938  -0.01909   0.00000  -0.05332  -0.05332   2.04606
    A1        1.91311   0.00351   0.00000   0.01695   0.01683   1.92995
    A2        1.95709  -0.00350   0.00000  -0.01036  -0.01030   1.94679
    A3        1.90834   0.00507   0.00000   0.02519   0.02508   1.93342
    A4        1.89213  -0.00055   0.00000  -0.00677  -0.00672   1.88542
    A5        1.89960  -0.00349   0.00000  -0.01641  -0.01670   1.88290
    A6        1.89266  -0.00120   0.00000  -0.00956  -0.00949   1.88317
    A7        2.05182  -0.00702   0.00000  -0.04345  -0.04433   2.00750
    A8        2.06626   0.00266   0.00000   0.01021   0.01001   2.07627
    A9        1.99026   0.00327   0.00000   0.03527   0.03552   2.02578
   A10        2.06627   0.00266   0.00000   0.01021   0.01001   2.07627
   A11        1.99025   0.00327   0.00000   0.03527   0.03552   2.02578
   A12        1.91311   0.00351   0.00000   0.01695   0.01683   1.92995
   A13        1.90834   0.00507   0.00000   0.02519   0.02508   1.93342
   A14        1.95709  -0.00350   0.00000  -0.01036  -0.01030   1.94679
   A15        1.89960  -0.00349   0.00000  -0.01641  -0.01670   1.88290
   A16        1.89213  -0.00055   0.00000  -0.00677  -0.00672   1.88542
   A17        1.89266  -0.00120   0.00000  -0.00956  -0.00949   1.88317
   A18        1.89447   0.00874   0.00000   0.09574   0.09315   1.98761
   A19        1.89447   0.00874   0.00000   0.09574   0.09314   1.98761
   A20        2.07069   0.00309   0.00000   0.01172   0.00673   2.07742
   A21        2.07068   0.00309   0.00000   0.01173   0.00674   2.07742
   A22        2.12514  -0.00903   0.00000  -0.06354  -0.07453   2.05061
   A23        2.09964   0.00334   0.00000   0.01200   0.00018   2.09982
   A24        2.09965   0.00334   0.00000   0.01200   0.00018   2.09983
   A25        1.82232   0.00973   0.00000   0.13263   0.12747   1.94979
   A26        1.82232   0.00973   0.00000   0.13264   0.12747   1.94979
   A27        2.08362  -0.00617   0.00000  -0.01644  -0.04105   2.04256
    D1       -0.99303  -0.00181   0.00000  -0.03444  -0.03412  -1.02715
    D2        2.61833   0.00128   0.00000   0.01400   0.01357   2.63191
    D3        1.40452  -0.00086   0.00000   0.01534   0.01518   1.41970
    D4       -3.09540  -0.00122   0.00000  -0.03069  -0.03028  -3.12569
    D5        0.51596   0.00187   0.00000   0.01775   0.01741   0.53337
    D6       -0.69785  -0.00027   0.00000   0.01909   0.01902  -0.67883
    D7        1.08798  -0.00088   0.00000  -0.02903  -0.02853   1.05945
    D8       -1.58384   0.00220   0.00000   0.01941   0.01917  -1.56467
    D9       -2.79765   0.00006   0.00000   0.02075   0.02078  -2.77688
   D10        0.99303   0.00181   0.00000   0.03444   0.03412   1.02715
   D11       -1.08798   0.00088   0.00000   0.02903   0.02853  -1.05946
   D12        3.09540   0.00122   0.00000   0.03069   0.03028   3.12569
   D13       -2.61834  -0.00128   0.00000  -0.01400  -0.01357  -2.63191
   D14        1.58384  -0.00220   0.00000  -0.01941  -0.01917   1.56467
   D15       -0.51596  -0.00187   0.00000  -0.01775  -0.01741  -0.53337
   D16       -1.40452   0.00086   0.00000  -0.01534  -0.01518  -1.41970
   D17        2.79765  -0.00006   0.00000  -0.02075  -0.02077   2.77687
   D18        0.69785   0.00027   0.00000  -0.01909  -0.01902   0.67883
   D19        2.50576  -0.00187   0.00000   0.00253   0.00412   2.50988
   D20        0.16213  -0.00385   0.00000  -0.06589  -0.06832   0.09382
   D21       -0.16215   0.00385   0.00000   0.06589   0.06832  -0.09383
   D22       -2.50577   0.00187   0.00000  -0.00252  -0.00411  -2.50989
   D23        0.37150  -0.00980   0.00000  -0.17883  -0.17674   0.19476
   D24       -2.79574   0.01337   0.00000   0.16517   0.16146  -2.63428
   D25        2.79573  -0.01337   0.00000  -0.16516  -0.16145   2.63428
   D26       -0.37151   0.00980   0.00000   0.17884   0.17675  -0.19477
   D27       -2.57530   0.00722   0.00000   0.05991   0.05338  -2.52192
   D28       -0.37461   0.00996   0.00000   0.17505   0.17827  -0.19634
   D29        0.37460  -0.00996   0.00000  -0.17504  -0.17827   0.19633
   D30        2.57529  -0.00722   0.00000  -0.05990  -0.05338   2.52191
         Item               Value     Threshold  Converged?
 Maximum Force            0.019630     0.000450     NO 
 RMS     Force            0.007612     0.000300     NO 
 Maximum Displacement     0.151193     0.001800     NO 
 RMS     Displacement     0.048396     0.001200     NO 
 Predicted change in Energy=-1.840784D-02
 Lowest energy point so far.  Saving SCF results.
 GradGradGradGradGradGradGradGradGradGradGradGradGradGradGradGradGradGrad

 Leave Link  103 at Tue Apr 12 18:08:26 2022, MaxMem=  1073741824 cpu:               0.2 elap:               0.1
 (Enter /home/saurabh/gaussian/g16/l202.exe)
                          Input orientation:                          
 ---------------------------------------------------------------------
 Center     Atomic      Atomic             Coordinates (Angstroms)
 Number     Number       Type             X           Y           Z
 ---------------------------------------------------------------------
      1          6           0       -3.870526    2.136586    0.936578
      2          6           0       -3.706354    0.975734   -0.025002
      3          6           0       -4.866176    0.763793   -0.978449
      4          6           0       -2.883662   -0.215545    0.401242
      5          6           0       -2.331637    0.786961   -0.604416
      6          1           0       -4.006286    3.074191    0.388192
      7          1           0       -2.997714    2.247255    1.584743
      8          1           0       -4.748028    1.990635    1.575629
      9          1           0       -5.032915    1.658684   -1.586418
     10          1           0       -5.789253    0.555002   -0.427057
     11          1           0       -4.681818   -0.074773   -1.654456
     12          1           0       -1.489092    1.335274   -0.202208
     13          1           0       -2.207873    0.344222   -1.584705
     14          1           0       -3.265846   -1.163034    0.042827
     15          1           0       -2.545305   -0.169565    1.428696
 ---------------------------------------------------------------------
                    Distance matrix (angstroms):
                    1          2          3          4          5
     1  C    0.000000
     2  C    1.516300   0.000000
     3  C    2.557970   1.516300   0.000000
     4  C    2.606340   1.509189   2.606340   0.000000
     5  C    2.562095   1.503730   2.562094   1.523515   0.000000
     6  H    1.094650   2.159678   2.818698   3.476034   3.003521
     7  H    1.092779   2.170303   3.501680   2.734788   2.714504
     8  H    1.095307   2.162667   2.835915   3.118056   3.469924
     9  H    2.818697   2.159677   1.094650   3.476034   3.003520
    10  H    2.835917   2.162667   1.095307   3.118056   3.469923
    11  H    3.501680   2.170303   1.092779   2.734789   2.714501
    12  H    2.758652   2.253203   3.511956   2.171178   1.082729
    13  H    3.511959   2.253204   2.758652   2.171178   1.082729
    14  H    3.471588   2.184715   2.704944   1.082710   2.257023
    15  H    2.704945   2.184716   3.471591   1.082710   2.257020
                    6          7          8          9         10
     6  H    0.000000
     7  H    1.769964   0.000000
     8  H    1.770390   1.769050   0.000000
     9  H    2.637558   3.813754   3.192162   0.000000
    10  H    3.192165   3.834547   2.675060   1.770390   0.000000
    11  H    3.813755   4.326711   3.834546   1.769964   1.769050
    12  H    3.115873   2.510147   3.769730   3.818287   4.376159
    13  H    3.818291   3.780315   4.376160   3.115876   3.769729
    14  H    4.315275   3.752262   3.806832   3.706625   3.088692
    15  H    3.706625   2.463747   3.088697   4.315277   3.806838
                   11         12         13         14         15
    11  H    0.000000
    12  H    3.780312   0.000000
    13  H    2.510145   1.846654   0.000000
    14  H    2.463749   3.075458   2.457639   0.000000
    15  H    3.752266   2.457636   3.075455   1.851159   0.000000
 Stoichiometry    C5H10
 Framework group  C1[X(C5H10)]
 Deg. of freedom    39
 Full point group                 C1      NOp   1
 RotChk:  IX=1 Diff= 2.99D-02
 Largest Abelian subgroup         C1      NOp   1
 Largest concise Abelian subgroup C1      NOp   1
                         Standard orientation:                         
 ---------------------------------------------------------------------
 Center     Atomic      Atomic             Coordinates (Angstroms)
 Number     Number       Type             X           Y           Z
 ---------------------------------------------------------------------
      1          6           0       -0.965030    1.278985   -0.001291
      2          6           0       -0.151256    0.000000    0.032422
      3          6           0       -0.965029   -1.278985   -0.001290
      4          6           0        1.181049    0.000002    0.741376
      5          6           0        1.113702   -0.000001   -0.780649
      6          1           0       -1.581957    1.318779   -0.904661
      7          1           0       -0.323200    2.163355    0.009119
      8          1           0       -1.632852    1.337529    0.864898
      9          1           0       -1.581957   -1.318780   -0.904659
     10          1           0       -1.632850   -1.337531    0.864900
     11          1           0       -0.323198   -2.163356    0.009119
     12          1           0        1.494720    0.923326   -1.198495
     13          1           0        1.494724   -0.923328   -1.198491
     14          1           0        1.402974   -0.925576    1.257434
     15          1           0        1.402978    0.925583    1.257427
 ---------------------------------------------------------------------
 Rotational constants (GHZ):           6.1324549           5.2378631           3.8120488
 Leave Link  202 at Tue Apr 12 18:08:26 2022, MaxMem=  1073741824 cpu:               0.1 elap:               0.0
 (Enter /home/saurabh/gaussian/g16/l301.exe)
 Standard basis: CC-pVTZ (5D, 7F)
 Ernie: Thresh=  0.10000D-02 Tol=  0.10000D-05 Strict=F.
 Ernie:  15 primitive shells out of 210 were deleted.
 There are   325 symmetry adapted cartesian basis functions of A   symmetry.
 There are   290 symmetry adapted basis functions of A   symmetry.
   290 basis functions,   430 primitive gaussians,   325 cartesian basis functions
    20 alpha electrons       20 beta electrons
       nuclear repulsion energy       184.5778629731 Hartrees.
 IExCor=  402 DFT=T Ex+Corr=B3LYP ExCW=0 ScaHFX=  0.200000
 ScaDFX=  0.800000  0.720000  1.000000  0.810000 ScalE2=  1.000000  1.000000
 IRadAn=      5 IRanWt=     -1 IRanGd=            0 ICorTp=0 IEmpDi=  4
 NAtoms=   15 NActive=   15 NUniq=   15 SFac= 1.00D+00 NAtFMM=   60 NAOKFM=F Big=F
 Integral buffers will be    131072 words long.
 Raffenetti 2 integral format.
 Two-electron integral symmetry is turned on.
 Leave Link  301 at Tue Apr 12 18:08:26 2022, MaxMem=  1073741824 cpu:               0.4 elap:               0.1
 (Enter /home/saurabh/gaussian/g16/l302.exe)
 NPDir=0 NMtPBC=     1 NCelOv=     1 NCel=       1 NClECP=     1 NCelD=      1
         NCelK=      1 NCelE2=     1 NClLst=     1 CellRange=     0.0.
 One-electron integrals computed using PRISM.
 One-electron integral symmetry used in STVInt
 NBasis=   290 RedAO= T EigKep=  3.54D-04  NBF=   290
 NBsUse=   290 1.00D-06 EigRej= -1.00D+00 NBFU=   290
 Precomputing XC quadrature grid using
 IXCGrd= 4 IRadAn=           5 IRanWt=          -1 IRanGd=           0 AccXCQ= 0.00D+00.
 Generated NRdTot=       0 NPtTot=           0 NUsed=           0 NTot=          32
 NSgBfM=   325   325   325   325   325 MxSgAt=    15 MxSgA2=    15.
 Leave Link  302 at Tue Apr 12 18:08:26 2022, MaxMem=  1073741824 cpu:               1.8 elap:               0.2
 (Enter /home/saurabh/gaussian/g16/l303.exe)
 DipDrv:  MaxL=1.
 Leave Link  303 at Tue Apr 12 18:08:26 2022, MaxMem=  1073741824 cpu:               0.3 elap:               0.1
 (Enter /home/saurabh/gaussian/g16/l401.exe)
 Initial guess from the checkpoint file:  "Mol_05.chk"
 B after Tr=    -0.000000   -0.000000    0.000000
         Rot=    0.999991   -0.000000   -0.004210   -0.000001 Ang=  -0.48 deg.
 Guess basis will be translated and rotated to current coordinates.
 JPrj=2 DoOrth=T DoCkMO=T.
 Generating alternative initial guess.
 ExpMin= 1.03D-01 ExpMax= 8.24D+03 ExpMxC= 2.81D+02 IAcc=3 IRadAn=         5 AccDes= 0.00D+00
 Harris functional with IExCor=  402 and IRadAn=       5 diagonalized for initial guess.
 HarFok:  IExCor=  402 AccDes= 0.00D+00 IRadAn=         5 IDoV= 1 UseB2=F ITyADJ=14
 ICtDFT=  3500011 ScaDFX=  1.000000  1.000000  1.000000  1.000000
 FoFCou: FMM=F IPFlag=           0 FMFlag=      100000 FMFlg1=           0
         NFxFlg=           0 DoJE=T BraDBF=F KetDBF=T FulRan=T
         wScrn=  0.000000 ICntrl=       500 IOpCl=  0 I1Cent=   200000004 NGrid=           0
         NMat0=    1 NMatS0=      1 NMatT0=    0 NMatD0=    1 NMtDS0=    0 NMtDT0=    0
 Petite list used in FoFCou.
 Harris En= -196.672784892718    
 Leave Link  401 at Tue Apr 12 18:08:27 2022, MaxMem=  1073741824 cpu:               7.9 elap:               1.0
 (Enter /home/saurabh/gaussian/g16/l502.exe)
 Integral symmetry usage will be decided dynamically.
 Closed shell SCF:
 Using DIIS extrapolation, IDIIS=  1040.
 NGot=  1073741824 LenX=  1073524648 LenY=  1073418582
 Requested convergence on RMS density matrix=1.00D-08 within1000 cycles.
 Requested convergence on MAX density matrix=1.00D-06.
 Requested convergence on             energy=1.00D-06.
 No special actions if energy rises.
 Fock matrices will be formed incrementally for  20 cycles.
 Integral accuracy reduced to 1.0D-05 until final iterations.

 Cycle   1  Pass 0  IDiag  1:
 FoFJK:  IHMeth= 1 ICntrl=       0 DoSepK=F KAlg= 0 I1Cent=           0 FoldK=F
 IRaf= 990000000 NMat=       1 IRICut=       1 DoRegI=T DoRafI=F ISym2E= 0 IDoP0=0 IntGTp=1.
 FoFCou: FMM=F IPFlag=           0 FMFlag=      100000 FMFlg1=           0
         NFxFlg=           0 DoJE=F BraDBF=F KetDBF=F FulRan=T
         wScrn=  0.000000 ICntrl=         0 IOpCl=  0 I1Cent=           0 NGrid=           0
         NMat0=    1 NMatS0=      1 NMatT0=    0 NMatD0=    1 NMtDS0=    0 NMtDT0=    0
 Symmetry not used in FoFCou.
 E= -196.594243409891    
 DIIS: error= 5.73D-03 at cycle   1 NSaved=   1.
 NSaved= 1 IEnMin= 1 EnMin= -196.594243409891     IErMin= 1 ErrMin= 5.73D-03
 ErrMax= 5.73D-03  0.00D+00 EMaxC= 1.00D-01 BMatC= 6.28D-03 BMatP= 6.28D-03
 IDIUse=3 WtCom= 9.43D-01 WtEn= 5.73D-02
 Coeff-Com:  0.100D+01
 Coeff-En:   0.100D+01
 Coeff:      0.100D+01
 Gap=     0.766 Goal=   None    Shift=    0.000
 GapD=    0.766 DampG=2.000 DampE=1.000 DampFc=2.0000 IDamp=-1.
 RMSDP=2.28D-04 MaxDP=5.93D-03              OVMax= 2.71D-02

 Cycle   2  Pass 0  IDiag  1:
 RMSU=  2.27D-04    CP:  9.99D-01
 E= -196.598686461737     Delta-E=       -0.004443051846 Rises=F Damp=F
 DIIS: error= 1.66D-03 at cycle   2 NSaved=   2.
 NSaved= 2 IEnMin= 2 EnMin= -196.598686461737     IErMin= 2 ErrMin= 1.66D-03
 ErrMax= 1.66D-03  0.00D+00 EMaxC= 1.00D-01 BMatC= 3.41D-04 BMatP= 6.28D-03
 IDIUse=3 WtCom= 9.83D-01 WtEn= 1.66D-02
 Coeff-Com:  0.654D-01 0.935D+00
 Coeff-En:   0.000D+00 0.100D+01
 Coeff:      0.643D-01 0.936D+00
 Gap=     0.302 Goal=   None    Shift=    0.000
 RMSDP=9.65D-05 MaxDP=3.13D-03 DE=-4.44D-03 OVMax= 8.99D-03

 Cycle   3  Pass 0  IDiag  1:
 RMSU=  9.31D-05    CP:  9.99D-01  8.89D-01
 E= -196.598624709586     Delta-E=        0.000061752151 Rises=F Damp=F
 DIIS: error= 2.08D-03 at cycle   3 NSaved=   3.
 NSaved= 3 IEnMin= 2 EnMin= -196.598686461737     IErMin= 2 ErrMin= 1.66D-03
 ErrMax= 2.08D-03  0.00D+00 EMaxC= 1.00D-01 BMatC= 4.18D-04 BMatP= 3.41D-04
 IDIUse=3 WtCom= 1.80D-01 WtEn= 8.20D-01
 Coeff-Com: -0.114D-01 0.529D+00 0.482D+00
 Coeff-En:   0.000D+00 0.537D+00 0.463D+00
 Coeff:     -0.206D-02 0.535D+00 0.467D+00
 Gap=     0.306 Goal=   None    Shift=    0.000
 RMSDP=5.11D-05 MaxDP=1.51D-03 DE= 6.18D-05 OVMax= 4.60D-03

 Cycle   4  Pass 0  IDiag  1:
 RMSU=  1.23D-05    CP:  9.99D-01  9.72D-01  5.08D-01
 E= -196.599050355717     Delta-E=       -0.000425646130 Rises=F Damp=F
 DIIS: error= 9.66D-05 at cycle   4 NSaved=   4.
 NSaved= 4 IEnMin= 4 EnMin= -196.599050355717     IErMin= 4 ErrMin= 9.66D-05
 ErrMax= 9.66D-05  0.00D+00 EMaxC= 1.00D-01 BMatC= 1.61D-06 BMatP= 3.41D-04
 IDIUse=1 WtCom= 1.00D+00 WtEn= 0.00D+00
 Coeff-Com: -0.497D-02 0.138D+00 0.126D+00 0.741D+00
 Coeff:     -0.497D-02 0.138D+00 0.126D+00 0.741D+00
 Gap=     0.306 Goal=   None    Shift=    0.000
 RMSDP=3.89D-06 MaxDP=1.70D-04 DE=-4.26D-04 OVMax= 4.61D-04

 Initial convergence to 1.0D-05 achieved.  Increase integral accuracy.
 Cycle   5  Pass 1  IDiag  1:
 E= -196.599044274444     Delta-E=        0.000006081273 Rises=F Damp=F
 DIIS: error= 4.62D-05 at cycle   1 NSaved=   1.
 NSaved= 1 IEnMin= 1 EnMin= -196.599044274444     IErMin= 1 ErrMin= 4.62D-05
 ErrMax= 4.62D-05  0.00D+00 EMaxC= 1.00D-01 BMatC= 7.25D-07 BMatP= 7.25D-07
 IDIUse=1 WtCom= 1.00D+00 WtEn= 0.00D+00
 Coeff-Com:  0.100D+01
 Coeff:      0.100D+01
 Gap=     0.306 Goal=   None    Shift=    0.000
 RMSDP=3.89D-06 MaxDP=1.70D-04 DE= 6.08D-06 OVMax= 3.92D-04

 Cycle   6  Pass 1  IDiag  1:
 RMSU=  4.77D-06    CP:  1.00D+00
 E= -196.599043970886     Delta-E=        0.000000303558 Rises=F Damp=F
 DIIS: error= 6.22D-05 at cycle   2 NSaved=   2.
 NSaved= 2 IEnMin= 1 EnMin= -196.599044274444     IErMin= 1 ErrMin= 4.62D-05
 ErrMax= 6.22D-05  0.00D+00 EMaxC= 1.00D-01 BMatC= 9.54D-07 BMatP= 7.25D-07
 IDIUse=1 WtCom= 1.00D+00 WtEn= 0.00D+00
 Coeff-Com:  0.536D+00 0.464D+00
 Coeff:      0.536D+00 0.464D+00
 Gap=     0.306 Goal=   None    Shift=    0.000
 RMSDP=1.92D-06 MaxDP=1.10D-04 DE= 3.04D-07 OVMax= 2.34D-04

 Cycle   7  Pass 1  IDiag  1:
 RMSU=  1.64D-06    CP:  1.00D+00  7.93D-01
 E= -196.599044802105     Delta-E=       -0.000000831219 Rises=F Damp=F
 DIIS: error= 9.16D-06 at cycle   3 NSaved=   3.
 NSaved= 3 IEnMin= 3 EnMin= -196.599044802105     IErMin= 3 ErrMin= 9.16D-06
 ErrMax= 9.16D-06  0.00D+00 EMaxC= 1.00D-01 BMatC= 9.59D-09 BMatP= 7.25D-07
 IDIUse=1 WtCom= 1.00D+00 WtEn= 0.00D+00
 Coeff-Com:  0.514D-01 0.108D+00 0.841D+00
 Coeff:      0.514D-01 0.108D+00 0.841D+00
 Gap=     0.306 Goal=   None    Shift=    0.000
 RMSDP=3.47D-07 MaxDP=1.34D-05 DE=-8.31D-07 OVMax= 3.84D-05

 Cycle   8  Pass 1  IDiag  1:
 RMSU=  2.70D-07    CP:  1.00D+00  8.14D-01  8.83D-01
 E= -196.599044807287     Delta-E=       -0.000000005183 Rises=F Damp=F
 DIIS: error= 4.90D-06 at cycle   4 NSaved=   4.
 NSaved= 4 IEnMin= 4 EnMin= -196.599044807287     IErMin= 4 ErrMin= 4.90D-06
 ErrMax= 4.90D-06  0.00D+00 EMaxC= 1.00D-01 BMatC= 4.03D-09 BMatP= 9.59D-09
 IDIUse=1 WtCom= 1.00D+00 WtEn= 0.00D+00
 Coeff-Com: -0.187D-02 0.346D-01 0.490D+00 0.478D+00
 Coeff:     -0.187D-02 0.346D-01 0.490D+00 0.478D+00
 Gap=     0.306 Goal=   None    Shift=    0.000
 RMSDP=1.49D-07 MaxDP=4.39D-06 DE=-5.18D-09 OVMax= 1.40D-05

 Cycle   9  Pass 1  IDiag  1:
 RMSU=  3.70D-08    CP:  1.00D+00  8.14D-01  9.16D-01  5.07D-01
 E= -196.599044811416     Delta-E=       -0.000000004129 Rises=F Damp=F
 DIIS: error= 4.23D-07 at cycle   5 NSaved=   5.
 NSaved= 5 IEnMin= 5 EnMin= -196.599044811416     IErMin= 5 ErrMin= 4.23D-07
 ErrMax= 4.23D-07  0.00D+00 EMaxC= 1.00D-01 BMatC= 2.02D-11 BMatP= 4.03D-09
 IDIUse=1 WtCom= 1.00D+00 WtEn= 0.00D+00
 Coeff-Com: -0.140D-02 0.133D-01 0.199D+00 0.202D+00 0.587D+00
 Coeff:     -0.140D-02 0.133D-01 0.199D+00 0.202D+00 0.587D+00
 Gap=     0.306 Goal=   None    Shift=    0.000
 RMSDP=1.22D-08 MaxDP=4.79D-07 DE=-4.13D-09 OVMax= 1.62D-06

 Cycle  10  Pass 1  IDiag  1:
 RMSU=  1.10D-08    CP:  1.00D+00  8.14D-01  9.17D-01  5.07D-01  8.70D-01
 E= -196.599044811432     Delta-E=       -0.000000000016 Rises=F Damp=F
 DIIS: error= 1.57D-07 at cycle   6 NSaved=   6.
 NSaved= 6 IEnMin= 6 EnMin= -196.599044811432     IErMin= 6 ErrMin= 1.57D-07
 ErrMax= 1.57D-07  0.00D+00 EMaxC= 1.00D-01 BMatC= 2.15D-12 BMatP= 2.02D-11
 IDIUse=1 WtCom= 1.00D+00 WtEn= 0.00D+00
 Coeff-Com: -0.351D-03 0.158D-02 0.282D-01 0.302D-01 0.256D+00 0.684D+00
 Coeff:     -0.351D-03 0.158D-02 0.282D-01 0.302D-01 0.256D+00 0.684D+00
 Gap=     0.306 Goal=   None    Shift=    0.000
 RMSDP=4.15D-09 MaxDP=1.61D-07 DE=-1.57D-11 OVMax= 5.58D-07

 SCF Done:  E(RB3LYP) =  -196.599044811     A.U. after   10 cycles
            NFock= 10  Conv=0.41D-08     -V/T= 2.0076
 KE= 1.951135196290D+02 PE=-8.233454565471D+02 EE= 2.470550291336D+02
 Leave Link  502 at Tue Apr 12 18:08:54 2022, MaxMem=  1073741824 cpu:             209.7 elap:              26.2
 (Enter /home/saurabh/gaussian/g16/l701.exe)
 ... and contract with generalized density number  0.
 Compute integral first derivatives.
 Leave Link  701 at Tue Apr 12 18:08:54 2022, MaxMem=  1073741824 cpu:               1.3 elap:               0.2
 (Enter /home/saurabh/gaussian/g16/l702.exe)
 L702 exits ... SP integral derivatives will be done elsewhere.
 Leave Link  702 at Tue Apr 12 18:08:54 2022, MaxMem=  1073741824 cpu:               0.2 elap:               0.0
 (Enter /home/saurabh/gaussian/g16/l703.exe)
 Integral derivatives from FoFJK, PRISM(SPDF).
 Compute integral first derivatives, UseDBF=F ICtDFT=           0.
 Calling FoFJK, ICntrl=      2127 FMM=F ISym2X=0 I1Cent= 0 IOpClX= 0 NMat=1 NMatS=1 NMatT=0.
 FoFJK:  IHMeth= 1 ICntrl=    2127 DoSepK=F KAlg= 0 I1Cent=           0 FoldK=F
 IRaf=         0 NMat=       1 IRICut=       1 DoRegI=T DoRafI=F ISym2E= 0 IDoP0=0 IntGTp=1.
 FoFCou: FMM=F IPFlag=           0 FMFlag=      100000 FMFlg1=         800
         NFxFlg=           0 DoJE=F BraDBF=F KetDBF=F FulRan=T
         wScrn=  0.000000 ICntrl=      2127 IOpCl=  0 I1Cent=           0 NGrid=           0
         NMat0=    1 NMatS0=      1 NMatT0=    0 NMatD0=    1 NMtDS0=    0 NMtDT0=    0
 Symmetry not used in FoFCou.
 Leave Link  703 at Tue Apr 12 18:09:07 2022, MaxMem=  1073741824 cpu:             102.3 elap:              12.8
 (Enter /home/saurabh/gaussian/g16/l716.exe)
 Dipole        =-4.75916802D-02 2.55008806D-07 2.03568102D-02
 ***** Axes restored to original set *****
 -------------------------------------------------------------------
 Center     Atomic                   Forces (Hartrees/Bohr)
 Number     Number              X              Y              Z
 -------------------------------------------------------------------
      1        6          -0.003157543   -0.002122689    0.000681049
      2        6           0.006631114    0.008511017   -0.009548744
      3        6          -0.001710991   -0.000128191    0.003463723
      4        6          -0.018275324    0.008012911    0.003757639
      5        6           0.007726877   -0.021653805    0.011505359
      6        1           0.000070988   -0.000853602    0.001226215
      7        1          -0.001127450   -0.000152919   -0.000987893
      8        1           0.001219066    0.000852291   -0.000296515
      9        1          -0.000308525   -0.001376905    0.000496228
     10        1           0.000666406    0.000090323   -0.001359478
     11        1          -0.000146202    0.001200023    0.000899464
     12        1          -0.002269150    0.006121011   -0.007018713
     13        1          -0.000048492    0.009183273   -0.002747337
     14        1           0.006681592   -0.002025833    0.002497098
     15        1           0.004047633   -0.005656905   -0.002568094
 -------------------------------------------------------------------
 Cartesian Forces:  Max     0.021653805 RMS     0.005996457
 Leave Link  716 at Tue Apr 12 18:09:07 2022, MaxMem=  1073741824 cpu:               0.2 elap:               0.0
 (Enter /home/saurabh/gaussian/g16/l103.exe)

 GradGradGradGradGradGradGradGradGradGradGradGradGradGradGradGradGradGrad
 Berny optimization.
 Using GEDIIS/GDIIS optimizer.
 FormGI is forming the generalized inverse of G from B-inverse, IUseBI=4.
 Internal  Forces:  Max     0.005820283 RMS     0.002159888
 Search for a local minimum.
 Step number   2 out of a maximum of  100
 All quantities printed in internal units (Hartrees-Bohrs-Radians)
 RMS Force = .21599D-02 SwitMx=.10000D-02 MixMth= 1
 Mixed Optimization -- RFO/linear search
 Update second derivatives using D2CorX and points    1    2
 DE= -1.81D-02 DEPred=-1.84D-02 R= 9.85D-01
 TightC=F SS=  1.41D+00  RLast= 5.38D-01 DXNew= 5.0454D-01 1.6146D+00
 Trust test= 9.85D-01 RLast= 5.38D-01 DXMaxT set to 5.05D-01
 ITU=  1  0
 Use linear search instead of GDIIS.
     Eigenvalues ---    0.00211   0.00239   0.01707   0.01909   0.02045
     Eigenvalues ---    0.02220   0.02717   0.03091   0.04402   0.04414
     Eigenvalues ---    0.04548   0.04582   0.05927   0.06128   0.07646
     Eigenvalues ---    0.10414   0.11918   0.12248   0.13307   0.13819
     Eigenvalues ---    0.14347   0.14721   0.15230   0.18613   0.18816
[...]
 --------------------------------------------------------------------------------
 GradGradGradGradGradGradGradGradGradGradGradGradGradGradGradGradGradGrad

 Leave Link  103 at Tue Apr 12 18:15:37 2022, MaxMem=  1073741824 cpu:               0.2 elap:               0.0
 (Enter /home/saurabh/gaussian/g16/l9999.exe)

 ----------------------------------------------------------------------

 Electric dipole moment (input orientation):
 (Debye = 10**-18 statcoulomb cm , SI units = C m)
                  (au)            (Debye)         (10**-30 SI)
   Tot        0.441903D-01      0.112321D+00      0.374661D+00
   x         -0.364013D-01     -0.925229D-01     -0.308623D+00
   y          0.250354D-01      0.636337D-01      0.212259D+00
   z          0.978813D-03      0.248790D-02      0.829873D-02

 Dipole polarizability, Alpha (input orientation).
 (esu units = cm**3 , SI units = C**2 m**2 J**-1)
 Alpha(0;0):
               (au)            (10**-24 esu)      (10**-40 SI)
   iso        0.589573D+02      0.873657D+01      0.972075D+01
   aniso      0.583073D+01      0.864025D+00      0.961358D+00
   xx         0.607342D+02      0.899988D+01      0.100137D+02
   yx        -0.250890D+01     -0.371781D+00     -0.413662D+00
   yy         0.587361D+02      0.870379D+01      0.968427D+01
   zx         0.749060D+00      0.110999D+00      0.123503D+00
   zy         0.128981D+01      0.191130D+00      0.212660D+00
   zz         0.574017D+02      0.850605D+01      0.946426D+01

 ----------------------------------------------------------------------

 Dipole orientation:
     6          0.82906056         -1.55655168          8.35738312
     6         -1.55849119         -1.84931579          6.80814613
     6         -3.94603289         -2.14216103          8.35738328
     6         -1.38486050         -3.26511134          4.34578922
     6         -1.73234497         -0.43170222          4.34661527
     1          0.72433356          0.11015009          9.57282938
     1          2.48909537         -1.35247440          7.15249824
     1          1.13071470         -3.19962298          9.57210212
     1         -4.24715495         -0.49954480          9.57282953
     1         -3.84171207         -3.80943294          9.57210231
     1         -5.60618702         -2.34526609          7.15249852
     1         -0.14552762          0.72706125          3.78276742
     1         -3.55214397          0.30927959          3.78276753
     1         -2.97181352         -4.42325030          3.78109089
     1          0.43491909         -4.00545442          3.78109080

 Electric dipole moment (dipole orientation):
 (Debye = 10**-18 statcoulomb cm , SI units = C m)
                  (au)            (Debye)         (10**-30 SI)
   Tot        0.441903D-01      0.112321D+00      0.374661D+00
   x          0.000000D+00      0.000000D+00      0.000000D+00
   y          0.000000D+00      0.000000D+00      0.000000D+00
   z          0.441903D-01      0.112321D+00      0.374661D+00

 Dipole polarizability, Alpha (dipole orientation).
 (esu units = cm**3 , SI units = C**2 m**2 J**-1)
 Alpha(0;0):
               (au)            (10**-24 esu)      (10**-40 SI)
   iso        0.589573D+02      0.873657D+01      0.972075D+01
   aniso      0.583073D+01      0.864025D+00      0.961358D+00
   xx         0.586713D+02      0.869419D+01      0.967359D+01
   yx         0.362154D+00      0.536657D-01      0.597112D-01
   yy         0.557627D+02      0.826318D+01      0.919402D+01
   zx         0.392895D-03      0.582210D-04      0.647796D-04
   zy        -0.320176D-02     -0.474452D-03     -0.527899D-03
   zz         0.624380D+02      0.925236D+01      0.102946D+02

 ----------------------------------------------------------------------
 Unable to Open any file for archive entry.
 1\1\GINC-MEDIAWIKI\Freq\RB3LYP\CC-pVTZ\C5H10\SAURABH\12-Apr-2022\0\\#P
  Geom=AllCheck Guess=TCheck SCRF=Check GenChk RB3LYP/CC-pVTZ Freq\\Mol
 _05\\0,1\C,-3.8716049836,2.1407874327,0.9260010533\C,-3.6917348243,0.9
 932103787,-0.0451307308\C,-4.8625192274,0.774523372,-0.9799158338\C,-2
 .9295590959,-0.2169995468,0.4261466758\C,-2.3071694459,0.7278535032,-0
 .5747645086\H,-4.0173705575,3.0849048987,0.3949224478\H,-3.0017860052,
 2.2547183545,1.5743118325\H,-4.7444177078,1.9813857205,1.5643211424\H,
 -5.0490401525,1.662447694,-1.589382995\H,-5.7762820236,0.5586600673,-0
 .4203587953\H,-4.6816967203,-0.0615281323,-1.6568155899\H,-1.499149472
 6,1.3628382685,-0.2370689854\H,-2.2060811192,0.3881269714,-1.596775902
 3\H,-3.2455147097,-1.1901265413,0.0749768185\H,-2.5385589577,-0.215381
 9834,1.434730152\\Version=ES64L-G16RevC.01\State=1-A\HF=-196.6034084\R
 MSD=1.395e-09\RMSF=1.505e-05\ZeroPoint=0.1367968\Thermal=0.1427285\ETo
 t=-196.4606799\HTot=-196.4597357\GTot=-196.4949054\Dipole=-0.0364013,0
 .0250354,0.0009788\DipoleDeriv=0.0750512,-0.0039856,-0.0508664,-0.0175
 013,0.1184986,-0.0412105,-0.0636221,-0.0328119,0.0802366,0.0329667,0.0
 812215,-0.003469,0.0813111,0.0959129,-0.0119025,-0.0035333,-0.0118559,
 0.1486178,0.1191356,-0.0022292,-0.0218479,0.0112807,0.0767973,-0.06275
 09,-0.0090881,-0.0711525,0.0778535,0.0402012,0.0318816,-0.0092975,0.04
 93555,-0.0986304,0.0925536,-0.0218237,0.1016385,0.0047631,-0.1010771,-
 0.0090463,0.0935114,-0.0265579,0.0483607,0.0266742,0.1060647,0.0175697
 ,-0.0014304,0.0513518,0.0374794,0.0005512,0.0586233,-0.1471163,0.04342
 9,-0.0063558,0.1080351,-0.0111396,-0.0837503,-0.0335648,-0.1219571,0.0
 09384,0.0407157,-0.0137412,-0.0814117,-0.0404325,-0.0273432,-0.0974473
 ,0.0113497,0.129007,-0.0322155,0.0180489,0.0212682,0.1147372,-0.029380
 9,-0.0275771,0.0067376,0.0132248,-0.0271674,0.058985,-0.0952451,0.1242
 215,-0.0682209,0.0943999,-0.0183966,-0.1484666,-0.0199224,0.044909,-0.
 0432436,0.0567169,0.0194044,0.1071266,0.0352783,-0.0152257,0.0335945,0
 .04995,0.0298451,0.0070084,-0.0704905,-0.1202,-0.0107055,-0.0935049,-0
 .0334818,-0.0610525,-0.0772558,0.0015745,-0.1041552,0.0062929,-0.00865
 31,-0.0373743,-0.0422677,0.0175566,0.0323716,-0.0185663,0.0130001,-0.0
 101128,0.0392729,-0.0597759,0.065172,-0.0357516,-0.1088476,0.056956,-0
 .0598996,-0.0116192,-0.0308398,-0.1117375,-0.0037575,-0.0283435,-0.051
 1818,0.0176131,0.0434275,-0.000637,-0.0661737,-0.011322,0.0226029,-0.0
 055593,-0.0626215,0.0514183,-0.1031988\Polar=60.7342242,-2.5089,58.736
 0898,0.7490604,1.2898059,57.4016618\Quadrupole=-0.3174716,-0.0313575,0
 .3488291,0.3978509,0.2513442,0.3278333\PG=C01 [X(C5H10)]\NImag=0\\0.56
 575895,0.00777451,0.50245834,0.01722788,-0.03991220,0.52293214,-0.0788
 1272,0.01058865,0.00502057,0.53547347,0.01024304,-0.14262796,-0.061375
 63,-0.09288454,0.45889545,0.00469948,-0.06117042,-0.12563864,0.0619316
 3,0.09677175,0.42495351,0.00291239,-0.00211261,-0.00062320,-0.14570855
 ,-0.01253149,-0.05840871,0.50220378,-0.02062066,-0.00506028,-0.0182681
 6,-0.01286730,-0.07919679,-0.01589361,-0.01418162,0.56273505,-0.018094
 77,-0.00675955,-0.01692434,-0.05873683,-0.01568330,-0.12217399,-0.0430
 4063,0.00330542,0.52621061,-0.00373275,0.00642087,0.00143880,-0.076400
 39,0.04628039,-0.03110828,-0.00832897,0.02176045,-0.01581016,0.2837057
 7,0.00358778,-0.02645064,0.01290690,0.08311818,-0.15286012,0.01444744,
 0.00298724,0.00260917,0.00015810,0.07228632,0.60643580,0.00271377,-0.0
 1695920,0.01086122,-0.05751559,0.03359995,-0.06660586,-0.00159658,0.01
 879076,-0.01360236,0.14407837,0.00116823,0.58474687,-0.00619258,0.0035
 2473,0.00562712,-0.18317161,0.03867899,0.02986103,-0.02704235,-0.00573
 651,0.01278819,-0.05425479,-0.08384880,0.05036371,0.51301985,0.0212362
 2,0.00158651,-0.01511805,0.00182166,-0.04128379,-0.02325782,-0.0018330
 4,-0.00335371,0.00567705,-0.04156001,-0.10552699,0.04492790,0.16769200
 ,0.36694224,0.01838766,0.00549796,-0.01473061,0.05628235,-0.04242048,-
 0.07125961,-0.01546712,-0.00370101,0.01105939,0.02004882,0.06691447,-0
 .13138720,-0.04355791,0.12321892,0.59476953,-0.05198915,0.02761533,-0.
 01695041,-0.00194272,0.00435864,-0.00217978,0.00012344,-0.00058520,0.0
 0036254,0.00102516,0.00162508,0.00036991,0.00060225,-0.00056481,-0.000
 63070,0.05129155,0.02792991,-0.23142672,0.10858485,0.00505244,-0.02418
 665,0.01188007,0.00049000,0.00078196,0.00125947,-0.00232172,-0.0024240
 0,-0.00354641,0.00013822,0.00164103,0.00008274,-0.03254977,0.25635124,
 -0.01699925,0.10905872,-0.11132374,0.00345988,-0.01981139,0.01088478,0
 .00054086,-0.00004617,0.00131582,-0.00037856,-0.00413281,-0.00203102,-
 0.00127471,0.00153441,0.00148773,0.01796896,-0.11773783,0.11906440,-0.
 21476051,-0.01998473,-0.12357928,0.00204805,0.00077388,0.00319275,0.00
 090604,0.00018412,0.00061959,0.00037723,0.00017362,0.00017715,0.000813
 97,0.00029020,0.00067078,-0.00297050,0.00007961,-0.00138500,0.23232061
 ,-0.01773727,-0.04896935,-0.01351705,-0.02062570,-0.00383852,-0.014643
 08,0.00163950,-0.00375461,-0.00270289,-0.00144883,0.00096659,-0.000545
 37,-0.00090727,0.00095940,0.00039652,0.02310360,0.00349084,0.01566886,
 0.02032471,0.05233645,-0.12145646,-0.01491401,-0.13591781,-0.01700151,
 -0.00133708,-0.01374574,0.00199203,-0.00360804,-0.00197666,-0.00044303
 ,0.00106675,0.00067373,-0.00137076,0.00053685,0.00024405,-0.01261926,-
 0.00172411,-0.00978021,0.13506336,0.01868119,0.14753512,-0.20971902,-0
 .03322223,0.11606982,-0.00453311,0.00067405,0.00246268,0.00067058,0.00
 001532,-0.00056861,0.00014396,0.00040082,-0.00047377,0.00159275,-0.000
 04571,0.00108158,0.00401268,0.00003302,-0.00308482,-0.02015199,-0.0043
 8058,0.01518661,0.22733023,-0.03355723,-0.05370756,0.02431060,0.022568
 81,0.00278275,-0.01557498,0.00074371,0.00081760,0.00077205,-0.00101148
 ,0.00241283,0.00105424,0.00013482,-0.00254192,-0.00502903,-0.02309877,
 -0.00437259,0.01535579,-0.00176570,-0.00144518,0.00150430,0.03538804,0
 .05702226,0.11609883,0.02385324,-0.13130207,0.01813919,0.00207217,-0.0
 1348928,0.00095483,0.00095413,0.00073349,-0.00049810,0.00004238,0.0011
 7146,-0.00172286,-0.00210238,-0.00247955,0.01318721,0.00284703,-0.0098
 8689,-0.01530699,-0.00319951,0.01233660,-0.13084179,-0.02310730,0.1423
 4159,0.00059955,0.00071724,0.00094736,-0.00665987,0.02306386,-0.015093
 08,-0.05285296,0.03189185,-0.02087244,-0.00227833,-0.00121413,-0.00512
 329,0.00237628,-0.00022057,0.00110412,0.00025039,-0.00063559,-0.000059
 73,-0.00002981,0.00000155,0.00030814,-0.00000803,-0.00019513,0.0000152
 3,0.05712629,-0.00005692,0.00091854,-0.00024876,0.00014613,0.00380678,
 -0.00285177,0.03224532,-0.21793807,0.11376820,-0.00143183,0.00116844,-
 0.00064809,0.00122800,0.00024568,-0.00013389,0.00002814,0.00028017,0.0
 0039232,0.00008834,0.00021300,0.00006262,-0.00005157,-0.00010334,0.000
 00352,-0.03600553,0.23572945,0.00055324,0.00121338,0.00070313,-0.00480
 142,0.01728514,-0.01239150,-0.02130250,0.11364166,-0.12394858,-0.00138
 949,-0.00222688,-0.00231996,0.00020575,-0.00046691,0.00110903,-0.00005
 306,-0.00087510,-0.00007449,0.00008055,-0.00021941,0.00037118,-0.00000
 714,0.00002265,-0.00010852,0.02742422,-0.12682129,0.13385145,0.0007600
 0,0.00071214,0.00108439,-0.02472274,-0.00405517,0.01307921,-0.21898942
 ,-0.04105594,0.11038752,0.00172858,0.00050873,0.00030723,-0.00201396,-
 0.00335886,-0.00353179,0.00001612,-0.00006503,-0.00004914,0.00030758,0
 .00027084,-0.00015562,0.00046301,-0.00052379,-0.00083130,0.00487300,0.
 00034419,-0.00258909,0.24317318,-0.00031782,0.00014477,0.00077234,-0.0
 0371912,-0.00160160,0.00204303,-0.04138633,-0.05767966,0.02600217,-0.0
 0023225,0.00062354,-0.00057252,0.00062217,0.00041850,-0.00088769,-0.00
 011152,-0.00005255,0.00006149,0.00022581,0.00005270,-0.00003796,0.0000
 9307,0.00005781,-0.00036337,-0.02281946,-0.00519395,0.01429501,0.04637
 353,0.05719715,-0.00022286,0.00043347,0.00131690,-0.01853354,-0.004045
 99,0.01108471,0.11083550,0.02611359,-0.11805957,0.00187515,-0.00068018
 ,0.00137612,-0.00371059,-0.00165068,-0.00183325,0.00006473,-0.00001819
 ,-0.00018346,0.00011162,0.00021847,0.00019337,0.00037079,0.00010759,-0
 .00006540,0.01432595,0.00273410,-0.00992584,-0.11976964,-0.02872654,0.
 12632374,-0.00401508,-0.00006182,-0.00267371,0.00315511,-0.02023857,-0
 .01595506,-0.05544581,0.03734448,0.02958796,0.00118709,-0.00082087,0.0
 0007535,0.00133706,-0.00107425,-0.00062548,-0.00007346,0.00011193,0.00
 017680,0.00032867,-0.00107522,-0.00116336,0.00014150,0.00008798,-0.000
 22315,-0.00182247,0.00311191,0.00308483,-0.00442595,0.02144014,0.01548
 424,0.05964014,-0.00151614,0.00091068,-0.00026262,0.00115512,-0.004883
 69,-0.00208673,0.03509636,-0.19994548,-0.12320727,0.00042078,0.0006336
 0,0.00076256,0.00050320,0.00002842,-0.00006508,0.00008293,0.00044074,0
 .00018559,0.00004437,-0.00001495,-0.00052246,0.00015872,0.00002379,-0.
 00001834,0.00478759,-0.01976470,-0.01644160,-0.00063825,0.00581450,0.0
 0474837,-0.03937761,0.21597930,-0.00404690,0.00064309,-0.00172083,0.00
 424342,-0.01539580,-0.01380763,0.02746562,-0.12181065,-0.14425637,0.00
 096851,-0.00104754,0.00019685,0.00114368,-0.00000785,0.00065193,0.0000
 3221,-0.00015664,0.00018710,-0.00010655,-0.00121876,-0.00064904,-0.000
 03890,0.00029828,0.00038836,-0.00338696,0.01379309,0.01232730,0.002692
 11,-0.01279384,-0.01064913,-0.02865339,0.13606012,0.15657274,0.0020338
 8,-0.00007045,-0.00310261,-0.01659496,-0.01599445,-0.00829292,-0.00249
 636,-0.00129811,0.00402229,-0.00155624,0.00260055,0.00305942,-0.198957
 82,-0.12777967,-0.06581798,-0.00025065,0.00060375,0.00029520,0.0003258
 2,0.00040459,0.00098440,0.00054475,-0.00022420,-0.00013849,0.00010270,
 0.00018918,-0.00017089,-0.00132209,0.00002207,-0.00100801,0.00012482,-
 0.00002849,0.00002639,0.21305189,-0.00111250,0.00049967,0.00084553,0.0
 1083209,0.00908216,0.00887323,0.00272011,0.00054525,-0.00206983,-0.016
 28219,-0.01409219,-0.00980305,-0.12817120,-0.13769049,-0.06018325,0.00
 011396,-0.00007055,0.00028311,-0.00003722,0.00019908,-0.00000623,-0.00
 020957,0.00014649,0.00029094,-0.00006782,-0.00006667,0.00002477,0.0011
 7823,0.00010742,0.00063783,0.00003673,-0.00000187,-0.00003659,0.137612
 83,0.14486917,0.00142803,-0.00017355,0.00097040,0.00342987,0.00327268,
 -0.00287317,-0.00080757,0.00001100,0.00002620,0.01611341,0.01168300,0.
 00558499,-0.06899900,-0.06172667,-0.08018971,-0.00002872,-0.00027809,0
 .00002964,0.00018621,0.00018238,-0.00010565,-0.00004589,-0.00001326,-0
 .00011186,-0.00003758,-0.00014028,0.00008253,-0.00032470,0.00020221,0.
 00027932,0.00032105,0.00030310,0.00022291,0.06921198,0.06094630,0.0816
 9444,-0.00332988,-0.00241322,0.00187545,-0.00101648,0.00669245,0.02502
 823,0.00259318,0.00197085,-0.00011339,-0.00466517,-0.00047657,0.001065
 01,-0.04831204,-0.00025075,0.01946325,0.00008750,0.00019416,-0.0002435
 5,0.00005738,0.00004258,0.00023620,-0.00013227,0.00135860,0.00096894,-
 0.00044003,0.00028909,-0.00038075,0.00052103,-0.00017245,-0.00010086,-
 0.00038245,-0.00061972,-0.00024327,0.00410873,-0.00551988,-0.02156240,
 0.04984093,0.00316662,0.00120796,-0.00196062,-0.00274672,-0.00797540,-
 0.01261467,-0.00238977,0.00048983,0.00102711,-0.00072814,0.00902117,0.
 02560837,0.00135854,-0.06964777,-0.09296782,-0.00004024,0.00000710,0.0
 0001792,0.00001167,0.00018977,0.00038333,0.00069549,-0.00097729,-0.000
 72022,0.00016307,-0.00007666,-0.00005220,-0.00042238,-0.00003049,-0.00
 000360,0.00007816,0.00029235,0.00040130,0.00360937,-0.00462416,-0.0151
 3780,-0.00126657,0.07217252,-0.00017509,0.00094871,0.00019701,0.000841
 24,0.00202584,-0.00139409,-0.00077111,-0.00076274,0.00042093,0.0017275
 3,-0.00582589,-0.01441944,0.02177133,-0.09079127,-0.29887817,-0.000024
 60,-0.00007251,0.00002395,-0.00008305,0.00006148,0.00009870,-0.0000678
 1,-0.00002826,0.00017421,0.00038462,0.00018883,0.00022514,-0.00002478,
 0.00017827,0.00008883,0.00037136,0.00034583,0.00050936,0.00111724,-0.0
 0142643,-0.00561847,-0.02642145,0.09479659,0.31760200,-0.00043202,0.00
 360785,-0.00326600,0.00798791,0.01993899,0.01136699,0.00113575,-0.0014
 7407,0.00185658,-0.06244943,-0.07716887,-0.03527499,-0.00808440,-0.017
 75071,-0.01019626,-0.00042860,0.00146775,0.00101950,0.00001656,0.00000
 919,-0.00003569,-0.00008650,-0.00014516,0.00008675,0.00035339,-0.00029
 622,0.00029637,-0.00033609,0.00007326,0.00017393,0.00008292,-0.0001084
 9,-0.00036787,0.00047428,-0.00343784,0.00282995,0.00091489,0.00252199,
 -0.00132061,0.06402376,-0.00036129,-0.00168384,0.00298584,-0.00695027,
 -0.01500840,-0.00461606,-0.00050809,0.00147380,-0.00256233,-0.07664393
 ,-0.27236361,-0.08515497,-0.00000958,-0.00821729,-0.00101049,0.0003107
 7,-0.00071214,-0.00074926,-0.00007595,0.00010061,0.00001102,0.00011421
 ,0.00012758,-0.00015367,-0.00030188,0.00034949,-0.00000208,0.00059114,
 0.00000648,0.00035529,0.00034616,0.00040251,0.00091726,0.00124902,-0.0
 0046056,0.00037364,-0.00072501,0.00108061,0.00003194,0.08184381,0.2919
 2682,0.00030772,-0.00092602,0.00019195,0.00125147,0.00333625,-0.003364
 30,-0.00069222,0.00133795,0.00089456,-0.03556414,-0.08866425,-0.082043
 84,0.00565200,0.01955146,0.00623286,0.00033884,-0.00030972,0.00020580,
 0.00017374,0.00040531,0.00022841,-0.00010846,-0.00007907,0.00007755,-0
 .00002060,-0.00002517,-0.00012420,-0.00022118,-0.00012979,0.00003816,0
 .00010576,0.00025594,-0.00006640,-0.00071334,0.00293602,-0.00170396,0.
 00108789,-0.00153319,0.00168544,0.03488251,0.08886400,0.08368170,0.000
 91893,-0.00309627,0.00090383,-0.00910137,-0.00500007,-0.02058419,0.000
 31926,0.00465234,-0.00238784,-0.07450174,-0.00375907,-0.10222572,0.008
 28739,0.00339828,0.02278866,0.00024600,-0.00052869,0.00001355,0.000410
 90,0.00037831,0.00047497,-0.00026855,0.00023949,0.00011167,-0.00159012
 ,0.00017178,-0.00095062,-0.00003225,-0.00009110,0.00010360,0.00016792,
 0.00003963,0.00027190,0.00041127,0.00234429,-0.00171464,0.00015468,-0.
 00401108,0.00267518,-0.00317239,0.00112089,-0.00648000,0.07775006,0.00
 134177,0.00219988,0.00025704,0.00451057,-0.00110423,0.01869363,-0.0009
 7930,-0.00252405,0.00101561,-0.00550844,-0.05015358,-0.00868240,0.0047
 9267,-0.00355980,0.01028814,-0.00028812,0.00025210,-0.00008076,-0.0003
 3271,-0.00048583,-0.00009618,0.00033693,-0.00024322,-0.00039861,0.0008
 3495,0.00043184,0.00062285,0.00014061,0.00013539,-0.00022352,0.0000908
 4,0.00008480,0.00035452,-0.00089599,0.00155726,0.00049535,0.00089643,-
 0.00112953,0.00032962,-0.00908148,0.00297795,-0.02501973,0.00414127,0.
 05156102,-0.00042127,-0.00083362,0.00038530,0.00198926,0.00170592,-0.0
 0017920,0.00092079,-0.00006412,0.00028088,-0.10105883,-0.00580972,-0.2
 9220157,-0.00677697,-0.00032498,-0.01479643,0.00016213,0.00006446,0.00
 008058,0.00018511,0.00043185,0.00049395,0.00006569,0.00040637,0.000220
 32,0.00008403,-0.00007342,0.00022334,-0.00005323,-0.00004281,0.0000154
 9,0.00008680,-0.00005742,0.00009286,0.00052729,-0.00131235,0.00171240,
 -0.00065930,0.00275549,-0.00071540,-0.00205116,0.00070989,-0.00593374,
 0.10699964,0.00244445,0.31032121\\0.00000855,0.00001250,-0.00000664,-0
 .00004334,-0.00002206,0.00003834,0.00000460,0.00000706,-0.00001422,-0.
 00001173,0.00004021,-0.00002272,-0.00001128,-0.00003216,0.00002894,-0.
 00000047,0.00000342,-0.00000170,0.00000565,0.00000221,0.00000469,-0.00
 000345,-0.00000245,0.00000238,-0.00000076,0.00000302,-0.00000227,-0.00
 000277,-0.00000151,0.00000369,0.00000028,-0.00000519,-0.00000564,0.000
 01521,0.00000224,0.00000166,0.00000870,-0.00000674,-0.00001088,0.00001
 088,-0.00000649,-0.00001650,0.00001991,0.00000596,0.00000087\\\@
 The archive entry for this job was punched.


 IF YOU BELIEVE CERTAIN WORDS, YOU BELIEVE THEIR HIDDEN ARGUMENTS.
 WHEN YOU BELIEVE SOMETHING IS RIGHT OR WRONG, TRUE OR FALSE, 
 YOU BELIEVE THE ASSUMPTIONS IN THE WORDS WHICH EXPRESS THE ARGUMENTS.
 SUCH ASSUMPTIONS ARE OFTEN FULL OF HOLES, BUT REMAIN MOST PRECIOUS 
 TO THE CONVINCED.

                 -- THE OPEN-ENDED PROOF FROM THE PANOPLIA PROPHETICA
                    CHILDREN OF DUNE BY FRANK HERBERT
 Job cpu time:       0 days  0 hours 32 minutes 16.4 seconds.
 Elapsed time:       0 days  0 hours  4 minutes  2.5 seconds.
 File lengths (MBytes):  RWF=    101 Int=      0 D2E=      0 Chk=      8 Scr=      1
 Normal termination of Gaussian 16 at Tue Apr 12 18:15:37 2022.
