 Entering Gaussian System, Link 0=g16
 Input=Mol_03.com
 Output=Mol_03.log
 Initial command:
 /home/saurabh/gaussian/g16/l1.exe "/home/saurabh/gaussian/gauss_scr/Gau-26451.inp" -scrdir="/home/saurabh/gaussian/gauss_scr/"
 Entering Link 1 = /home/saurabh/gaussian/g16/l1.exe PID=     26452.
  
 Copyright (c) 1988-2019, Gaussian, Inc.  All Rights Reserved.
  
 This is part of the Gaussian(R) 16 program.  It is based on
 the Gaussian(R) 09 system (copyright 2009, Gaussian, Inc.),
 the Gaussian(R) 03 system (copyright 2003, Gaussian, Inc.),
 the Gaussian(R) 98 system (copyright 1998, Gaussian, Inc.),
 the Gaussian(R) 94 system (copyright 1995, Gaussian, Inc.),
 the Gaussian 92(TM) system (copyright 1992, Gaussian, Inc.),
 the Gaussian 90(TM) system (copyright 1990, Gaussian, Inc.),
 the Gaussian 88(TM) system (copyright 1988, Gaussian, Inc.),
 the Gaussian 86(TM) system (copyright 1986, Carnegie Mellon
 University), and the Gaussian 82(TM) system (copyright 1983,
 Carnegie Mellon University). Gaussian is a federally registered
 trademark of Gaussian, Inc.
  
 This software contains proprietary and confidential information,
 including trade secrets, belonging to Gaussian, Inc.
  
 This software is provided under written license and may be
 used, copied, transmitted, or stored only in accord with that
 written license.
  
 The following legend is applicable only to US Government
 contracts under FAR:
  
                    RESTRICTED RIGHTS LEGEND
  
 Use, reproduction and disclosure by the US Government is
 subject to restrictions as set forth in subparagraphs (a)
 and (c) of the Commercial Computer Software - Restricted
 Rights clause in FAR 52.227-19.
  
 Gaussian, Inc.
 340 Quinnipiac St., Bldg. 40, Wallingford CT 06492
  
  
 ---------------------------------------------------------------
 Warning -- This program may not be used in any manner that
 competes with the business of Gaussian, Inc. or will provide
 assistance to any competitor of Gaussian, Inc.  The licensee
 of this program is prohibited from giving any competitor of
 Gaussian, Inc. access to this program.  By using this program,
 the user acknowledges that Gaussian, Inc. is engaged in the
 business of creating and licensing software in the field of
 computational chemistry and represents and warrants to the
 licensee that it is not a competitor of Gaussian, Inc. and that
 it will not use this program in any manner prohibited above.
 ---------------------------------------------------------------
  

 Cite this work as:
 Gaussian 16, Revision C.01,
 M. J. Frisch, G. W. Trucks, H. B. Schlegel, G. E. Scuseria, 
 M. A. Robb, J. R. Cheeseman, G. Scalmani, V. Barone, 
 G. A. Petersson, H. Nakatsuji, X. Li, M. Caricato, A. V. Marenich, 
 J. Bloino, B. G. Janesko, R. Gomperts, B. Mennucci, H. P. Hratchian, 
 J. V. Ortiz, A. F. Izmaylov, J. L. Sonnenberg, D. Williams-Young, 
 F. Ding, F. Lipparini, F. Egidi, J. Goings, B. Peng, A. Petrone, 
 T. Henderson, D. Ranasinghe, V. G. Zakrzewski, J. Gao, N. Rega, 
 G. Zheng, W. Liang, M. Hada, M. Ehara, K. Toyota, R. Fukuda, 
 J. Hasegawa, M. Ishida, T. Nakajima, Y. Honda, O. Kitao, H. Nakai, 
 T. Vreven, K. Throssell, J. A. Montgomery, Jr., J. E. Peralta, 
 F. Ogliaro, M. J. Bearpark, J. J. Heyd, E. N. Brothers, K. N. Kudin, 
 V. N. Staroverov, T. A. Keith, R. Kobayashi, J. Normand, 
 K. Raghavachari, A. P. Rendell, J. C. Burant, S. S. Iyengar, 
 J. Tomasi, M. Cossi, J. M. Millam, M. Klene, C. Adamo, R. Cammi, 
 J. W. Ochterski, R. L. Martin, K. Morokuma, O. Farkas, 
 J. B. Foresman, and D. J. Fox, Gaussian, Inc., Wallingford CT, 2019.
 
 ******************************************
 Gaussian 16:  ES64L-G16RevC.01  3-Jul-2019
                12-Apr-2022 
 ******************************************
 %mem=8gb
 %nproc=8
 Will use up to    8 processors via shared memory.
 %chk=Mol_03.chk
 ----------------------------------------------------------------------
 #p B3LYP/cc-PVTZ scf(verytight, maxcycles=1000) opt(calcfc, maxcyc=100
 0) freq(hpmodes) int(grid=ultrafine)
 ----------------------------------------------------------------------
 1/6=1000,10=4,18=20,19=15,26=4,38=1/1,3;
 2/9=110,12=2,17=6,18=5,40=1/2;
 3/5=16,6=1,11=2,25=1,30=1,71=2,74=-5,75=-5,140=1/1,2,3;
 4//1;
 5/5=2,7=1000,17=3,38=5/2;
 8/6=4,10=90,11=11/1;
 11/6=1,8=1,9=11,15=111,16=1/1,2,10;
 10/6=1,13=1/2;
 6/7=2,8=2,9=2,10=2,28=1/1;
 7/10=1,25=1/1,2,3,16;
 1/6=1000,10=4,18=20,19=15,26=4/3(2);
 2/9=110/2;
 99//99;
 2/9=110/2;
 3/5=16,6=1,11=2,25=1,30=1,71=1,74=-5,75=-5/1,2,3;
 4/5=5,16=3,69=1/1;
 5/5=2,7=1000,17=3,38=5/2;
 7//1,2,3,16;
 1/6=1000,18=20,19=15,26=4/3(-5);
 2/9=110/2;
 6/7=2,8=2,9=2,10=2,19=2,28=1/1;
 99/9=1/99;
 Leave Link    1 at Tue Apr 12 17:00:51 2022, MaxMem=  1073741824 cpu:               0.5 elap:               0.1
 (Enter /home/saurabh/gaussian/g16/l101.exe)
 ------
 Mol_03
 ------
 Symbolic Z-matrix:
 Charge =  0 Multiplicity = 2
 C                    -3.73594   2.0664    0.88811 
 C                    -3.50177   0.86747  -0.05028 
 C                    -4.74212   0.66972  -0.94258 
 C                    -3.27923  -0.39591   0.79361 
 C                    -2.26513   1.12716  -0.9446 
 H                    -3.89904   2.9964    0.30169 
 H                    -2.86213   2.22267   1.55658 
 H                    -4.63015   1.89676   1.52634 
 H                    -2.11945   0.28871  -1.66842 
 H                    -2.44166   2.02691  -1.57307 
 H                    -0.44797  -0.02882   0.83096 
 H                    -3.09609  -1.28277   0.14917 
 H                    -4.15025  -0.60126   1.45286 
 H                    -4.92889   1.57428  -1.56096 
 H                    -5.64565   0.47939  -0.32364 
 H                    -4.60048  -0.19573  -1.6256 
 O                    -1.10705   1.36835  -0.17437 
 O                    -0.42853   0.23604  -0.12399 
 
 ITRead=  0  0  0  0  0  0  0  0  0  0  0  0  0  0  0  0  0  0
 MicOpt= -1 -1 -1 -1 -1 -1 -1 -1 -1 -1 -1 -1 -1 -1 -1 -1 -1 -1
 NAtoms=     18 NQM=       18 NQMF=       0 NMMI=      0 NMMIF=      0
                NMic=       0 NMicF=      0.
                    Isotopes and Nuclear Properties:
 (Nuclear quadrupole moments (NQMom) in fm**2, nuclear magnetic moments (NMagM)
  in nuclear magnetons)

  Atom         1           2           3           4           5           6           7           8           9          10
 IAtWgt=          12          12          12          12          12           1           1           1           1           1
 AtmWgt=  12.0000000  12.0000000  12.0000000  12.0000000  12.0000000   1.0078250   1.0078250   1.0078250   1.0078250   1.0078250
 NucSpn=           0           0           0           0           0           1           1           1           1           1
 AtZEff=  -0.0000000  -0.0000000  -0.0000000  -0.0000000  -0.0000000  -0.0000000  -0.0000000  -0.0000000  -0.0000000  -0.0000000
 NQMom=    0.0000000   0.0000000   0.0000000   0.0000000   0.0000000   0.0000000   0.0000000   0.0000000   0.0000000   0.0000000
 NMagM=    0.0000000   0.0000000   0.0000000   0.0000000   0.0000000   2.7928460   2.7928460   2.7928460   2.7928460   2.7928460
 AtZNuc=   6.0000000   6.0000000   6.0000000   6.0000000   6.0000000   1.0000000   1.0000000   1.0000000   1.0000000   1.0000000

  Atom        11          12          13          14          15          16          17          18
 IAtWgt=           1           1           1           1           1           1          16          16
 AtmWgt=   1.0078250   1.0078250   1.0078250   1.0078250   1.0078250   1.0078250  15.9949146  15.9949146
 NucSpn=           1           1           1           1           1           1           0           0
 AtZEff=  -0.0000000  -0.0000000  -0.0000000  -0.0000000  -0.0000000  -0.0000000  -0.0000000  -0.0000000
 NQMom=    0.0000000   0.0000000   0.0000000   0.0000000   0.0000000   0.0000000   0.0000000   0.0000000
 NMagM=    2.7928460   2.7928460   2.7928460   2.7928460   2.7928460   2.7928460   0.0000000   0.0000000
 AtZNuc=   1.0000000   1.0000000   1.0000000   1.0000000   1.0000000   1.0000000   8.0000000   8.0000000
 Leave Link  101 at Tue Apr 12 17:00:51 2022, MaxMem=  1073741824 cpu:               1.5 elap:               0.2
 (Enter /home/saurabh/gaussian/g16/l103.exe)

 GradGradGradGradGradGradGradGradGradGradGradGradGradGradGradGradGradGrad
 Berny optimization.
 Initialization pass.
                           ----------------------------
                           !    Initial Parameters    !
                           ! (Angstroms and Degrees)  !
 --------------------------                            --------------------------
 ! Name  Definition              Value          Derivative Info.                !
 --------------------------------------------------------------------------------
 ! R1    R(1,2)                  1.5404         calculate D2E/DX2 analytically  !
 ! R2    R(1,6)                  1.1115         calculate D2E/DX2 analytically  !
 ! R3    R(1,7)                  1.1112         calculate D2E/DX2 analytically  !
 ! R4    R(1,8)                  1.1116         calculate D2E/DX2 analytically  !
 ! R5    R(2,3)                  1.5407         calculate D2E/DX2 analytically  !
 ! R6    R(2,4)                  1.5355         calculate D2E/DX2 analytically  !
 ! R7    R(2,5)                  1.5481         calculate D2E/DX2 analytically  !
 ! R8    R(3,14)                 1.1115         calculate D2E/DX2 analytically  !
 ! R9    R(3,15)                 1.1116         calculate D2E/DX2 analytically  !
 ! R10   R(3,16)                 1.1116         calculate D2E/DX2 analytically  !
 ! R11   R(4,12)                 1.1115         calculate D2E/DX2 analytically  !
 ! R12   R(4,13)                 1.1115         calculate D2E/DX2 analytically  !
 ! R13   R(5,9)                  1.1172         calculate D2E/DX2 analytically  !
 ! R14   R(5,10)                 1.1116         calculate D2E/DX2 analytically  !
 ! R15   R(5,17)                 1.4116         calculate D2E/DX2 analytically  !
 ! R16   R(11,18)                0.9912         calculate D2E/DX2 analytically  !
 ! R17   R(17,18)                1.321          calculate D2E/DX2 analytically  !
 ! A1    A(2,1,6)              110.6188         calculate D2E/DX2 analytically  !
 ! A2    A(2,1,7)              110.8775         calculate D2E/DX2 analytically  !
 ! A3    A(2,1,8)              110.687          calculate D2E/DX2 analytically  !
 ! A4    A(6,1,7)              108.3676         calculate D2E/DX2 analytically  !
 ! A5    A(6,1,8)              108.2139         calculate D2E/DX2 analytically  !
 ! A6    A(7,1,8)              107.9763         calculate D2E/DX2 analytically  !
 ! A7    A(1,2,3)              109.2887         calculate D2E/DX2 analytically  !
 ! A8    A(1,2,4)              109.1247         calculate D2E/DX2 analytically  !
 ! A9    A(1,2,5)              110.0477         calculate D2E/DX2 analytically  !
 ! A10   A(3,2,4)              109.2301         calculate D2E/DX2 analytically  !
 ! A11   A(3,2,5)              109.2716         calculate D2E/DX2 analytically  !
 ! A12   A(4,2,5)              109.8606         calculate D2E/DX2 analytically  !
 ! A13   A(2,3,14)             110.6721         calculate D2E/DX2 analytically  !
 ! A14   A(2,3,15)             110.7236         calculate D2E/DX2 analytically  !
 ! A15   A(2,3,16)             110.6846         calculate D2E/DX2 analytically  !
 ! A16   A(14,3,15)            108.2114         calculate D2E/DX2 analytically  !
 ! A17   A(14,3,16)            108.2504         calculate D2E/DX2 analytically  !
 ! A18   A(15,3,16)            108.2037         calculate D2E/DX2 analytically  !
 ! A19   A(2,4,12)             111.2069         calculate D2E/DX2 analytically  !
 ! A20   A(2,4,13)             111.3703         calculate D2E/DX2 analytically  !
 ! A21   A(12,4,13)            109.0018         calculate D2E/DX2 analytically  !
 ! A22   A(2,5,9)              110.6437         calculate D2E/DX2 analytically  !
 ! A23   A(2,5,10)             109.6044         calculate D2E/DX2 analytically  !
 ! A24   A(2,5,17)             111.6419         calculate D2E/DX2 analytically  !
 ! A25   A(9,5,10)             105.1814         calculate D2E/DX2 analytically  !
 ! A26   A(9,5,17)             112.0106         calculate D2E/DX2 analytically  !
 ! A27   A(10,5,17)            107.486          calculate D2E/DX2 analytically  !
 ! A28   A(5,17,18)            107.202          calculate D2E/DX2 analytically  !
 ! A29   A(11,18,17)           104.816          calculate D2E/DX2 analytically  !
 ! D1    D(6,1,2,3)            -60.6778         calculate D2E/DX2 analytically  !
 ! D2    D(6,1,2,4)            179.9361         calculate D2E/DX2 analytically  !
 ! D3    D(6,1,2,5)             59.3182         calculate D2E/DX2 analytically  !
 ! D4    D(7,1,2,3)            179.0677         calculate D2E/DX2 analytically  !
 ! D5    D(7,1,2,4)             59.6815         calculate D2E/DX2 analytically  !
 ! D6    D(7,1,2,5)            -60.9363         calculate D2E/DX2 analytically  !
 ! D7    D(8,1,2,3)             59.2593         calculate D2E/DX2 analytically  !
 ! D8    D(8,1,2,4)            -60.1268         calculate D2E/DX2 analytically  !
 ! D9    D(8,1,2,5)            179.2553         calculate D2E/DX2 analytically  !
 ! D10   D(1,2,3,14)            60.3666         calculate D2E/DX2 analytically  !
 ! D11   D(1,2,3,15)           -59.6262         calculate D2E/DX2 analytically  !
 ! D12   D(1,2,3,16)          -179.6173         calculate D2E/DX2 analytically  !
 ! D13   D(4,2,3,14)           179.6875         calculate D2E/DX2 analytically  !
 ! D14   D(4,2,3,15)            59.6948         calculate D2E/DX2 analytically  !
 ! D15   D(4,2,3,16)           -60.2964         calculate D2E/DX2 analytically  !
 ! D16   D(5,2,3,14)           -60.1052         calculate D2E/DX2 analytically  !
 ! D17   D(5,2,3,15)           179.9021         calculate D2E/DX2 analytically  !
 ! D18   D(5,2,3,16)            59.9109         calculate D2E/DX2 analytically  !
 ! D19   D(1,2,4,12)          -179.425          calculate D2E/DX2 analytically  !
 ! D20   D(1,2,4,13)            58.7811         calculate D2E/DX2 analytically  !
 ! D21   D(3,2,4,12)            61.1525         calculate D2E/DX2 analytically  !
 ! D22   D(3,2,4,13)           -60.6414         calculate D2E/DX2 analytically  !
 ! D23   D(5,2,4,12)           -58.6927         calculate D2E/DX2 analytically  !
 ! D24   D(5,2,4,13)           179.5135         calculate D2E/DX2 analytically  !
 ! D25   D(1,2,5,9)           -176.8645         calculate D2E/DX2 analytically  !
 ! D26   D(1,2,5,10)           -61.3175         calculate D2E/DX2 analytically  !
 ! D27   D(1,2,5,17)            57.6604         calculate D2E/DX2 analytically  !
 ! D28   D(3,2,5,9)            -56.8581         calculate D2E/DX2 analytically  !
 ! D29   D(3,2,5,10)            58.6888         calculate D2E/DX2 analytically  !
 ! D30   D(3,2,5,17)           177.6667         calculate D2E/DX2 analytically  !
 ! D31   D(4,2,5,9)             62.9617         calculate D2E/DX2 analytically  !
 ! D32   D(4,2,5,10)           178.5087         calculate D2E/DX2 analytically  !
 ! D33   D(4,2,5,17)           -62.5135         calculate D2E/DX2 analytically  !
 ! D34   D(2,5,17,18)           98.7725         calculate D2E/DX2 analytically  !
 ! D35   D(9,5,17,18)          -25.9432         calculate D2E/DX2 analytically  !
 ! D36   D(10,5,17,18)        -140.9987         calculate D2E/DX2 analytically  !
 ! D37   D(5,17,18,11)        -114.8655         calculate D2E/DX2 analytically  !
 --------------------------------------------------------------------------------
 Trust Radius=3.00D-01 FncErr=1.00D-07 GrdErr=1.00D-06 EigMax=2.50D+02 EigMin=1.00D-04
 Number of steps in this run=    108 maximum allowed number of steps=    108.
 GradGradGradGradGradGradGradGradGradGradGradGradGradGradGradGradGradGrad

 Leave Link  103 at Tue Apr 12 17:00:51 2022, MaxMem=  1073741824 cpu:               0.1 elap:               0.0
 (Enter /home/saurabh/gaussian/g16/l202.exe)
                          Input orientation:                          
 ---------------------------------------------------------------------
 Center     Atomic      Atomic             Coordinates (Angstroms)
 Number     Number       Type             X           Y           Z
 ---------------------------------------------------------------------
      1          6           0       -3.735943    2.066403    0.888106
      2          6           0       -3.501774    0.867474   -0.050276
      3          6           0       -4.742118    0.669720   -0.942583
      4          6           0       -3.279229   -0.395906    0.793607
      5          6           0       -2.265128    1.127156   -0.944603
      6          1           0       -3.899043    2.996405    0.301695
      7          1           0       -2.862126    2.222666    1.556584
      8          1           0       -4.630152    1.896759    1.526340
      9          1           0       -2.119453    0.288705   -1.668422
     10          1           0       -2.441661    2.026908   -1.573065
     11          1           0       -0.447968   -0.028819    0.830962
     12          1           0       -3.096092   -1.282769    0.149166
     13          1           0       -4.150253   -0.601257    1.452865
     14          1           0       -4.928887    1.574277   -1.560960
     15          1           0       -5.645655    0.479388   -0.323639
     16          1           0       -4.600478   -0.195727   -1.625605
     17          8           0       -1.107046    1.368352   -0.174370
     18          8           0       -0.428530    0.236041   -0.123988
 ---------------------------------------------------------------------
                    Distance matrix (angstroms):
                    1          2          3          4          5
     1  C    0.000000
     2  C    1.540398   0.000000
     3  C    2.512874   1.540705   0.000000
     4  C    2.506090   1.535511   2.507979   0.000000
     5  C    2.530673   1.548079   2.518875   2.523786   0.000000
     6  H    1.111478   2.194095   2.769922   3.483378   2.777954
     7  H    1.111233   2.197202   3.491683   2.759172   2.795083
     8  H    1.111635   2.195082   2.759301   2.760110   3.505879
     9  H    3.508431   2.205489   2.747797   2.806308   1.117199
    10  H    2.781024   2.187925   2.744371   3.488938   1.111613
    11  H    3.899231   3.302371   4.698206   2.855204   2.791233
    12  H    3.488896   2.197249   2.777324   1.111471   2.773909
    13  H    2.758082   2.199347   2.775582   1.111518   3.505561
    14  H    2.768254   2.195083   1.111529   3.485252   2.770456
    15  H    2.762959   2.195806   1.111619   2.759411   3.497593
    16  H    3.490472   2.195270   1.111566   2.763758   2.769050
    17  O    2.920142   2.449694   3.780475   2.961075   1.411591
    18  O    3.913253   3.138307   4.411941   3.060690   2.200134
                    6          7          8          9         10
     6  H    0.000000
     7  H    1.802392   0.000000
     8  H    1.800971   1.798068   0.000000
     9  H    3.792089   3.833071   4.369892   0.000000
    10  H    2.564880   3.163830   3.796413   1.770384   0.000000
    11  H    4.619742   3.379921   4.656401   3.023508   3.739007
    12  H    4.356526   3.784659   3.789373   2.593643   3.787918
    13  H    3.785692   3.105571   2.544757   3.828657   4.356924
    14  H    2.559787   3.796182   3.118439   3.091467   2.528105
    15  H    3.126830   3.784480   2.542166   3.778744   3.771135
    16  H    3.794233   4.358534   3.783403   2.528239   3.098929
    17  O    3.266870   2.608900   3.947646   2.103045   2.042362
    18  O    4.454804   3.562779   4.809907   2.290692   3.059368
                   11         12         13         14         15
    11  H    0.000000
    12  H    3.008288   0.000000
    13  H    3.797546   1.809791   0.000000
    14  H    5.326335   3.800840   3.797678   0.000000
    15  H    5.348582   3.135126   2.561247   1.800972   0.000000
    16  H    4.827620   2.568005   3.137536   1.801373   1.800914
    17  O    1.843139   3.330079   3.973457   4.070812   4.627257
    18  O    0.991190   3.081767   4.127802   4.910090   5.226612
                   16         17         18
    16  H    0.000000
    17  O    4.093470   0.000000
    18  O    4.454933   1.321005   0.000000
 Stoichiometry    C5H11O2(2)
 Framework group  C1[X(C5H11O2)]
 Deg. of freedom    48
 Full point group                 C1      NOp   1
 Largest Abelian subgroup         C1      NOp   1
 Largest concise Abelian subgroup C1      NOp   1
                         Standard orientation:                         
 ---------------------------------------------------------------------
 Center     Atomic      Atomic             Coordinates (Angstroms)
 Number     Number       Type             X           Y           Z
 ---------------------------------------------------------------------
      1          6           0       -1.107115    1.268415    0.769125
      2          6           0       -0.760114   -0.037604    0.029712
      3          6           0       -1.966223   -0.475495   -0.823121
      4          6           0       -0.446067   -1.131261    1.060773
      5          6           0        0.463957    0.183467   -0.891877
      6          1           0       -1.338096    2.078942    0.044503
      7          1           0       -0.259422    1.599775    1.406663
      8          1           0       -1.993611    1.125092    1.424347
      9          1           0        0.689618   -0.741896   -1.475756
     10          1           0        0.222735    0.956558   -1.653340
     11          1           0        2.344034   -0.525212    1.045664
     12          1           0       -0.180247   -2.088785    0.562922
     13          1           0       -1.306809   -1.304506    1.742375
     14          1           0       -2.218195    0.303027   -1.575392
     15          1           0       -2.860005   -0.642962   -0.183743
     16          1           0       -1.742952   -1.421435   -1.362499
     17          8           0        1.586319    0.638216   -0.166552
     18          8           0        2.355721   -0.411183    0.061125
 ---------------------------------------------------------------------
 Rotational constants (GHZ):           4.1330328           1.7558030           1.7013926
 Leave Link  202 at Tue Apr 12 17:00:51 2022, MaxMem=  1073741824 cpu:               0.1 elap:               0.0
 (Enter /home/saurabh/gaussian/g16/l301.exe)
 Standard basis: CC-pVTZ (5D, 7F)
 Ernie: Thresh=  0.10000D-02 Tol=  0.10000D-05 Strict=F.
 Ernie:  21 primitive shells out of 270 were deleted.
 There are   410 symmetry adapted cartesian basis functions of A   symmetry.
 There are   364 symmetry adapted basis functions of A   symmetry.
   364 basis functions,   551 primitive gaussians,   410 cartesian basis functions
    29 alpha electrons       28 beta electrons
       nuclear repulsion energy       333.6305945291 Hartrees.
 IExCor=  402 DFT=T Ex+Corr=B3LYP ExCW=0 ScaHFX=  0.200000
 ScaDFX=  0.800000  0.720000  1.000000  0.810000 ScalE2=  1.000000  1.000000
 IRadAn=      5 IRanWt=     -1 IRanGd=            0 ICorTp=0 IEmpDi=  4
 NAtoms=   18 NActive=   18 NUniq=   18 SFac= 1.00D+00 NAtFMM=   60 NAOKFM=F Big=F
 Integral buffers will be    131072 words long.
 Raffenetti 2 integral format.
 Two-electron integral symmetry is turned on.
 Leave Link  301 at Tue Apr 12 17:00:51 2022, MaxMem=  1073741824 cpu:               0.4 elap:               0.1
 (Enter /home/saurabh/gaussian/g16/l302.exe)
 NPDir=0 NMtPBC=     1 NCelOv=     1 NCel=       1 NClECP=     1 NCelD=      1
         NCelK=      1 NCelE2=     1 NClLst=     1 CellRange=     0.0.
 One-electron integrals computed using PRISM.
 One-electron integral symmetry used in STVInt
 NBasis=   364 RedAO= T EigKep=  4.56D-04  NBF=   364
 NBsUse=   364 1.00D-06 EigRej= -1.00D+00 NBFU=   364
 Precomputing XC quadrature grid using
 IXCGrd= 4 IRadAn=           5 IRanWt=          -1 IRanGd=           0 AccXCQ= 0.00D+00.
 Generated NRdTot=       0 NPtTot=           0 NUsed=           0 NTot=          32
 NSgBfM=   410   410   410   410   410 MxSgAt=    18 MxSgA2=    18.
 Leave Link  302 at Tue Apr 12 17:00:51 2022, MaxMem=  1073741824 cpu:               2.6 elap:               0.4
 (Enter /home/saurabh/gaussian/g16/l303.exe)
 DipDrv:  MaxL=1.
 Leave Link  303 at Tue Apr 12 17:00:51 2022, MaxMem=  1073741824 cpu:               0.3 elap:               0.1
 (Enter /home/saurabh/gaussian/g16/l401.exe)
 ExpMin= 1.03D-01 ExpMax= 1.53D+04 ExpMxC= 5.22D+02 IAcc=3 IRadAn=         5 AccDes= 0.00D+00
 Harris functional with IExCor=  402 and IRadAn=       5 diagonalized for initial guess.
 HarFok:  IExCor=  402 AccDes= 0.00D+00 IRadAn=         5 IDoV= 1 UseB2=F ITyADJ=14
 ICtDFT=  3500011 ScaDFX=  1.000000  1.000000  1.000000  1.000000
 FoFCou: FMM=F IPFlag=           0 FMFlag=      100000 FMFlg1=           0
         NFxFlg=           0 DoJE=T BraDBF=F KetDBF=T FulRan=T
         wScrn=  0.000000 ICntrl=       500 IOpCl=  0 I1Cent=   200000004 NGrid=           0
         NMat0=    1 NMatS0=      1 NMatT0=    0 NMatD0=    1 NMtDS0=    0 NMtDT0=    0
 Petite list used in FoFCou.
 Harris En= -347.569171813971    
 JPrj=0 DoOrth=F DoCkMO=F.
 Initial guess <Sx>= 0.0000 <Sy>= 0.0000 <Sz>= 0.5000 <S**2>= 0.7500 S= 0.5000
 Leave Link  401 at Tue Apr 12 17:00:53 2022, MaxMem=  1073741824 cpu:              10.3 elap:               1.3
 (Enter /home/saurabh/gaussian/g16/l502.exe)
 Integral symmetry usage will be decided dynamically.
 UHF open shell SCF:
 Using DIIS extrapolation, IDIIS=  1040.
 NGot=  1073741824 LenX=  1073398246 LenY=  1073229705
 Requested convergence on RMS density matrix=1.00D-08 within1000 cycles.
 Requested convergence on MAX density matrix=1.00D-06.
 Requested convergence on             energy=1.00D-06.
 No special actions if energy rises.
 Fock matrices will be formed incrementally for  20 cycles.
 Integral accuracy reduced to 1.0D-05 until final iterations.

 Cycle   1  Pass 0  IDiag  1:
 FoFJK:  IHMeth= 1 ICntrl=       0 DoSepK=F KAlg= 0 I1Cent=           0 FoldK=F
 IRaf= 970000000 NMat=       1 IRICut=       1 DoRegI=T DoRafI=F ISym2E= 0 IDoP0=0 IntGTp=1.
 FoFCou: FMM=F IPFlag=           0 FMFlag=      100000 FMFlg1=           0
         NFxFlg=           0 DoJE=F BraDBF=F KetDBF=F FulRan=T
         wScrn=  0.000000 ICntrl=         0 IOpCl=  1 I1Cent=           0 NGrid=           0
         NMat0=    1 NMatS0=      1 NMatT0=    0 NMatD0=    1 NMtDS0=    0 NMtDT0=    0
 Symmetry not used in FoFCou.
 E= -347.332986647158    
 DIIS: error= 2.13D-02 at cycle   1 NSaved=   1.
 NSaved= 1 IEnMin= 1 EnMin= -347.332986647158     IErMin= 1 ErrMin= 2.13D-02
 ErrMax= 2.13D-02  0.00D+00 EMaxC= 1.00D-01 BMatC= 9.40D-01 BMatP= 9.40D-01
 IDIUse=3 WtCom= 7.87D-01 WtEn= 2.13D-01
 Coeff-Com:  0.100D+01
 Coeff-En:   0.100D+01
 Coeff:      0.100D+01
 Gap=     0.211 Goal=   None    Shift=    0.000
 Gap=     0.196 Goal=   None    Shift=    0.000
 GapD=    0.196 DampG=1.000 DampE=0.500 DampFc=0.5000 IDamp=-1.
 Damping current iteration by 5.00D-01
 RMSDP=2.26D-03 MaxDP=1.16D-01              OVMax= 1.84D-01

 Cycle   2  Pass 0  IDiag  1:
 RMSU=  1.13D-03    CP:  9.94D-01
 E= -347.423959274225     Delta-E=       -0.090972627067 Rises=F Damp=T
 DIIS: error= 4.75D-03 at cycle   2 NSaved=   2.
 NSaved= 2 IEnMin= 2 EnMin= -347.423959274225     IErMin= 2 ErrMin= 4.75D-03
 ErrMax= 4.75D-03  0.00D+00 EMaxC= 1.00D-01 BMatC= 6.18D-02 BMatP= 9.40D-01
 IDIUse=3 WtCom= 9.52D-01 WtEn= 4.75D-02
 Coeff-Com:  0.612D-01 0.939D+00
 Coeff-En:   0.160D+00 0.840D+00
 Coeff:      0.659D-01 0.934D+00
 Gap=     0.270 Goal=   None    Shift=    0.000
 Gap=     0.169 Goal=   None    Shift=    0.000
 RMSDP=5.46D-04 MaxDP=3.24D-02 DE=-9.10D-02 OVMax= 1.14D-01

 Cycle   3  Pass 0  IDiag  1:
 RMSU=  4.36D-04    CP:  9.98D-01  7.11D-01
 E= -347.545276938519     Delta-E=       -0.121317664294 Rises=F Damp=F
 DIIS: error= 4.11D-03 at cycle   3 NSaved=   3.
 NSaved= 3 IEnMin= 3 EnMin= -347.545276938519     IErMin= 3 ErrMin= 4.11D-03
 ErrMax= 4.11D-03  0.00D+00 EMaxC= 1.00D-01 BMatC= 2.44D-02 BMatP= 6.18D-02
 IDIUse=3 WtCom= 9.59D-01 WtEn= 4.11D-02
 Coeff-Com: -0.322D-01 0.359D+00 0.673D+00
 Coeff-En:   0.000D+00 0.000D+00 0.100D+01
 Coeff:     -0.308D-01 0.344D+00 0.687D+00
 Gap=     0.261 Goal=   None    Shift=    0.000
 Gap=     0.157 Goal=   None    Shift=    0.000
 RMSDP=1.88D-04 MaxDP=8.41D-03 DE=-1.21D-01 OVMax= 1.76D-02

 Cycle   4  Pass 0  IDiag  1:
 RMSU=  1.38D-04    CP:  9.97D-01  7.82D-01  7.72D-01
 E= -347.549525911921     Delta-E=       -0.004248973402 Rises=F Damp=F
 DIIS: error= 1.52D-03 at cycle   4 NSaved=   4.
 NSaved= 4 IEnMin= 4 EnMin= -347.549525911921     IErMin= 4 ErrMin= 1.52D-03
 ErrMax= 1.52D-03  0.00D+00 EMaxC= 1.00D-01 BMatC= 6.40D-03 BMatP= 2.44D-02
 IDIUse=3 WtCom= 9.85D-01 WtEn= 1.52D-02
 Coeff-Com: -0.237D-01 0.102D+00 0.377D+00 0.545D+00
 Coeff-En:   0.000D+00 0.000D+00 0.143D+00 0.857D+00
 Coeff:     -0.234D-01 0.100D+00 0.374D+00 0.550D+00
 Gap=     0.259 Goal=   None    Shift=    0.000
 Gap=     0.156 Goal=   None    Shift=    0.000
 RMSDP=7.99D-05 MaxDP=3.69D-03 DE=-4.25D-03 OVMax= 1.01D-02

 Cycle   5  Pass 0  IDiag  1:
 RMSU=  5.10D-05    CP:  9.97D-01  7.88D-01  8.60D-01  6.54D-01
 E= -347.550710162007     Delta-E=       -0.001184250087 Rises=F Damp=F
 DIIS: error= 4.49D-04 at cycle   5 NSaved=   5.
 NSaved= 5 IEnMin= 5 EnMin= -347.550710162007     IErMin= 5 ErrMin= 4.49D-04
 ErrMax= 4.49D-04  0.00D+00 EMaxC= 1.00D-01 BMatC= 4.75D-04 BMatP= 6.40D-03
 IDIUse=3 WtCom= 9.96D-01 WtEn= 4.49D-03
 Coeff-Com: -0.827D-02 0.157D-01 0.115D+00 0.274D+00 0.604D+00
 Coeff-En:   0.000D+00 0.000D+00 0.000D+00 0.000D+00 0.100D+01
 Coeff:     -0.823D-02 0.156D-01 0.114D+00 0.273D+00 0.605D+00
 Gap=     0.260 Goal=   None    Shift=    0.000
 Gap=     0.158 Goal=   None    Shift=    0.000
 RMSDP=2.64D-05 MaxDP=1.27D-03 DE=-1.18D-03 OVMax= 3.47D-03

 Cycle   6  Pass 0  IDiag  1:
 RMSU=  1.65D-05    CP:  9.97D-01  7.80D-01  8.66D-01  7.29D-01  6.95D-01
 E= -347.550785154536     Delta-E=       -0.000074992529 Rises=F Damp=F
 DIIS: error= 1.55D-04 at cycle   6 NSaved=   6.
 NSaved= 6 IEnMin= 6 EnMin= -347.550785154536     IErMin= 6 ErrMin= 1.55D-04
 ErrMax= 1.55D-04  0.00D+00 EMaxC= 1.00D-01 BMatC= 7.36D-05 BMatP= 4.75D-04
 IDIUse=3 WtCom= 9.98D-01 WtEn= 1.55D-03
 Coeff-Com: -0.240D-02-0.200D-02 0.286D-01 0.105D+00 0.346D+00 0.525D+00
 Coeff-En:   0.000D+00 0.000D+00 0.000D+00 0.000D+00 0.336D-02 0.997D+00
 Coeff:     -0.240D-02-0.200D-02 0.285D-01 0.105D+00 0.345D+00 0.526D+00
 Gap=     0.260 Goal=   None    Shift=    0.000
 Gap=     0.158 Goal=   None    Shift=    0.000
 RMSDP=8.48D-06 MaxDP=3.99D-04 DE=-7.50D-05 OVMax= 1.48D-03

 Initial convergence to 1.0D-05 achieved.  Increase integral accuracy.
 Cycle   7  Pass 1  IDiag  1:
 E= -347.550792724582     Delta-E=       -0.000007570046 Rises=F Damp=F
 DIIS: error= 4.63D-05 at cycle   1 NSaved=   1.
 NSaved= 1 IEnMin= 1 EnMin= -347.550792724582     IErMin= 1 ErrMin= 4.63D-05
 ErrMax= 4.63D-05  0.00D+00 EMaxC= 1.00D-01 BMatC= 4.44D-06 BMatP= 4.44D-06
 IDIUse=1 WtCom= 1.00D+00 WtEn= 0.00D+00
 Coeff-Com:  0.100D+01
 Coeff:      0.100D+01
 Gap=     0.260 Goal=   None    Shift=    0.000
 Gap=     0.158 Goal=   None    Shift=    0.000
 RMSDP=8.48D-06 MaxDP=3.99D-04 DE=-7.57D-06 OVMax= 9.24D-04

 Cycle   8  Pass 1  IDiag  1:
 RMSU=  7.59D-06    CP:  1.00D+00
 E= -347.550793146147     Delta-E=       -0.000000421565 Rises=F Damp=F
 DIIS: error= 4.38D-05 at cycle   2 NSaved=   2.
 NSaved= 2 IEnMin= 2 EnMin= -347.550793146147     IErMin= 2 ErrMin= 4.38D-05
 ErrMax= 4.38D-05  0.00D+00 EMaxC= 1.00D-01 BMatC= 6.05D-06 BMatP= 4.44D-06
 IDIUse=1 WtCom= 1.00D+00 WtEn= 0.00D+00
 Coeff-Com:  0.547D+00 0.453D+00
 Coeff:      0.547D+00 0.453D+00
 Gap=     0.261 Goal=   None    Shift=    0.000
 Gap=     0.159 Goal=   None    Shift=    0.000
 RMSDP=2.31D-06 MaxDP=9.47D-05 DE=-4.22D-07 OVMax= 2.82D-04

 Cycle   9  Pass 1  IDiag  1:
 RMSU=  2.23D-06    CP:  1.00D+00  9.19D-01
 E= -347.550794234282     Delta-E=       -0.000001088135 Rises=F Damp=F
 DIIS: error= 1.33D-05 at cycle   3 NSaved=   3.
 NSaved= 3 IEnMin= 3 EnMin= -347.550794234282     IErMin= 3 ErrMin= 1.33D-05
 ErrMax= 1.33D-05  0.00D+00 EMaxC= 1.00D-01 BMatC= 4.19D-07 BMatP= 4.44D-06
 IDIUse=1 WtCom= 1.00D+00 WtEn= 0.00D+00
 Coeff-Com: -0.153D-01 0.174D+00 0.841D+00
 Coeff:     -0.153D-01 0.174D+00 0.841D+00
 Gap=     0.261 Goal=   None    Shift=    0.000
 Gap=     0.159 Goal=   None    Shift=    0.000
 RMSDP=9.75D-07 MaxDP=4.54D-05 DE=-1.09D-06 OVMax= 1.90D-04

 Cycle  10  Pass 1  IDiag  1:
 RMSU=  8.74D-07    CP:  1.00D+00  9.73D-01  9.43D-01
 E= -347.550794339380     Delta-E=       -0.000000105097 Rises=F Damp=F
 DIIS: error= 6.48D-06 at cycle   4 NSaved=   4.
 NSaved= 4 IEnMin= 4 EnMin= -347.550794339380     IErMin= 4 ErrMin= 6.48D-06
 ErrMax= 6.48D-06  0.00D+00 EMaxC= 1.00D-01 BMatC= 1.06D-07 BMatP= 4.19D-07
 IDIUse=1 WtCom= 1.00D+00 WtEn= 0.00D+00
 Coeff-Com: -0.795D-01 0.287D-01 0.429D+00 0.622D+00
 Coeff:     -0.795D-01 0.287D-01 0.429D+00 0.622D+00
 Gap=     0.261 Goal=   None    Shift=    0.000
 Gap=     0.159 Goal=   None    Shift=    0.000
 RMSDP=4.35D-07 MaxDP=2.42D-05 DE=-1.05D-07 OVMax= 8.14D-05

 Cycle  11  Pass 1  IDiag  1:
 RMSU=  4.05D-07    CP:  1.00D+00  9.88D-01  9.90D-01  9.90D-01
 E= -347.550794364788     Delta-E=       -0.000000025408 Rises=F Damp=F
 DIIS: error= 2.87D-06 at cycle   5 NSaved=   5.
 NSaved= 5 IEnMin= 5 EnMin= -347.550794364788     IErMin= 5 ErrMin= 2.87D-06
 ErrMax= 2.87D-06  0.00D+00 EMaxC= 1.00D-01 BMatC= 1.80D-08 BMatP= 1.06D-07
 IDIUse=1 WtCom= 1.00D+00 WtEn= 0.00D+00
 Coeff-Com: -0.349D-01-0.261D-01 0.118D-01 0.300D+00 0.749D+00
 Coeff:     -0.349D-01-0.261D-01 0.118D-01 0.300D+00 0.749D+00
 Gap=     0.261 Goal=   None    Shift=    0.000
 Gap=     0.159 Goal=   None    Shift=    0.000
 RMSDP=1.98D-07 MaxDP=1.08D-05 DE=-2.54D-08 OVMax= 3.49D-05

 Cycle  12  Pass 1  IDiag  1:
 RMSU=  1.37D-07    CP:  1.00D+00  9.94D-01  1.02D+00  1.13D+00  9.49D-01
 E= -347.550794369801     Delta-E=       -0.000000005013 Rises=F Damp=F
 DIIS: error= 9.47D-07 at cycle   6 NSaved=   6.
 NSaved= 6 IEnMin= 6 EnMin= -347.550794369801     IErMin= 6 ErrMin= 9.47D-07
 ErrMax= 9.47D-07  0.00D+00 EMaxC= 1.00D-01 BMatC= 2.21D-09 BMatP= 1.80D-08
 IDIUse=1 WtCom= 1.00D+00 WtEn= 0.00D+00
 Coeff-Com: -0.472D-03-0.162D-01-0.714D-01 0.197D-01 0.317D+00 0.751D+00
 Coeff:     -0.472D-03-0.162D-01-0.714D-01 0.197D-01 0.317D+00 0.751D+00
 Gap=     0.261 Goal=   None    Shift=    0.000
 Gap=     0.159 Goal=   None    Shift=    0.000
 RMSDP=7.29D-08 MaxDP=3.97D-06 DE=-5.01D-09 OVMax= 6.79D-06

 Cycle  13  Pass 1  IDiag  1:
 RMSU=  3.94D-08    CP:  1.00D+00  9.95D-01  1.02D+00  1.17D+00  1.05D+00
                    CP:  8.38D-01
 E= -347.550794370354     Delta-E=       -0.000000000553 Rises=F Damp=F
 DIIS: error= 3.69D-07 at cycle   7 NSaved=   7.
 NSaved= 7 IEnMin= 7 EnMin= -347.550794370354     IErMin= 7 ErrMin= 3.69D-07
 ErrMax= 3.69D-07  0.00D+00 EMaxC= 1.00D-01 BMatC= 3.08D-10 BMatP= 2.21D-09
 IDIUse=1 WtCom= 1.00D+00 WtEn= 0.00D+00
 Coeff-Com:  0.221D-02-0.613D-02-0.358D-01-0.122D-01 0.103D+00 0.380D+00
 Coeff-Com:  0.569D+00
 Coeff:      0.221D-02-0.613D-02-0.358D-01-0.122D-01 0.103D+00 0.380D+00
 Coeff:      0.569D+00
 Gap=     0.261 Goal=   None    Shift=    0.000
 Gap=     0.159 Goal=   None    Shift=    0.000
 RMSDP=1.83D-08 MaxDP=7.18D-07 DE=-5.53D-10 OVMax= 1.76D-06

 Cycle  14  Pass 1  IDiag  1:
 RMSU=  1.56D-08    CP:  1.00D+00  9.95D-01  1.02D+00  1.18D+00  1.04D+00
                    CP:  8.90D-01  9.05D-01
 E= -347.550794370424     Delta-E=       -0.000000000069 Rises=F Damp=F
 DIIS: error= 7.73D-08 at cycle   8 NSaved=   8.
 NSaved= 8 IEnMin= 8 EnMin= -347.550794370424     IErMin= 8 ErrMin= 7.73D-08
 ErrMax= 7.73D-08  0.00D+00 EMaxC= 1.00D-01 BMatC= 1.13D-11 BMatP= 3.08D-10
 IDIUse=1 WtCom= 1.00D+00 WtEn= 0.00D+00
 Coeff-Com:  0.301D-03 0.169D-02 0.649D-02-0.422D-02-0.324D-01-0.646D-01
 Coeff-Com:  0.644D-01 0.103D+01
 Coeff:      0.301D-03 0.169D-02 0.649D-02-0.422D-02-0.324D-01-0.646D-01
 Coeff:      0.644D-01 0.103D+01
 Gap=     0.261 Goal=   None    Shift=    0.000
 Gap=     0.159 Goal=   None    Shift=    0.000
 RMSDP=9.13D-09 MaxDP=4.79D-07 DE=-6.93D-11 OVMax= 2.66D-06

 SCF Done:  E(UB3LYP) =  -347.550794370     A.U. after   14 cycles
            NFock= 14  Conv=0.91D-08     -V/T= 2.0069
 <Sx>= 0.0000 <Sy>= 0.0000 <Sz>= 0.5000 <S**2>= 0.7531 S= 0.5015
 <L.S>=  0.00000000000    
 KE= 3.451706093084D+02 PE=-1.478452027021D+03 EE= 4.521000288127D+02
 Annihilation of the first spin contaminant:
 S**2 before annihilation     0.7531,   after     0.7500
 Leave Link  502 at Tue Apr 12 17:02:20 2022, MaxMem=  1073741824 cpu:             698.6 elap:              87.4
 (Enter /home/saurabh/gaussian/g16/l801.exe)
 DoSCS=F DFT=T ScalE2(SS,OS)=  1.000000  1.000000
 Range of M.O.s used for correlation:     1   364
 NBasis=   364 NAE=    29 NBE=    28 NFC=     0 NFV=     0
 NROrb=    364 NOA=    29 NOB=    28 NVA=   335 NVB=   336

 **** Warning!!: The largest alpha MO coefficient is  0.12707284D+02


 **** Warning!!: The largest beta MO coefficient is  0.12348978D+02

 Leave Link  801 at Tue Apr 12 17:02:20 2022, MaxMem=  1073741824 cpu:               0.2 elap:               0.0
 (Enter /home/saurabh/gaussian/g16/l1101.exe)
 Using compressed storage, NAtomX=    18.
 Will process     19 centers per pass.
 Leave Link 1101 at Tue Apr 12 17:02:21 2022, MaxMem=  1073741824 cpu:               2.9 elap:               0.4
 (Enter /home/saurabh/gaussian/g16/l1102.exe)
 Symmetrizing basis deriv contribution to polar:
 IMax=3 JMax=2 DiffMx= 0.00D+00
 Leave Link 1102 at Tue Apr 12 17:02:21 2022, MaxMem=  1073741824 cpu:               0.3 elap:               0.1
 (Enter /home/saurabh/gaussian/g16/l1110.exe)
 Forming Gx(P) for the SCF density, NAtomX=    18.
 Integral derivatives from FoFJK, PRISM(SPDF).
 Do as many integral derivatives as possible in FoFJK.
 G2DrvN: MDV=    1073739834.
 G2DrvN: will do    19 centers at a time, making    1 passes.
 Calling FoFCou, ICntrl=  3107 FMM=F I1Cent=   0 AccDes= 0.00D+00.
 FoFJK:  IHMeth= 1 ICntrl=    3107 DoSepK=F KAlg= 0 I1Cent=           0 FoldK=F
 IRaf=         0 NMat=       1 IRICut=       1 DoRegI=T DoRafI=F ISym2E= 0 IDoP0=0 IntGTp=1.
 FoFCou: FMM=F IPFlag=           0 FMFlag=      100000 FMFlg1=           0
         NFxFlg=           0 DoJE=F BraDBF=F KetDBF=F FulRan=T
         wScrn=  0.000000 ICntrl=      3107 IOpCl=  1 I1Cent=           0 NGrid=           0
         NMat0=    1 NMatS0=      1 NMatT0=    0 NMatD0=    1 NMtDS0=    0 NMtDT0=    0
 Symmetry not used in FoFCou.
 End of G2Drv F.D. properties file   721 does not exist.
 End of G2Drv F.D. properties file   722 does not exist.
 End of G2Drv F.D. properties file   788 does not exist.
 Leave Link 1110 at Tue Apr 12 17:05:00 2022, MaxMem=  1073741824 cpu:            1272.5 elap:             159.1
 (Enter /home/saurabh/gaussian/g16/l1002.exe)
 Minotr:  UHF open shell wavefunction.
          IDoAtm=111111111111111111
          Direct CPHF calculation.
          Differentiating once with respect to nuclear coordinates.
          Requested convergence is 1.0D-08 RMS, and 1.0D-07 maximum.
          Secondary convergence is 1.0D-12 RMS, and 1.0D-12 maximum.
          NewPWx=T KeepS1=F KeepF1=F KeepIn=T MapXYZ=F SortEE=F KeepMc=T.
         5351 words used for storage of precomputed grid.
 Two-electron integrals replicated using symmetry.
          MDV=    1073741824 using IRadAn=       1.
          Solving linear equations simultaneously, MaxMat=     384.
 FoF2E skips out because all densities are zero.
 CalDSu exits because no D1Ps are significant.
 FoFJK:  IHMeth= 1 ICntrl=       0 DoSepK=F KAlg= 0 I1Cent=           0 FoldK=F
 IRaf= 960000000 NMat=      54 IRICut=     135 DoRegI=T DoRafI=T ISym2E= 2 IDoP0=3 IntGTp=3.
 FoFCou: FMM=F IPFlag=           0 FMFlag=      100000 FMFlg1=           0
         NFxFlg=           0 DoJE=F BraDBF=F KetDBF=F FulRan=T
         wScrn=  0.000000 ICntrl=         0 IOpCl=  1 I1Cent=           0 NGrid=           0
         NMat0=   54 NMatS0=     54 NMatT0=    0 NMatD0=   54 NMtDS0=    0 NMtDT0=    0
 Integrals replicated using symmetry in FoFCou.
 Raff kept on since  94.24% of shell-pairs survive, threshold=   0.20 IRatSp=94.
          There are    57 degrees of freedom in the 1st order CPHF.  IDoFFX=6 NUNeed=     0.
     51 vectors produced by pass  0 Test12= 3.35D-14 1.75D-09 XBig12= 1.83D-01 1.32D-01.
 AX will form    51 AO Fock derivatives at one time.
     51 vectors produced by pass  1 Test12= 3.35D-14 1.75D-09 XBig12= 3.50D-02 2.56D-02.
     51 vectors produced by pass  2 Test12= 3.35D-14 1.75D-09 XBig12= 5.89D-04 5.29D-03.
     51 vectors produced by pass  3 Test12= 3.35D-14 1.75D-09 XBig12= 3.06D-06 2.85D-04.
     51 vectors produced by pass  4 Test12= 3.35D-14 1.75D-09 XBig12= 2.68D-08 2.01D-05.
     51 vectors produced by pass  5 Test12= 3.35D-14 1.75D-09 XBig12= 1.39D-10 1.28D-06.
     35 vectors produced by pass  6 Test12= 3.35D-14 1.75D-09 XBig12= 6.70D-13 7.65D-08.
      6 vectors produced by pass  7 Test12= 3.35D-14 1.75D-09 XBig12= 2.23D-15 4.14D-09.
 InvSVY:  IOpt=1 It=  1 EMax= 6.11D-16
 Solved reduced A of dimension   347 with    57 vectors.
 End of Minotr F.D. properties file   721 does not exist.
 End of Minotr F.D. properties file   722 does not exist.
 End of Minotr F.D. properties file   788 does not exist.
 Leave Link 1002 at Tue Apr 12 17:11:34 2022, MaxMem=  1073741824 cpu:            3155.6 elap:             394.5
 (Enter /home/saurabh/gaussian/g16/l601.exe)
 Copying SCF densities to generalized density rwf, IOpCl= 1 IROHF=0.

 **********************************************************************

            Population analysis using the SCF Density.

 **********************************************************************

 Orbital symmetries:
 Alpha Orbitals:
       Occupied  (A) (A) (A) (A) (A) (A) (A) (A) (A) (A) (A) (A)
                 (A) (A) (A) (A) (A) (A) (A) (A) (A) (A) (A) (A)
                 (A) (A) (A) (A) (A)
       Virtual   (A) (A) (A) (A) (A) (A) (A) (A) (A) (A) (A) (A)
                 (A) (A) (A) (A) (A) (A) (A) (A) (A) (A) (A) (A)
                 (A) (A) (A) (A) (A) (A) (A) (A) (A) (A) (A) (A)
                 (A) (A) (A) (A) (A) (A) (A) (A) (A) (A) (A) (A)
                 (A) (A) (A) (A) (A) (A) (A) (A) (A) (A) (A) (A)
                 (A) (A) (A) (A) (A) (A) (A) (A) (A) (A) (A) (A)
                 (A) (A) (A) (A) (A) (A) (A) (A) (A) (A) (A) (A)
                 (A) (A) (A) (A) (A) (A) (A) (A) (A) (A) (A) (A)
                 (A) (A) (A) (A) (A) (A) (A) (A) (A) (A) (A) (A)
                 (A) (A) (A) (A) (A) (A) (A) (A) (A) (A) (A) (A)
                 (A) (A) (A) (A) (A) (A) (A) (A) (A) (A) (A) (A)
                 (A) (A) (A) (A) (A) (A) (A) (A) (A) (A) (A) (A)
                 (A) (A) (A) (A) (A) (A) (A) (A) (A) (A) (A) (A)
                 (A) (A) (A) (A) (A) (A) (A) (A) (A) (A) (A) (A)
                 (A) (A) (A) (A) (A) (A) (A) (A) (A) (A) (A) (A)
                 (A) (A) (A) (A) (A) (A) (A) (A) (A) (A) (A) (A)
                 (A) (A) (A) (A) (A) (A) (A) (A) (A) (A) (A) (A)
                 (A) (A) (A) (A) (A) (A) (A) (A) (A) (A) (A) (A)
                 (A) (A) (A) (A) (A) (A) (A) (A) (A) (A) (A) (A)
                 (A) (A) (A) (A) (A) (A) (A) (A) (A) (A) (A) (A)
                 (A) (A) (A) (A) (A) (A) (A) (A) (A) (A) (A) (A)
                 (A) (A) (A) (A) (A) (A) (A) (A) (A) (A) (A) (A)
                 (A) (A) (A) (A) (A) (A) (A) (A) (A) (A) (A) (A)
                 (A) (A) (A) (A) (A) (A) (A) (A) (A) (A) (A) (A)
                 (A) (A) (A) (A) (A) (A) (A) (A) (A) (A) (A) (A)
                 (A) (A) (A) (A) (A) (A) (A) (A) (A) (A) (A) (A)
                 (A) (A) (A) (A) (A) (A) (A) (A) (A) (A) (A) (A)
                 (A) (A) (A) (A) (A) (A) (A) (A) (A) (A) (A)
 Beta  Orbitals:
       Occupied  (A) (A) (A) (A) (A) (A) (A) (A) (A) (A) (A) (A)
                 (A) (A) (A) (A) (A) (A) (A) (A) (A) (A) (A) (A)
                 (A) (A) (A) (A)
       Virtual   (A) (A) (A) (A) (A) (A) (A) (A) (A) (A) (A) (A)
                 (A) (A) (A) (A) (A) (A) (A) (A) (A) (A) (A) (A)
                 (A) (A) (A) (A) (A) (A) (A) (A) (A) (A) (A) (A)
                 (A) (A) (A) (A) (A) (A) (A) (A) (A) (A) (A) (A)
                 (A) (A) (A) (A) (A) (A) (A) (A) (A) (A) (A) (A)
                 (A) (A) (A) (A) (A) (A) (A) (A) (A) (A) (A) (A)
                 (A) (A) (A) (A) (A) (A) (A) (A) (A) (A) (A) (A)
                 (A) (A) (A) (A) (A) (A) (A) (A) (A) (A) (A) (A)
                 (A) (A) (A) (A) (A) (A) (A) (A) (A) (A) (A) (A)
                 (A) (A) (A) (A) (A) (A) (A) (A) (A) (A) (A) (A)
                 (A) (A) (A) (A) (A) (A) (A) (A) (A) (A) (A) (A)
                 (A) (A) (A) (A) (A) (A) (A) (A) (A) (A) (A) (A)
                 (A) (A) (A) (A) (A) (A) (A) (A) (A) (A) (A) (A)
                 (A) (A) (A) (A) (A) (A) (A) (A) (A) (A) (A) (A)
                 (A) (A) (A) (A) (A) (A) (A) (A) (A) (A) (A) (A)
                 (A) (A) (A) (A) (A) (A) (A) (A) (A) (A) (A) (A)
                 (A) (A) (A) (A) (A) (A) (A) (A) (A) (A) (A) (A)
                 (A) (A) (A) (A) (A) (A) (A) (A) (A) (A) (A) (A)
                 (A) (A) (A) (A) (A) (A) (A) (A) (A) (A) (A) (A)
                 (A) (A) (A) (A) (A) (A) (A) (A) (A) (A) (A) (A)
                 (A) (A) (A) (A) (A) (A) (A) (A) (A) (A) (A) (A)
                 (A) (A) (A) (A) (A) (A) (A) (A) (A) (A) (A) (A)
                 (A) (A) (A) (A) (A) (A) (A) (A) (A) (A) (A) (A)
                 (A) (A) (A) (A) (A) (A) (A) (A) (A) (A) (A) (A)
                 (A) (A) (A) (A) (A) (A) (A) (A) (A) (A) (A) (A)
                 (A) (A) (A) (A) (A) (A) (A) (A) (A) (A) (A) (A)
                 (A) (A) (A) (A) (A) (A) (A) (A) (A) (A) (A) (A)
                 (A) (A) (A) (A) (A) (A) (A) (A) (A) (A) (A) (A)
 The electronic state is 2-A.
 Alpha  occ. eigenvalues --  -19.18052 -19.17834 -10.22368 -10.19951 -10.19748
 Alpha  occ. eigenvalues --  -10.18235 -10.16938  -1.17986  -0.89982  -0.82069
 Alpha  occ. eigenvalues --   -0.69036  -0.68148  -0.67346  -0.55774  -0.54695
 Alpha  occ. eigenvalues --   -0.49221  -0.48229  -0.44395  -0.43842  -0.42690
 Alpha  occ. eigenvalues --   -0.39512  -0.39195  -0.36625  -0.35453  -0.34987
 Alpha  occ. eigenvalues --   -0.33323  -0.30103  -0.25627  -0.23704
 Alpha virt. eigenvalues --    0.02349   0.04504   0.06812   0.06915   0.07440
 Alpha virt. eigenvalues --    0.08461   0.09505   0.11261   0.12235   0.13631
 Alpha virt. eigenvalues --    0.14233   0.14701   0.15037   0.16968   0.18031
 Alpha virt. eigenvalues --    0.18978   0.20699   0.25300   0.26365   0.29110
 Alpha virt. eigenvalues --    0.29503   0.30731   0.33116   0.33246   0.35652
 Alpha virt. eigenvalues --    0.37645   0.38162   0.39684   0.41193   0.42607
 Alpha virt. eigenvalues --    0.43551   0.43777   0.44079   0.44927   0.45455
 Alpha virt. eigenvalues --    0.45766   0.45892   0.46952   0.47424   0.48098
 Alpha virt. eigenvalues --    0.48629   0.49580   0.50535   0.53443   0.55427
 Alpha virt. eigenvalues --    0.60183   0.61076   0.62892   0.66106   0.66718
 Alpha virt. eigenvalues --    0.69846   0.70405   0.73218   0.74888   0.77553
 Alpha virt. eigenvalues --    0.79635   0.81944   0.82406   0.84290   0.84969
 Alpha virt. eigenvalues --    0.87364   0.88395   0.90981   0.91146   0.92548
 Alpha virt. eigenvalues --    0.93006   0.94299   0.95248   0.97713   0.99663
 Alpha virt. eigenvalues --    1.00640   1.02179   1.03205   1.04848   1.06875
 Alpha virt. eigenvalues --    1.09218   1.11168   1.12991   1.15287   1.16038
 Alpha virt. eigenvalues --    1.16790   1.18485   1.19444   1.20807   1.21735
 Alpha virt. eigenvalues --    1.23448   1.24563   1.25643   1.26389   1.27906
 Alpha virt. eigenvalues --    1.29523   1.29553   1.30471   1.31793   1.33413
 Alpha virt. eigenvalues --    1.34162   1.37308   1.39160   1.40028   1.42028
 Alpha virt. eigenvalues --    1.43705   1.45588   1.46283   1.47320   1.50290
 Alpha virt. eigenvalues --    1.51119   1.52161   1.53770   1.54281   1.59774
 Alpha virt. eigenvalues --    1.62429   1.67573   1.69608   1.71224   1.73302
 Alpha virt. eigenvalues --    1.76797   1.87104   1.94693   2.00035   2.00721
 Alpha virt. eigenvalues --    2.06229   2.15860   2.19154   2.22213   2.24002
 Alpha virt. eigenvalues --    2.25439   2.29031   2.31388   2.34842   2.36951
 Alpha virt. eigenvalues --    2.39400   2.40116   2.42861   2.45141   2.47537
 Alpha virt. eigenvalues --    2.50241   2.51761   2.53851   2.55732   2.56903
 Alpha virt. eigenvalues --    2.57080   2.59730   2.60186   2.62233   2.67831
 Alpha virt. eigenvalues --    2.69506   2.71155   2.73269   2.76938   2.77685
 Alpha virt. eigenvalues --    2.78822   2.79734   2.81582   2.81989   2.87193
 Alpha virt. eigenvalues --    2.88062   2.88776   2.90759   2.92894   2.94565
 Alpha virt. eigenvalues --    2.95424   2.97835   2.98264   2.99125   2.99905
 Alpha virt. eigenvalues --    3.02646   3.03101   3.05175   3.05902   3.07102
 Alpha virt. eigenvalues --    3.09323   3.11243   3.11603   3.12254   3.13177
 Alpha virt. eigenvalues --    3.14922   3.16826   3.18228   3.21767   3.22209
 Alpha virt. eigenvalues --    3.24334   3.25457   3.27082   3.28102   3.29731
 Alpha virt. eigenvalues --    3.30908   3.33514   3.33960   3.35453   3.37651
 Alpha virt. eigenvalues --    3.38713   3.41293   3.41888   3.43684   3.45311
 Alpha virt. eigenvalues --    3.45809   3.46247   3.48964   3.49073   3.52435
 Alpha virt. eigenvalues --    3.53562   3.55940   3.57382   3.58489   3.60635
 Alpha virt. eigenvalues --    3.62777   3.64672   3.65592   3.66945   3.68259
 Alpha virt. eigenvalues --    3.69262   3.70000   3.73272   3.74112   3.74897
 Alpha virt. eigenvalues --    3.76346   3.79884   3.80726   3.81828   3.84510
 Alpha virt. eigenvalues --    3.85394   3.88583   3.90559   3.92021   3.94588
 Alpha virt. eigenvalues --    3.96555   3.98649   3.99254   4.02468   4.03782
 Alpha virt. eigenvalues --    4.05003   4.05841   4.06495   4.07139   4.08980
 Alpha virt. eigenvalues --    4.09371   4.10090   4.11942   4.13762   4.15295
 Alpha virt. eigenvalues --    4.16277   4.16746   4.19115   4.19900   4.20873
 Alpha virt. eigenvalues --    4.23138   4.24515   4.25876   4.27017   4.28322
 Alpha virt. eigenvalues --    4.30862   4.34051   4.36201   4.39676   4.41829
 Alpha virt. eigenvalues --    4.50280   4.52941   4.54440   4.56026   4.60197
 Alpha virt. eigenvalues --    4.60773   4.63042   4.64611   4.67322   4.73933
 Alpha virt. eigenvalues --    4.74891   4.76492   4.77413   4.78300   4.80170
 Alpha virt. eigenvalues --    4.81407   4.86121   4.87545   4.90818   4.92483
 Alpha virt. eigenvalues --    4.95628   4.98051   4.99469   5.02139   5.06348
 Alpha virt. eigenvalues --    5.07295   5.08216   5.11680   5.12516   5.15524
 Alpha virt. eigenvalues --    5.17183   5.17793   5.18901   5.22061   5.22909
 Alpha virt. eigenvalues --    5.24059   5.26327   5.27813   5.29768   5.31615
 Alpha virt. eigenvalues --    5.33127   5.36382   5.38200   5.39886   5.45958
 Alpha virt. eigenvalues --    5.50202   5.52137   5.59562   5.75989   5.84958
 Alpha virt. eigenvalues --    5.88291   5.88557   5.91001   5.91426   5.93828
 Alpha virt. eigenvalues --    5.99810   6.09237   6.12692   6.28357   6.37522
 Alpha virt. eigenvalues --    6.40762   6.46756   6.52662   6.61885   6.69258
 Alpha virt. eigenvalues --    6.76409   6.84152   6.94694   7.00809   7.21753
 Alpha virt. eigenvalues --    7.36752   7.51760   7.77521   9.42470  10.60412
 Alpha virt. eigenvalues --   11.81561  11.90180  12.51652  13.24959  13.29776
  Beta  occ. eigenvalues --  -19.18052 -19.17792 -10.22355 -10.19970 -10.18308
  Beta  occ. eigenvalues --  -10.18118 -10.16919  -1.17944  -0.89913  -0.81489
  Beta  occ. eigenvalues --   -0.68867  -0.67424  -0.65628  -0.55676  -0.54272
  Beta  occ. eigenvalues --   -0.49066  -0.47997  -0.44083  -0.43634  -0.42019
  Beta  occ. eigenvalues --   -0.39344  -0.38633  -0.36435  -0.35124  -0.34567
  Beta  occ. eigenvalues --   -0.32921  -0.30002  -0.24732
  Beta virt. eigenvalues --   -0.08872   0.02503   0.04919   0.06945   0.07111
  Beta virt. eigenvalues --    0.07607   0.08632   0.09724   0.11359   0.12339
  Beta virt. eigenvalues --    0.13729   0.14405   0.14726   0.15315   0.17180
  Beta virt. eigenvalues --    0.18153   0.19395   0.20957   0.25578   0.26736
  Beta virt. eigenvalues --    0.29473   0.30018   0.31475   0.33332   0.34021
  Beta virt. eigenvalues --    0.37317   0.38172   0.38411   0.40167   0.41734
  Beta virt. eigenvalues --    0.42824   0.43776   0.44287   0.44362   0.45075
  Beta virt. eigenvalues --    0.45636   0.46077   0.46327   0.47448   0.47783
  Beta virt. eigenvalues --    0.48210   0.48759   0.50045   0.50753   0.53793
  Beta virt. eigenvalues --    0.55809   0.60585   0.61322   0.63238   0.66409
  Beta virt. eigenvalues --    0.66834   0.70005   0.70917   0.73380   0.75115
  Beta virt. eigenvalues --    0.78047   0.79769   0.82182   0.82490   0.84732
  Beta virt. eigenvalues --    0.85236   0.87641   0.88857   0.91069   0.91464
  Beta virt. eigenvalues --    0.92793   0.93369   0.94451   0.95492   0.98070
  Beta virt. eigenvalues --    0.99921   1.00757   1.02664   1.03915   1.05385
  Beta virt. eigenvalues --    1.07286   1.09486   1.12406   1.13272   1.15500
  Beta virt. eigenvalues --    1.16187   1.17013   1.18807   1.20044   1.21272
  Beta virt. eigenvalues --    1.22210   1.23712   1.25196   1.26061   1.26776
  Beta virt. eigenvalues --    1.28125   1.29628   1.29914   1.30757   1.31939
  Beta virt. eigenvalues --    1.33786   1.34625   1.37508   1.39396   1.40330
  Beta virt. eigenvalues --    1.42182   1.43951   1.46100   1.46791   1.47663
  Beta virt. eigenvalues --    1.50408   1.51447   1.52261   1.54306   1.54862
  Beta virt. eigenvalues --    1.60005   1.62991   1.68013   1.70107   1.71350
  Beta virt. eigenvalues --    1.73542   1.76954   1.87447   1.94848   2.00130
  Beta virt. eigenvalues --    2.00776   2.06299   2.16387   2.21495   2.22460
  Beta virt. eigenvalues --    2.24407   2.26312   2.29372   2.31848   2.34994
  Beta virt. eigenvalues --    2.37347   2.39815   2.40832   2.44077   2.45761
  Beta virt. eigenvalues --    2.47893   2.50857   2.52899   2.54106   2.56278
  Beta virt. eigenvalues --    2.57199   2.57592   2.60191   2.60580   2.62778
  Beta virt. eigenvalues --    2.68547   2.70352   2.71622   2.74432   2.77244
  Beta virt. eigenvalues --    2.78161   2.78912   2.80563   2.82331   2.82672
  Beta virt. eigenvalues --    2.87406   2.88635   2.89174   2.91307   2.93632
  Beta virt. eigenvalues --    2.95248   2.96624   2.98369   2.98663   3.00012
  Beta virt. eigenvalues --    3.00391   3.02968   3.03803   3.05645   3.06312
  Beta virt. eigenvalues --    3.07949   3.10275   3.11775   3.11855   3.12585
  Beta virt. eigenvalues --    3.13885   3.15920   3.17691   3.18785   3.22094
  Beta virt. eigenvalues --    3.23164   3.25115   3.26749   3.27213   3.28504
  Beta virt. eigenvalues --    3.30025   3.31258   3.33990   3.34608   3.35895
  Beta virt. eigenvalues --    3.38292   3.39066   3.41464   3.42046   3.43827
  Beta virt. eigenvalues --    3.45505   3.46062   3.46367   3.49645   3.49874
  Beta virt. eigenvalues --    3.52666   3.53732   3.56214   3.57526   3.58701
  Beta virt. eigenvalues --    3.61025   3.63045   3.65283   3.65889   3.67264
  Beta virt. eigenvalues --    3.68560   3.69326   3.70209   3.73496   3.74602
  Beta virt. eigenvalues --    3.75108   3.76575   3.80192   3.81189   3.82131
  Beta virt. eigenvalues --    3.84855   3.85752   3.88880   3.90860   3.92426
  Beta virt. eigenvalues --    3.94794   3.97064   3.98744   3.99688   4.02584
  Beta virt. eigenvalues --    4.04086   4.05241   4.05994   4.06757   4.07285
  Beta virt. eigenvalues --    4.09146   4.09589   4.10327   4.12093   4.13925
  Beta virt. eigenvalues --    4.15429   4.16404   4.16886   4.19255   4.19992
  Beta virt. eigenvalues --    4.20969   4.23251   4.24578   4.25964   4.27420
  Beta virt. eigenvalues --    4.28503   4.31596   4.34223   4.36294   4.39827
  Beta virt. eigenvalues --    4.42002   4.50580   4.53212   4.54657   4.56100
  Beta virt. eigenvalues --    4.60566   4.60909   4.63206   4.64705   4.67548
  Beta virt. eigenvalues --    4.74126   4.75191   4.76840   4.78352   4.78774
  Beta virt. eigenvalues --    4.80562   4.81762   4.86237   4.87652   4.91030
  Beta virt. eigenvalues --    4.92996   4.96278   4.98115   5.00632   5.02243
  Beta virt. eigenvalues --    5.06498   5.07474   5.08274   5.11817   5.12723
  Beta virt. eigenvalues --    5.15729   5.17469   5.17941   5.19127   5.22360
  Beta virt. eigenvalues --    5.23021   5.24392   5.26829   5.28019   5.29910
  Beta virt. eigenvalues --    5.31784   5.33327   5.36498   5.38314   5.40024
  Beta virt. eigenvalues --    5.46052   5.50653   5.52474   5.59601   5.76011
  Beta virt. eigenvalues --    5.85041   5.88479   5.89074   5.91127   5.91681
  Beta virt. eigenvalues --    5.93992   5.99828   6.09292   6.12728   6.28402
  Beta virt. eigenvalues --    6.37605   6.40795   6.46795   6.52707   6.61943
  Beta virt. eigenvalues --    6.69308   6.76453   6.84171   6.94739   7.00831
  Beta virt. eigenvalues --    7.21799   7.36759   7.51780   7.77548   9.42692
  Beta virt. eigenvalues --   10.60451  11.82534  11.90861  12.51686  13.25047
  Beta virt. eigenvalues --   13.29847
          Condensed to atoms (all electrons):
               1          2          3          4          5          6
     1  C    4.928160   0.344364  -0.050760  -0.066371  -0.055664   0.396317
     2  C    0.344364   5.056468   0.324739   0.329792   0.315574  -0.037170
     3  C   -0.050760   0.324739   4.933330  -0.057113  -0.038046  -0.003848
     4  C   -0.066371   0.329792  -0.057113   5.309793  -0.048504   0.008150
     5  C   -0.055664   0.315574  -0.038046  -0.048504   4.708568  -0.004455
     6  H    0.396317  -0.037170  -0.003848   0.008150  -0.004455   0.609207
     7  H    0.393180  -0.035764   0.009400   0.000243  -0.005287  -0.025720
     8  H    0.397942  -0.031463  -0.007497  -0.006687   0.007674  -0.030466
     9  H    0.007553  -0.055052   0.003993  -0.012766   0.413045  -0.000201
    10  H   -0.010762  -0.063943  -0.001010   0.010025   0.417896   0.004290
    11  H    0.000746   0.004643   0.000065   0.007582  -0.003457  -0.000001
    12  H    0.008017  -0.047472  -0.001203   0.394814  -0.005146  -0.000581
    13  H   -0.007352  -0.040606  -0.006206   0.388704   0.006649  -0.000211
    14  H   -0.006176  -0.037225   0.392588   0.010109  -0.003308   0.003617
    15  H   -0.005343  -0.026426   0.392707  -0.005381   0.005663  -0.000414
    16  H    0.008907  -0.036896   0.395364  -0.002858  -0.004044  -0.000190
    17  O   -0.010687  -0.050023   0.003755  -0.001441   0.328073   0.000062
    18  O    0.000246  -0.008870  -0.000439   0.009739  -0.057047  -0.000008
               7          8          9         10         11         12
     1  C    0.393180   0.397942   0.007553  -0.010762   0.000746   0.008017
     2  C   -0.035764  -0.031463  -0.055052  -0.063943   0.004643  -0.047472
     3  C    0.009400  -0.007497   0.003993  -0.001010   0.000065  -0.001203
     4  C    0.000243  -0.006687  -0.012766   0.010025   0.007582   0.394814
     5  C   -0.005287   0.007674   0.413045   0.417896  -0.003457  -0.005146
     6  H   -0.025720  -0.030466  -0.000201   0.004290  -0.000001  -0.000581
     7  H    0.586663  -0.029726   0.000818   0.000884  -0.000128   0.000084
     8  H   -0.029726   0.609040  -0.000321  -0.000065  -0.000044  -0.000111
     9  H    0.000818  -0.000321   0.622136  -0.031817  -0.001011   0.004680
    10  H    0.000884  -0.000065  -0.031817   0.617975  -0.001351  -0.000118
    11  H   -0.000128  -0.000044  -0.001011  -0.001351   0.474212  -0.000592
    12  H    0.000084  -0.000111   0.004680  -0.000118  -0.000592   0.581302
    13  H   -0.000656   0.004506  -0.000147  -0.000460  -0.000025  -0.039935
    14  H   -0.000157  -0.000273  -0.000490   0.005193  -0.000025  -0.000324
    15  H   -0.000198   0.004334  -0.000075  -0.000520  -0.000002  -0.000270
    16  H   -0.000530  -0.000137   0.003650  -0.000817   0.000016   0.004359
    17  O    0.013937  -0.000087  -0.036025  -0.028477  -0.038235   0.000148
    18  O   -0.000999  -0.000010   0.009852   0.006176   0.327395   0.001779
              13         14         15         16         17         18
     1  C   -0.007352  -0.006176  -0.005343   0.008907  -0.010687   0.000246
     2  C   -0.040606  -0.037225  -0.026426  -0.036896  -0.050023  -0.008870
     3  C   -0.006206   0.392588   0.392707   0.395364   0.003755  -0.000439
     4  C    0.388704   0.010109  -0.005381  -0.002858  -0.001441   0.009739
     5  C    0.006649  -0.003308   0.005663  -0.004044   0.328073  -0.057047
     6  H   -0.000211   0.003617  -0.000414  -0.000190   0.000062  -0.000008
     7  H   -0.000656  -0.000157  -0.000198  -0.000530   0.013937  -0.000999
     8  H    0.004506  -0.000273   0.004334  -0.000137  -0.000087  -0.000010
     9  H   -0.000147  -0.000490  -0.000075   0.003650  -0.036025   0.009852
    10  H   -0.000460   0.005193  -0.000520  -0.000817  -0.028477   0.006176
    11  H   -0.000025  -0.000025  -0.000002   0.000016  -0.038235   0.327395
    12  H   -0.039935  -0.000324  -0.000270   0.004359   0.000148   0.001779
    13  H    0.601176  -0.000407   0.005521  -0.000603  -0.001024   0.001044
    14  H   -0.000407   0.602130  -0.028707  -0.027828   0.000124  -0.000004
    15  H    0.005521  -0.028707   0.596595  -0.029336  -0.000327   0.000033
    16  H   -0.000603  -0.027828  -0.029336   0.601064   0.000256  -0.000276
    17  O   -0.001024   0.000124  -0.000327   0.000256   7.951310   0.039252
    18  O    0.001044  -0.000004   0.000033  -0.000276   0.039252   7.890804
          Atomic-Atomic Spin Densities.
               1          2          3          4          5          6
     1  C    0.007901   0.005772  -0.000001  -0.007170   0.001148  -0.000112
     2  C    0.005772  -0.019168   0.017332  -0.027749   0.003519  -0.000456
     3  C   -0.000001   0.017332   0.079518  -0.037893  -0.004901   0.001522
     4  C   -0.007170  -0.027749  -0.037893   1.030304  -0.005835  -0.000066
     5  C    0.001148   0.003519  -0.004901  -0.005835   0.008764  -0.000422
     6  H   -0.000112  -0.000456   0.001522  -0.000066  -0.000422  -0.000284
     7  H   -0.002521  -0.002348   0.001054   0.005140  -0.000638   0.001034
     8  H   -0.000181   0.000807  -0.000582  -0.000038   0.000036  -0.000235
     9  H   -0.000004   0.000334  -0.000558   0.000243  -0.000251   0.000001
    10  H   -0.000051   0.000830   0.000475  -0.000114   0.000069  -0.000125
    11  H   -0.000189  -0.000529   0.000185   0.007715  -0.000321   0.000017
    12  H    0.000030   0.001526  -0.004183   0.004707   0.000754   0.000002
    13  H   -0.000032   0.001635  -0.004612   0.002969   0.000536  -0.000115
    14  H   -0.000419  -0.003884  -0.008639   0.004352   0.000734  -0.001019
    15  H   -0.000047  -0.000130  -0.002875   0.002259   0.000110  -0.000077
    16  H   -0.000028  -0.000409  -0.002808   0.002219   0.000208  -0.000017
    17  O   -0.000107  -0.000081   0.000299   0.002419  -0.001275   0.000061
    18  O    0.000083   0.000174  -0.000155  -0.008001   0.000752  -0.000012
               7          8          9         10         11         12
     1  C   -0.002521  -0.000181  -0.000004  -0.000051  -0.000189   0.000030
     2  C   -0.002348   0.000807   0.000334   0.000830  -0.000529   0.001526
     3  C    0.001054  -0.000582  -0.000558   0.000475   0.000185  -0.004183
     4  C    0.005140  -0.000038   0.000243  -0.000114   0.007715   0.004707
     5  C   -0.000638   0.000036  -0.000251   0.000069  -0.000321   0.000754
     6  H    0.001034  -0.000235   0.000001  -0.000125   0.000017   0.000002
     7  H    0.001364  -0.000011  -0.000022   0.000047   0.000240  -0.000164
     8  H   -0.000011  -0.000144   0.000003   0.000007  -0.000005   0.000020
     9  H   -0.000022   0.000003  -0.000167   0.000094  -0.000041   0.000207
    10  H    0.000047   0.000007   0.000094  -0.002419   0.000022  -0.000022
    11  H    0.000240  -0.000005  -0.000041   0.000022  -0.001541  -0.000373
    12  H   -0.000164   0.000020   0.000207  -0.000022  -0.000373  -0.023181
    13  H   -0.000441   0.000219   0.000007   0.000026  -0.000184   0.006721
    14  H   -0.000252   0.000139   0.000116  -0.000386  -0.000017   0.000340
    15  H   -0.000074   0.000030   0.000011   0.000007  -0.000006   0.000172
    16  H   -0.000021   0.000010   0.000006   0.000009  -0.000009   0.000244
    17  O    0.000216  -0.000004  -0.000086   0.000093   0.000451  -0.000154
    18  O   -0.000160   0.000002   0.000201  -0.000025  -0.001698   0.000585
              13         14         15         16         17         18
     1  C   -0.000032  -0.000419  -0.000047  -0.000028  -0.000107   0.000083
     2  C    0.001635  -0.003884  -0.000130  -0.000409  -0.000081   0.000174
     3  C   -0.004612  -0.008639  -0.002875  -0.002808   0.000299  -0.000155
     4  C    0.002969   0.004352   0.002259   0.002219   0.002419  -0.008001
     5  C    0.000536   0.000734   0.000110   0.000208  -0.001275   0.000752
     6  H   -0.000115  -0.001019  -0.000077  -0.000017   0.000061  -0.000012
     7  H   -0.000441  -0.000252  -0.000074  -0.000021   0.000216  -0.000160
     8  H    0.000219   0.000139   0.000030   0.000010  -0.000004   0.000002
     9  H    0.000007   0.000116   0.000011   0.000006  -0.000086   0.000201
    10  H    0.000026  -0.000386   0.000007   0.000009   0.000093  -0.000025
    11  H   -0.000184  -0.000017  -0.000006  -0.000009   0.000451  -0.001698
    12  H    0.006721   0.000340   0.000172   0.000244  -0.000154   0.000585
    13  H   -0.020232   0.000386   0.000390   0.000200  -0.000054   0.000084
    14  H    0.000386   0.023879   0.001668   0.001594  -0.000062   0.000015
    15  H    0.000390   0.001668  -0.002471   0.000612  -0.000009   0.000004
    16  H    0.000200   0.001594   0.000612  -0.002718  -0.000027   0.000021
    17  O   -0.000054  -0.000062  -0.000009  -0.000027   0.000799  -0.001256
    18  O    0.000084   0.000015   0.000004   0.000021  -0.001256   0.018795
 Mulliken charges and spin densities:
               1          2
     1  C   -0.272318   0.004072
     2  C    0.095332  -0.022824
     3  C   -0.289819   0.033177
     4  C   -0.267831   0.975459
     5  C    0.021817   0.002986
     6  H    0.081623  -0.000302
     7  H    0.093957   0.002443
     8  H    0.083391   0.000072
     9  H    0.072181   0.000093
    10  H    0.076901  -0.001464
    11  H    0.230211   0.003718
    12  H    0.100570  -0.012769
    13  H    0.090033  -0.012496
    14  H    0.091165   0.018546
    15  H    0.092146  -0.000425
    16  H    0.089900  -0.000915
    17  O   -0.170591   0.001223
    18  O   -0.218668   0.009408
 Sum of Mulliken charges =   0.00000   1.00000
 Mulliken charges and spin densities with hydrogens summed into heavy atoms:
               1          2
     1  C   -0.013347   0.006285
     2  C    0.095332  -0.022824
     3  C   -0.016608   0.050383
     4  C   -0.077228   0.950193
     5  C    0.170899   0.001614
    17  O   -0.170591   0.001223
    18  O    0.011543   0.013126
 APT charges:
               1
     1  C   -1.028929
     2  C    0.163566
     3  C   -1.087178
     4  C   -0.810570
     5  C   -0.657730
     6  H    0.335002
     7  H    0.260299
     8  H    0.414177
     9  H    0.289038
    10  H    0.339308
    11  H    0.436203
    12  H    0.319503
    13  H    0.417001
    14  H    0.351490
    15  H    0.419586
    16  H    0.308236
    17  O    0.026475
    18  O   -0.495476
 Sum of APT charges =   0.00000
 APT charges with hydrogens summed into heavy atoms:
               1
     1  C   -0.019452
     2  C    0.163566
     3  C   -0.007867
     4  C   -0.074067
     5  C   -0.029383
    17  O    0.026475
    18  O   -0.059273
 Electronic spatial extent (au):  <R**2>=            850.9330
 Charge=              0.0000 electrons
 Dipole moment (field-independent basis, Debye):
    X=             -1.7141    Y=             -0.6565    Z=              0.3109  Tot=              1.8616
 Quadrupole moment (field-independent basis, Debye-Ang):
   XX=            -47.7456   YY=            -45.6661   ZZ=            -43.0131
   XY=             -1.0294   XZ=              2.9935   YZ=             -0.6742
 Traceless Quadrupole moment (field-independent basis, Debye-Ang):
   XX=             -2.2707   YY=             -0.1911   ZZ=              2.4618
   XY=             -1.0294   XZ=              2.9935   YZ=             -0.6742
 Octapole moment (field-independent basis, Debye-Ang**2):
  XXX=              9.6847  YYY=             -0.3484  ZZZ=             -2.3878  XYY=              4.9306
  XXY=             -2.4277  XXZ=             10.8973  XZZ=             10.3775  YZZ=              0.9594
  YYZ=             -2.1893  XYZ=             -0.2643
 Hexadecapole moment (field-independent basis, Debye-Ang**3):
 XXXX=           -652.7876 YYYY=           -255.1060 ZZZZ=           -235.1594 XXXY=             -3.8124
 XXXZ=             19.0200 YYYX=             -1.5585 YYYZ=             -0.4000 ZZZX=              4.3188
 ZZZY=             -0.4367 XXYY=           -152.0710 XXZZ=           -130.3161 YYZZ=            -80.4201
 XXYZ=             -7.8083 YYXZ=              3.2936 ZZXY=             -1.8697
 N-N= 3.336305945291D+02 E-N=-1.478452003082D+03  KE= 3.451706093084D+02
  Exact polarizability:       0.000       0.000       0.000       0.000       0.000       0.000
 Approx polarizability:      99.357      -4.042      97.901       2.675      -3.657     100.634
                          Isotropic Fermi Contact Couplings
        Atom                 a.u.       MegaHertz       Gauss      10(-4) cm-1
     1  C(13)              0.00799       8.97847       3.20374       2.99489
     2  C(13)             -0.00774      -8.70108      -3.10476      -2.90237
     3  C(13)              0.05290      59.47038      21.22051      19.83718
     4  C(13)              0.23437     263.47867      94.01574      87.88702
     5  C(13)              0.00317       3.56173       1.27091       1.18806
     6  H(1)               0.00000       0.00073       0.00026       0.00024
     7  H(1)              -0.00027      -1.19341      -0.42584      -0.39808
     8  H(1)              -0.00025      -1.09931      -0.39226      -0.36669
     9  H(1)              -0.00025      -1.10071      -0.39276      -0.36716
    10  H(1)              -0.00029      -1.31799      -0.47029      -0.43964
    11  H(1)              -0.00063      -2.82138      -1.00674      -0.94111
    12  H(1)              -0.00241     -10.79319      -3.85128      -3.60022
    13  H(1)              -0.00208      -9.28849      -3.31436      -3.09831
    14  H(1)               0.00716      32.00609      11.42057      10.67608
    15  H(1)              -0.00031      -1.40484      -0.50128      -0.46860
    16  H(1)              -0.00023      -1.04937      -0.37444      -0.35003
    17  O(17)              0.00037      -0.22147      -0.07903      -0.07387
    18  O(17)              0.00129      -0.78219      -0.27911      -0.26091
 --------------------------------------------------------
       Center         ----  Spin Dipole Couplings  ----
                      3XX-RR        3YY-RR        3ZZ-RR
 --------------------------------------------------------
     1   Atom       -0.003122      0.014140     -0.011017
     2   Atom       -0.004403     -0.010951      0.015354
     3   Atom        0.019956     -0.034746      0.014791
     4   Atom        0.432854     -0.389977     -0.042877
     5   Atom       -0.002591     -0.006597      0.009188
     6   Atom       -0.002607      0.004758     -0.002151
     7   Atom       -0.006854      0.013158     -0.006304
     8   Atom        0.000926      0.004097     -0.005023
     9   Atom       -0.002721     -0.005354      0.008076
    10   Atom       -0.002372     -0.000245      0.002617
    11   Atom        0.012689     -0.009964     -0.002725
    12   Atom       -0.009365      0.033701     -0.024336
    13   Atom        0.033669     -0.053812      0.020142
    14   Atom       -0.002373      0.000739      0.001634
    15   Atom        0.011641     -0.007415     -0.004226
    16   Atom       -0.005230     -0.002031      0.007262
    17   Atom       -0.002234      0.003137     -0.000903
    18   Atom        0.030433     -0.025589     -0.004843
 --------------------------------------------------------
                        XY            XZ            YZ
 --------------------------------------------------------
     1   Atom       -0.013664      0.001165     -0.002124
     2   Atom       -0.011255      0.027757     -0.019312
     3   Atom       -0.001262      0.051167     -0.000155
     4   Atom        0.347752      0.670986      0.246859
     5   Atom        0.004208     -0.010773     -0.010013
     6   Atom       -0.002298      0.001094     -0.002595
     7   Atom       -0.000725      0.001133      0.001443
     8   Atom       -0.007833     -0.001012      0.001603
     9   Atom        0.000579     -0.004889     -0.001233
    10   Atom        0.000929     -0.001043     -0.004512
    11   Atom        0.004384     -0.001981     -0.000766
    12   Atom       -0.024665      0.006387      0.050851
    13   Atom        0.022962     -0.037434     -0.000324
    14   Atom       -0.001169      0.003918     -0.005385
    15   Atom       -0.000760      0.003840     -0.002383
    16   Atom        0.001305      0.007191      0.005573
    17   Atom        0.010034     -0.004884     -0.008186
    18   Atom        0.029209     -0.050873     -0.024651
 --------------------------------------------------------


 ---------------------------------------------------------------------------------
              Anisotropic Spin Dipole Couplings in Principal Axis System
 ---------------------------------------------------------------------------------

       Atom             a.u.   MegaHertz   Gauss  10(-4) cm-1        Axes

              Baa    -0.0112    -1.502    -0.536    -0.501 -0.0275  0.0688  0.9973
     1 C(13)  Bbb    -0.0107    -1.429    -0.510    -0.477  0.8761  0.4821 -0.0091
              Bcc     0.0218     2.932     1.046     0.978 -0.4814  0.8734 -0.0735
 
              Baa    -0.0247    -3.312    -1.182    -1.105  0.6912 -0.3345 -0.6406
     2 C(13)  Bbb    -0.0193    -2.589    -0.924    -0.864  0.4961  0.8641  0.0842
              Bcc     0.0440     5.901     2.106     1.968  0.5254 -0.3760  0.7633
 
              Baa    -0.0352    -4.722    -1.685    -1.575  0.3473  0.8689 -0.3528
     3 C(13)  Bbb    -0.0334    -4.486    -1.601    -1.496 -0.5951  0.4949  0.6331
              Bcc     0.0686     9.208     3.285     3.071  0.7247 -0.0099  0.6890
 
              Baa    -0.5183   -69.547   -24.816   -23.199  0.1302  0.7928 -0.5954
     4 C(13)  Bbb    -0.5163   -69.280   -24.721   -23.109  0.6091 -0.5378 -0.5829
              Bcc     1.0346   138.828    49.537    46.308  0.7823  0.2868  0.5529
 
              Baa    -0.0117    -1.566    -0.559    -0.522  0.2270  0.8270  0.5143
     5 C(13)  Bbb    -0.0083    -1.111    -0.396    -0.371  0.8607 -0.4175  0.2915
              Bcc     0.0199     2.677     0.955     0.893 -0.4558 -0.3765  0.8066
 
              Baa    -0.0035    -1.870    -0.667    -0.624  0.8211  0.0498 -0.5686
     6 H(1)   Bbb    -0.0028    -1.512    -0.540    -0.504  0.5017  0.4119  0.7607
              Bcc     0.0063     3.382     1.207     1.128 -0.2721  0.9099 -0.3132
 
              Baa    -0.0078    -4.187    -1.494    -1.397  0.7719  0.0701 -0.6319
     7 H(1)   Bbb    -0.0054    -2.901    -1.035    -0.968  0.6350 -0.0352  0.7717
              Bcc     0.0133     7.088     2.529     2.364 -0.0319  0.9969  0.0716
 
              Baa    -0.0056    -3.000    -1.070    -1.001  0.6209  0.5863 -0.5203
     8 H(1)   Bbb    -0.0051    -2.724    -0.972    -0.909  0.4700  0.2527  0.8457
              Bcc     0.0107     5.724     2.043     1.909 -0.6273  0.7697  0.1186
 
              Baa    -0.0055    -2.926    -1.044    -0.976 -0.1330  0.9902  0.0420
     9 H(1)   Bbb    -0.0046    -2.452    -0.875    -0.818  0.9239  0.1086  0.3670
              Bcc     0.0101     5.378     1.919     1.794 -0.3589 -0.0877  0.9293
 
              Baa    -0.0036    -1.902    -0.679    -0.635 -0.1343  0.8111  0.5693
    10 H(1)   Bbb    -0.0026    -1.377    -0.491    -0.459  0.9778  0.0151  0.2092
              Bcc     0.0061     3.279     1.170     1.094 -0.1611 -0.5847  0.7951
 
              Baa    -0.0108    -5.764    -2.057    -1.923 -0.1792  0.9826  0.0492
    11 H(1)   Bbb    -0.0030    -1.585    -0.566    -0.529  0.1325 -0.0255  0.9909
              Bcc     0.0138     7.348     2.622     2.451  0.9748  0.1841 -0.1256
 
              Baa    -0.0605   -32.271   -11.515   -10.765 -0.3462 -0.5143  0.7846
    12 H(1)   Bbb    -0.0072    -3.821    -1.364    -1.275  0.9078  0.0273  0.4184
              Bcc     0.0676    36.093    12.879    12.039 -0.2366  0.8572  0.4575
 
              Baa    -0.0606   -32.323   -11.534   -10.782 -0.2821  0.9509 -0.1270
    13 H(1)   Bbb    -0.0070    -3.757    -1.341    -1.253  0.5640  0.2715  0.7799
              Bcc     0.0676    36.080    12.874    12.035  0.7761  0.1484 -0.6129
 
              Baa    -0.0057    -3.029    -1.081    -1.010 -0.6203  0.4349  0.6528
    14 H(1)   Bbb    -0.0023    -1.204    -0.430    -0.402  0.7053  0.6734  0.2216
              Bcc     0.0079     4.234     1.511     1.412  0.3432 -0.5979  0.7244
 
              Baa    -0.0088    -4.674    -1.668    -1.559 -0.0631  0.8604  0.5056
    15 H(1)   Bbb    -0.0038    -2.051    -0.732    -0.684 -0.2309 -0.5055  0.8314
              Bcc     0.0126     6.725     2.400     2.243  0.9709 -0.0643  0.2306
 
              Baa    -0.0088    -4.673    -1.667    -1.559  0.8608  0.2151 -0.4613
    16 H(1)   Bbb    -0.0039    -2.097    -0.748    -0.700 -0.3493  0.9088 -0.2280
              Bcc     0.0127     6.770     2.416     2.258  0.3702  0.3574  0.8575
 
              Baa    -0.0102     0.737     0.263     0.246  0.7119 -0.6685 -0.2151
    17 O(17)  Bbb    -0.0059     0.430     0.153     0.143  0.4773  0.2359  0.8465
              Bcc     0.0161    -1.166    -0.416    -0.389  0.5152  0.7053 -0.4870
 
              Baa    -0.0433     3.131     1.117     1.044  0.3057  0.5644  0.7668
    18 O(17)  Bbb    -0.0371     2.683     0.957     0.895 -0.5716  0.7529 -0.3263
              Bcc     0.0803    -5.814    -2.075    -1.939  0.7615  0.3386 -0.5527
 

 ---------------------------------------------------------------------------------

 No NMR shielding tensors so no spin-rotation constants.
 Leave Link  601 at Tue Apr 12 17:11:35 2022, MaxMem=  1073741824 cpu:               2.8 elap:               0.4
 (Enter /home/saurabh/gaussian/g16/l701.exe)
 ... and contract with generalized density number  0.
 Compute integral second derivatives.
 Leave Link  701 at Tue Apr 12 17:11:35 2022, MaxMem=  1073741824 cpu:               2.1 elap:               0.3
 (Enter /home/saurabh/gaussian/g16/l702.exe)
 L702 exits ... SP integral derivatives will be done elsewhere.
 Leave Link  702 at Tue Apr 12 17:11:35 2022, MaxMem=  1073741824 cpu:               0.1 elap:               0.0
 (Enter /home/saurabh/gaussian/g16/l703.exe)
 Integral derivatives from FoFJK, PRISM(SPDF).
 Compute integral second derivatives, UseDBF=F ICtDFT=           0.
 Calling FoFJK, ICntrl=    100127 FMM=F ISym2X=0 I1Cent= 0 IOpClX= 1 NMat=1 NMatS=1 NMatT=0.
 FoFJK:  IHMeth= 1 ICntrl=  100127 DoSepK=F KAlg= 0 I1Cent=           0 FoldK=F
 IRaf=         0 NMat=       1 IRICut=       1 DoRegI=T DoRafI=F ISym2E= 0 IDoP0=0 IntGTp=1.
[...]
 69,0.0978167,-0.0071503,-0.0203067,-0.0162704,0.0370976,0.0295411,-0.0
 214307,-0.0283425,-0.1402289,0.0110519,-0.0648054,-0.0446819,-0.013359
 3,0.0318843,-0.0389672,0.0051212,-0.0652894,0.09822,-0.0248982,0.07408
 98,0.0115328,0.3518824,0.0131544,0.1143429,0.045965,0.2025528,0.008956
 7,0.120439,0.0068548,0.1737756,0.1022823,0.0329517,0.0344645,0.0423306
 ,-0.0682231,-0.020968,0.0311243,-0.0615519,-0.0013752,0.1206069,0.0039
 822,0.0765798,0.0253287,0.0279441,0.0052643,0.0624418,0.0437583,-0.063
 2144,0.0330629,0.0084696,-0.0318705,0.0402559,-0.0837386,0.1073721,-0.
 0567682,0.084472,-0.0161054,-0.091063,-0.017233,0.0415501,-0.0310845,0
 .0607768,0.0139296,0.1046965,0.0216528,-0.0067633,0.0445422,0.0366713,
 0.0227872,0.0043163,-0.0596777,-0.1169341,-0.0150752,-0.0934067,-0.035
 5812,-0.5477417,-0.0123293,0.0100429,-0.1948557,-0.1278771,-0.0663417,
 -0.0130239,-0.1090046,-0.2482176,-0.4277392,-0.0918542,-0.1147325,0.08
 31474,-0.2544696,0.0341438,-0.1729546,0.0426041,-0.1968194\Polar=74.63
 18803,-3.5458509,69.3432395,2.3908786,-2.9339321,68.7019708\Quadrupole
 =-4.1887582,1.3242769,2.8644813,-0.8226546,1.0707082,-1.1604554\PG=C01
  [X(C5H11O2)]\NImag=0\\0.57133031,0.01521066,0.50066832,0.01223279,-0.
 05850065,0.52680818,-0.07799433,0.00653835,0.00806445,0.39771549,0.010
 23354,-0.13025487,-0.04155921,-0.01369754,0.49232563,0.01029652,-0.042
 84887,-0.11137268,-0.01428063,0.00213868,0.45889772,0.00195932,-0.0024
 6249,-0.00112638,-0.11416437,-0.01278392,-0.02825729,0.47941390,-0.021
 89161,-0.00614164,-0.01927059,0.00343552,-0.07050153,-0.00255695,-0.00
 925514,0.56249786,-0.01971436,-0.00841048,-0.01826277,-0.03273179,-0.0
 1432926,-0.09125065,-0.07374391,-0.00299365,0.51001857,-0.00170443,0.0
 0738424,-0.00261166,-0.05168807,0.02058592,0.00300203,-0.00672466,0.01
 955244,-0.01584807,0.13487079,0.00757597,-0.03499803,0.01040700,0.0265
 9491,-0.16878640,0.04668940,0.01027352,-0.00191707,0.01105301,-0.09836
 230,0.51915695,0.00263703,-0.01586505,0.01073952,0.00037512,0.05434497
 ,-0.11168184,-0.01120244,0.01826983,-0.01907693,-0.13320462,0.01831963
 ,0.57383746,-0.00708988,0.00568299,0.01060332,-0.09307828,0.00077275,0
 .03422532,-0.03417752,-0.00692765,0.00675850,0.00261513,-0.01028113,0.
 00178630,0.40498809,0.02150658,0.00460823,-0.01607028,-0.00885635,-0.0
 8311321,0.00877081,-0.00567653,0.00080519,-0.00098898,-0.01893925,-0.0
 0879954,0.02253416,-0.04149777,0.63379665,0.02199694,-0.00020212,-0.01
 886998,0.04035368,0.00220537,-0.10537647,-0.01577911,-0.00378238,0.010
 01817,0.01220548,0.01247049,-0.01995566,0.00532292,0.01248333,0.500845
 36,-0.05636285,0.04021854,-0.02508966,-0.00228795,0.00403677,-0.002285
 33,0.00006865,-0.00090206,0.00004228,0.00039784,0.00045386,0.00100135,
 0.00023245,0.00111367,-0.00097193,0.05615081,0.03987164,-0.22493351,0.
 11094879,0.00417679,-0.02149611,0.01348077,0.00054367,0.00079855,0.001
 75503,0.00119845,-0.00342583,-0.00444239,-0.00100511,0.00018846,0.0017
 1721,-0.04510448,0.24762971,-0.02526490,0.11331919,-0.11837791,0.00351
 594,-0.01744654,0.00996669,0.00047488,-0.00030514,0.00120674,0.0008894
 1,-0.00275512,-0.00237714,-0.00016696,-0.00040905,0.00120464,0.0273271
 4,-0.12161108,0.12721708,-0.22042691,-0.03257374,-0.12191455,0.0056148
 9,0.00056518,0.00338437,0.00009353,0.00027125,0.00053668,0.00054822,0.
 00007065,-0.00002328,-0.00023118,-0.00073854,-0.00009485,-0.00409916,-
 0.00039376,-0.00200929,0.23809130,-0.03156886,-0.05390756,-0.02150298,
 -0.02117765,-0.00438502,-0.01378646,0.00177304,-0.00408551,-0.00260474
 ,-0.00032413,0.00167990,-0.00047153,-0.00097156,0.00059975,0.00038057,
 0.02275180,0.00497353,0.01498896,0.03477065,0.05714139,-0.11955214,-0.
 02204911,-0.13097988,-0.01549772,-0.00225480,-0.01197968,0.00160244,-0
 .00386849,-0.00240823,0.00019200,0.00129046,0.00042634,-0.00221112,-0.
 00006121,-0.00050583,-0.01350473,-0.00279390,-0.00978878,0.13295965,0.
 02696775,0.14130541,-0.20576096,-0.03790182,0.12040287,-0.00448612,-0.
 00084004,0.00203165,0.00072828,-0.00011006,-0.00066096,0.00030183,-0.0
 0081535,0.00050728,0.00028919,0.00110175,-0.00029724,0.00565655,0.0006
 3302,-0.00453631,-0.01949063,-0.00493259,0.01612730,0.22203935,-0.0392
 6458,-0.05590744,0.03057450,0.02089646,0.00334248,-0.01588397,0.000840
 73,0.00091272,0.00091346,0.00032216,0.00141818,-0.00099110,-0.00041553
 ,-0.00465001,-0.00296551,-0.02187619,-0.00460964,0.01510985,-0.0029088
 5,-0.00185454,0.00292863,0.04194799,0.06009661,0.11970425,0.02916247,-
 0.13753502,0.01624171,0.00390658,-0.01362566,0.00101262,0.00113495,0.0
 0053874,-0.00075455,0.00140941,0.00028435,-0.00103907,-0.00447836,-0.0
 0259895,0.01301418,0.00272758,-0.01022982,-0.01426789,-0.00366840,0.01
 253110,-0.13367506,-0.02985866,0.14920649,-0.00419113,-0.00223647,0.00
 270136,-0.00361748,0.01758399,0.01544816,0.00128221,0.00101113,0.00092
 388,0.00046396,0.00090934,-0.00103514,-0.05355032,0.03767578,0.0317429
 4,0.00009177,-0.00020122,-0.00024908,0.00008693,-0.00009470,0.00001642
 ,-0.00019884,0.00121843,0.00129723,0.06666988,-0.00092448,0.00030006,0
 .00079995,-0.00199932,0.00417674,0.00506186,0.00032477,0.00014190,0.00
 030066,-0.00001608,0.00120164,0.00050231,0.03024915,-0.19227491,-0.122
 31220,-0.00015980,0.00030858,0.00004989,0.00001332,-0.00003699,0.00008
 188,-0.00010233,0.00053347,0.00006472,-0.02847686,0.20515251,0.0029618
 1,0.00220550,-0.00120348,0.00539120,-0.01543888,-0.01357829,-0.0012152
 6,-0.00021687,0.00042796,-0.00033746,-0.00156451,0.00091955,0.03032147
 ,-0.11658245,-0.15158368,0.00005150,-0.00023330,0.00016330,-0.00022329
 ,0.00007571,0.00013405,0.00022698,-0.00104039,-0.00066670,-0.02581898,
 0.13593304,0.16724433,0.00093398,-0.00080617,-0.00063466,0.00097289,-0
 .02051340,0.01257726,0.00151842,-0.00055075,0.00090980,-0.00275638,0.0
 0037331,0.00341742,-0.05012267,0.02728554,-0.01801791,-0.00008876,0.00
 049085,-0.00000450,-0.00001850,0.00017274,0.00010387,0.00008805,-0.000
 03046,-0.00029498,0.00031052,0.00384557,-0.00126896,0.06849250,0.00056
 666,0.00073120,-0.00094169,0.00180174,-0.00616398,0.00254569,0.0005491
 4,-0.00006058,0.00012178,-0.00122407,0.00083722,0.00131560,0.03437531,
 -0.23702031,0.10540714,-0.00012965,0.00061625,0.00017359,-0.00002851,-
 0.00005454,0.00002584,-0.00009826,0.00019839,-0.00008014,0.00278648,-0
 .01741150,0.01147343,-0.03874452,0.25077923,-0.00111873,0.00121462,0.0
 0053785,0.00045085,0.01910953,-0.01129123,-0.00125556,-0.00054688,0.00
 052123,0.00258393,-0.00043459,-0.00179110,-0.01816481,0.10158543,-0.10
 800707,0.00041666,-0.00075929,-0.00005498,-0.00001524,-0.00003695,-0.0
 0010000,-0.00009248,-0.00025449,0.00039733,0.00357168,-0.01633850,0.01
 214869,0.02560059,-0.11835818,0.11816903,-0.00018211,-0.00003168,0.000
 47773,-0.00092586,0.00051979,0.00098554,-0.00034615,-0.00079596,-0.000
 28900,0.00413972,0.00150990,0.00084485,0.00516687,0.00385689,-0.003680
 54,0.00015906,-0.00027718,-0.00000161,0.00005002,0.00019011,-0.0000511
 1,-0.00004820,0.00006227,0.00003347,-0.00031934,-0.00022656,-0.0001215
 2,-0.00173228,-0.00028333,-0.00024984,0.12631207,0.00034988,-0.0000238
 5,0.00059656,0.00085474,0.00101672,0.00003589,-0.00014735,-0.00026973,
 -0.00003856,0.00086777,-0.00034061,0.00030482,0.00010853,-0.00054860,0
 .00166331,-0.00010666,-0.00009269,-0.00010485,0.00006565,-0.00036120,-
 0.00033798,-0.00018870,0.00002338,-0.00006097,0.00028888,-0.00041766,-
 0.00018055,0.00049267,0.00023816,0.00024054,0.02298828,0.07381892,0.00
 023944,0.00013290,0.00021238,-0.00031411,0.00071250,-0.00057324,0.0000
 6209,-0.00019132,0.00001967,-0.00278193,-0.00011172,-0.00031462,-0.002
 04835,0.00107721,-0.00225495,-0.00008232,-0.00005290,-0.00010063,-0.00
 011322,-0.00016133,-0.00000202,0.00003649,-0.00004570,-0.00006667,0.00
 040280,0.00024543,-0.00019060,-0.00000496,-0.00008032,0.00008927,-0.18
 823171,-0.09845579,0.35087494,0.00067779,0.00044693,-0.00113455,0.0000
 8102,0.00293474,0.00385736,0.00089555,-0.00063660,0.00090032,-0.032249
 87,0.06094646,0.03929424,0.00143068,-0.00018110,-0.00127960,0.00027937
 ,0.00021536,0.00022092,0.00005364,0.00002132,0.00011933,0.00011404,-0.
 00009874,-0.00017745,0.00009978,0.00004815,0.00008867,-0.00013544,0.00
 015157,-0.00001926,-0.00122174,-0.00075706,0.00023320,0.02906924,0.000
 74777,-0.00313725,0.00439745,0.00390299,-0.01429943,-0.01553915,-0.000
 49616,0.00030176,-0.00076567,0.06640611,-0.25373926,-0.11309800,0.0012
 4300,0.00069568,-0.00140706,0.00027960,-0.00128753,-0.00100521,-0.0001
 0508,0.00013352,-0.00001995,0.00012419,0.00025771,-0.00003849,-0.00061
 086,0.00006586,0.00078668,0.00000247,0.00020590,0.00017127,-0.00056410
 ,-0.00054690,-0.00068404,-0.06991626,0.26545155,-0.00012839,0.00207078
 ,-0.00153943,-0.00411302,0.01266780,0.00972212,0.00060755,0.00016673,0
 .00094881,0.04404038,-0.11510655,-0.12257680,0.00011271,0.00001767,0.0
 0143169,-0.00021648,0.00070678,0.00082156,0.00015518,0.00012033,0.0000
 1328,-0.00036264,0.00015506,0.00012909,0.00003931,-0.00026471,-0.00018
 246,-0.00018401,-0.00016375,-0.00001018,-0.00035837,-0.00056920,-0.000
 19649,-0.04502539,0.12218452,0.11955617,0.00033951,0.00015424,-0.00007
 316,0.00646987,0.00212745,-0.00542282,-0.00079073,-0.00118784,0.000456
 11,-0.04221034,0.00306240,0.09824999,-0.00139738,0.00045782,0.00078943
 ,-0.00005542,-0.00006802,-0.00016681,-0.00020660,-0.00019750,-0.000060
 82,-0.00007824,-0.00001018,0.00005702,0.00013020,-0.00007897,-0.000196
 24,0.00020594,-0.00025552,-0.00011779,-0.00056606,-0.00006340,0.000645
 57,0.00186017,-0.00156584,0.00509202,0.03672013,-0.00098991,0.00167767
 ,0.00125904,-0.00782736,0.00173756,0.02065233,-0.00071379,-0.00156052,
 0.00044381,0.00318271,-0.05372652,0.01956735,0.00218089,-0.00336794,0.
 00212312,0.00002108,0.00030497,-0.00030072,-0.00032153,-0.00023716,-0.
 00017739,0.00061177,-0.00018420,-0.00017930,-0.00007244,-0.00001289,0.
 00020920,-0.00109937,-0.00032685,0.00085459,-0.00027427,-0.00002549,-0
 .00010549,0.00714901,0.00494015,-0.02209216,-0.00270215,0.05010432,0.0
 0015593,-0.00155752,0.00070610,0.00747573,-0.00229652,-0.00799687,0.00
 029735,0.00003407,-0.00010338,0.09052082,0.01980866,-0.31038949,-0.002
 84013,0.00163792,-0.00050434,-0.00017288,-0.00012245,0.00019166,0.0000
 2170,0.00034329,0.00013834,-0.00047194,0.00047182,0.00058715,-0.000098
 16,-0.00013988,0.00015166,0.00062697,0.00022945,-0.00029043,0.00002157
 ,-0.00009603,-0.00024376,0.00363944,0.00369971,-0.00763912,-0.09912811
 ,-0.02238103,0.32490734,0.00078233,0.00079691,0.00105020,-0.00622006,0
 .02134252,-0.01423643,-0.05046157,0.02807894,-0.01684554,-0.00263898,-
 0.00091547,-0.00306518,0.00070673,0.00150408,-0.00086160,0.00031424,-0
 .00059450,-0.00004443,-0.00003569,0.00001583,0.00036037,-0.00000951,-0
 .00014697,0.00002676,-0.00008997,0.00002616,0.00008948,-0.00055401,-0.
 00060823,0.00033051,0.00038992,0.00006037,0.00003758,0.00009230,-0.000
 01174,0.00010357,0.00002774,0.00055578,-0.00020958,0.05428690,-0.00026
 631,0.00073025,-0.00047753,-0.00114189,0.00196946,-0.00291864,0.028326
 88,-0.22549472,0.11289910,0.00084897,0.00043465,0.00087231,-0.00077590
 ,-0.00023478,0.00013105,-0.00014611,0.00033997,0.00008495,0.00007019,0
 .00024481,0.00005006,0.00003568,-0.00005380,-0.00005076,0.00003629,-0.
 00006955,0.00009332,0.00029038,0.00040582,-0.00025183,-0.00013864,-0.0
 0005477,0.00002035,-0.00024363,0.00016362,-0.00011675,0.00020155,0.000
 06729,0.00016493,-0.03049221,0.24487721,0.00062362,0.00136747,0.000570
 41,-0.00400621,0.01563472,-0.01123152,-0.01650507,0.11291924,-0.118474
 13,-0.00356662,-0.00069655,-0.00219997,0.00163662,0.00035959,0.0001280
 8,-0.00010143,-0.00095931,-0.00007861,0.00011917,-0.00026926,0.0004175
 0,-0.00006375,-0.00002401,-0.00009307,-0.00003654,-0.00011044,0.000053
 17,-0.00032621,-0.00032533,0.00075822,0.00034710,0.00012169,0.00002919
 ,0.00017708,0.00024779,0.00001132,0.00026334,0.00037152,0.00005512,0.0
 2190277,-0.12559652,0.12726068,0.00104715,0.00065658,0.00132722,-0.022
 57907,-0.00335356,0.01220836,-0.22213001,-0.03679611,0.11917597,0.0015
 3438,-0.00100642,0.00139441,-0.00160822,0.00049942,-0.00480314,-0.0000
 1489,-0.00008374,-0.00011286,0.00030515,0.00027273,-0.00012988,0.00046
 231,-0.00041955,-0.00079602,0.00026113,0.00016137,-0.00006930,0.000227
 19,-0.00016609,-0.00005026,-0.00001994,-0.00002983,0.00007035,-0.00019
 478,0.00003563,-0.00010533,-0.00038208,0.00020659,-0.00042854,0.004477
 21,0.00044805,-0.00276205,0.24358147,-0.00045143,0.00008041,0.00072841
 ,-0.00236418,-0.00194493,0.00152809,-0.03677155,-0.05416883,0.02477933
 ,0.00063603,-0.00007348,-0.00043673,-0.00010822,-0.00052587,-0.0006911
 4,-0.00012241,-0.00008371,0.00008441,0.00024494,-0.00001786,-0.0000242
 9,-0.00002491,0.00010033,-0.00040035,-0.00018723,0.00012300,0.00035010
 ,0.00023339,0.00027413,-0.00034407,0.00002637,-0.00000101,0.00002350,0
 .00012776,-0.00000789,-0.00006000,0.00003073,0.00021141,0.00001057,-0.
 02296387,-0.00419818,0.01462441,0.04065280,0.05466393,-0.00028031,0.00
 047467,0.00142908,-0.01801183,-0.00338346,0.00977362,0.11998416,0.0246
 1253,-0.12488883,-0.00015692,-0.00074023,0.00138201,-0.00114673,0.0001
 0573,-0.00299804,0.00009188,-0.00007592,-0.00009970,0.00008341,0.00021
 426,0.00014636,0.00021054,0.00008201,-0.00009513,-0.00021546,0.0002275
 3,0.00012069,-0.00009970,-0.00027333,-0.00001369,0.00002031,-0.0000083
 3,0.00000334,-0.00001439,0.00003500,-0.00010064,-0.00003856,-0.0000771
 8,-0.00009195,0.01334883,0.00188170,-0.00934671,-0.12760819,-0.0267881
 4,0.13516402,-0.00435903,-0.00007054,-0.00251941,0.00329846,-0.0196157
 2,-0.01545202,-0.05182121,0.02796624,0.02275662,0.00078697,-0.00125781
 ,0.00068787,0.00105420,-0.00116213,-0.00127374,-0.00012142,0.00005239,
 0.00018536,0.00035942,-0.00117962,-0.00123222,0.00011452,0.00007997,-0
 .00027049,-0.00043189,0.00026186,0.00030002,-0.00008047,-0.00001766,0.
 00006771,-0.00002849,-0.00003620,-0.00005760,-0.00001218,0.00036289,-0
 .00002226,-0.00004583,0.00009092,0.00004043,-0.00136681,0.00248154,0.0
 0254039,-0.00295511,0.02145663,0.01591315,0.05522280,-0.00137813,0.000
 57855,-0.00028862,-0.00042056,-0.00326444,-0.00109553,0.02740758,-0.20
 083511,-0.12473131,-0.00008117,0.00069296,0.00120596,0.00088349,-0.000
 36534,-0.00064151,0.00006628,0.00049782,0.00012855,0.00022462,0.000102
 11,-0.00048692,0.00016397,-0.00000246,-0.00001523,-0.00055425,0.000336
 11,0.00039059,0.00001355,-0.00003791,-0.00013112,0.00008447,-0.0000081
 9,-0.00002387,-0.00002941,0.00033094,-0.00018469,0.00016407,0.00007532
 ,0.00005250,0.00374612,-0.01961100,-0.01713945,-0.00019303,0.00482841,
 0.00434504,-0.02987731,0.21635999,-0.00431504,0.00053165,-0.00208386,0
 .00265387,-0.01361041,-0.01317904,0.02233384,-0.12397970,-0.14805023,0
 .00098607,-0.00133778,0.00077524,0.00145434,0.00019158,0.00010958,0.00
 008867,-0.00013508,0.00021688,0.00020282,-0.00132149,-0.00061956,-0.00
 001764,0.00026646,0.00037249,-0.00037009,0.00011309,0.00071562,-0.0000
 7600,0.00007691,0.00002894,-0.00005091,-0.00007635,-0.00006517,-0.0003
 4720,0.00064280,-0.00009257,-0.00009439,0.00012646,0.00010883,-0.00234
 889,0.01339035,0.01217066,0.00203051,-0.01346042,-0.01105216,-0.022057
 41,0.13817139,0.16049965,0.00130275,-0.00107908,-0.00120490,-0.0386568
 2,-0.00968018,-0.01803142,-0.00582856,-0.00219340,0.00784094,0.0006881
 8,0.00359438,-0.00269106,-0.15409811,-0.05767267,-0.05231163,-0.000386
 81,0.00046216,-0.00013159,-0.00061599,0.00030931,0.00047596,0.00015380
 ,-0.00009996,-0.00017932,-0.00995691,-0.00328241,-0.01314694,-0.012739
 28,0.00226062,-0.01125061,0.00260590,-0.00884991,0.00039378,-0.0004850
 5,-0.00063528,0.00000549,0.00022840,-0.00032384,0.00039765,0.00051312,
 0.00050215,-0.00010653,-0.00223873,-0.00013251,-0.00224172,0.00035496,
 -0.00016183,-0.00016821,0.28785834,0.00055143,-0.00003961,-0.00075819,
 -0.00987986,-0.00136005,-0.00434031,-0.00187680,-0.00059167,0.00200261
 ,0.00136800,0.00152740,-0.00160474,-0.02079491,-0.10176967,-0.01685404
 ,-0.00011353,0.00005464,0.00002879,0.00072309,0.00028927,0.00050825,0.
 00021753,0.00028337,0.00042647,-0.02699513,-0.00614092,-0.01509566,0.0
 2640009,0.00315263,0.01576914,0.01322362,-0.02744805,0.00241525,-0.000
 56494,-0.00027504,-0.00002943,0.00008918,0.00005372,0.00009746,-0.0000
 8534,0.00037130,-0.00033895,-0.00085180,0.00061186,-0.00045728,0.00041
 414,0.00034583,0.00035906,-0.01250882,0.32109018,-0.00002735,-0.000962
 57,-0.00055855,0.00341427,0.00181490,0.01281387,0.00254968,0.00050431,
 -0.00095423,-0.00019206,-0.00006521,0.00111912,-0.05645338,-0.03979710
 ,-0.08930144,0.00030148,-0.00000983,0.00017376,0.00103944,0.00074268,0
 .00110373,0.00064134,0.00048762,0.00063788,-0.03030458,-0.00684127,-0.
 01704295,-0.01463189,-0.00025839,-0.00912346,-0.02260026,0.03491529,-0
 .00007185,0.00027296,0.00026458,-0.00021593,-0.00012353,-0.00014590,0.
 00019620,0.00007473,-0.00004920,-0.00016884,0.00071030,0.00013448,0.00
 058217,0.00037291,0.00043186,0.00014824,0.11843743,-0.02145360,0.14909
 560,-0.00030153,0.00007256,-0.00055101,0.00154578,-0.00021830,-0.00005
 064,0.00048492,0.00093164,-0.00046747,-0.00637430,-0.00272622,0.001025
 86,-0.02112979,0.03972281,-0.01304009,0.00006654,0.00008367,0.00007470
 ,-0.00007845,0.00016908,0.00028240,0.00012460,-0.00009700,0.00006760,0
 .00295950,0.00033647,0.00296681,-0.00452170,-0.00093567,-0.00068735,-0
 .13343339,-0.01589765,0.19151291,-0.00035452,0.00080068,0.00035969,-0.
 00024927,0.00032590,0.00015176,-0.00021387,-0.00003700,-0.00013568,0.0
 0022682,-0.00028233,0.00016154,0.00003112,-0.00005848,0.00009567,-0.06
 869921,0.03068404,-0.00348150,0.22991675,0.00012117,-0.00003092,-0.000
 34197,-0.00083680,0.00100139,-0.00193362,0.00014438,0.00016893,0.00059
 387,-0.00340581,-0.00114216,-0.00032740,0.00728168,-0.00802378,0.01027
 439,-0.00028073,0.00021654,-0.00003047,0.00005045,-0.00022391,0.000221
 17,0.00017817,0.00009544,-0.00000153,-0.00208113,0.00402455,-0.0011649
 7,0.00214411,0.00363674,-0.00148922,-0.03986999,-0.04495844,0.09528536
 ,0.00038644,0.00074660,0.00049757,-0.00015802,0.00026915,0.00004303,-0
 .00030838,0.00011241,-0.00018661,-0.00003305,0.00012827,-0.00017460,0.
 00005043,-0.00002360,0.00005148,0.08949126,-0.19015519,0.03028735,-0.0
 5287420,0.23415798,-0.00044711,-0.00008287,-0.00021995,0.00101849,-0.0
 0221597,0.00196314,0.00016041,0.00007033,-0.00023051,0.00503375,0.0013
 6420,0.00087995,-0.00815094,0.02962399,-0.01178110,0.00008962,-0.00014
 071,-0.00005475,0.00015920,-0.00001043,0.00016786,-0.00000643,0.000074
 42,0.00022639,0.00198425,0.00262665,0.00236914,-0.00769212,-0.00088831
 ,-0.00196841,0.21290428,0.06205051,-0.34714879,-0.00080568,0.00012778,
 -0.00008040,-0.00013125,-0.00014823,0.00021694,0.00028686,-0.00012689,
 0.00013848,-0.00005155,-0.00005816,0.00008557,0.00002072,0.00001235,-0
 .00000356,-0.02608732,0.03932517,-0.04843330,-0.17828520,-0.13160383,0
 .40387333\\0.00000310,0.00000096,0.00000094,0.00000343,-0.00000126,0.0
 0000853,-0.00000013,-0.00000091,-0.00000309,-0.00000534,-0.00000277,0.
 00000020,0.00001411,-0.00001538,0.00000432,0.00000166,0.00000018,0.000
 00121,0.00000046,-0.00000110,0.00000073,0.00000100,0.00000082,0.000000
 47,0.00000234,-0.00000274,0.,-0.00000069,0.00000242,0.00000332,-0.0000
 0705,0.00000745,-0.00000261,-0.00000019,-0.00000082,-0.00000180,-0.000
 00252,0.00000057,-0.00000051,-0.00000079,0.00000189,0.00000124,-0.0000
 0009,0.00000188,-0.00000019,-0.00000139,0.00000224,-0.00000059,0.00002
 096,-0.00002480,0.00001614,-0.00002887,0.00003137,-0.00002830\\\@
 The archive entry for this job was punched.


 CHARLIE BROWN -- WHICH DO YOU THINK LASTS LONGER IN LIFE, THE GOOD THINGS 
                  OR THE BAD THINGS?
 LINUS --         GOOD THINGS LAST EIGHT SECONDS ..
                  BAD THINGS LAST THREE WEEKS
 CHARLIE BROWN -- WHAT ABOUT IN BETWEEN?
 SNOOPY --        IN BETWEEN YOU SHOULD TAKE A NAP ...
 Job cpu time:       0 days  1 hours 58 minutes 48.3 seconds.
 Elapsed time:       0 days  0 hours 14 minutes 51.5 seconds.
 File lengths (MBytes):  RWF=    345 Int=      0 D2E=      0 Chk=     16 Scr=      1
 Normal termination of Gaussian 16 at Tue Apr 12 17:46:57 2022.
