 Entering Gaussian System, Link 0=g16
 Input=Mol_01.com
 Output=Mol_01.log
 Initial command:
 /home/saurabh/gaussian/g16/l1.exe "/home/saurabh/gaussian/gauss_scr/Gau-22867.inp" -scrdir="/home/saurabh/gaussian/gauss_scr/"
 Entering Link 1 = /home/saurabh/gaussian/g16/l1.exe PID=     22868.
  
 Copyright (c) 1988-2019, Gaussian, Inc.  All Rights Reserved.
  
 This is part of the Gaussian(R) 16 program.  It is based on
 the Gaussian(R) 09 system (copyright 2009, Gaussian, Inc.),
 the Gaussian(R) 03 system (copyright 2003, Gaussian, Inc.),
 the Gaussian(R) 98 system (copyright 1998, Gaussian, Inc.),
 the Gaussian(R) 94 system (copyright 1995, Gaussian, Inc.),
 the Gaussian 92(TM) system (copyright 1992, Gaussian, Inc.),
 the Gaussian 90(TM) system (copyright 1990, Gaussian, Inc.),
 the Gaussian 88(TM) system (copyright 1988, Gaussian, Inc.),
 the Gaussian 86(TM) system (copyright 1986, Carnegie Mellon
 University), and the Gaussian 82(TM) system (copyright 1983,
 Carnegie Mellon University). Gaussian is a federally registered
 trademark of Gaussian, Inc.
  
 This software contains proprietary and confidential information,
 including trade secrets, belonging to Gaussian, Inc.
  
 This software is provided under written license and may be
 used, copied, transmitted, or stored only in accord with that
 written license.
  
 The following legend is applicable only to US Government
 contracts under FAR:
  
                    RESTRICTED RIGHTS LEGEND
  
 Use, reproduction and disclosure by the US Government is
 subject to restrictions as set forth in subparagraphs (a)
 and (c) of the Commercial Computer Software - Restricted
 Rights clause in FAR 52.227-19.
  
 Gaussian, Inc.
 340 Quinnipiac St., Bldg. 40, Wallingford CT 06492
  
  
 ---------------------------------------------------------------
 Warning -- This program may not be used in any manner that
 competes with the business of Gaussian, Inc. or will provide
 assistance to any competitor of Gaussian, Inc.  The licensee
 of this program is prohibited from giving any competitor of
 Gaussian, Inc. access to this program.  By using this program,
 the user acknowledges that Gaussian, Inc. is engaged in the
 business of creating and licensing software in the field of
 computational chemistry and represents and warrants to the
 licensee that it is not a competitor of Gaussian, Inc. and that
 it will not use this program in any manner prohibited above.
 ---------------------------------------------------------------
  

 Cite this work as:
 Gaussian 16, Revision C.01,
 M. J. Frisch, G. W. Trucks, H. B. Schlegel, G. E. Scuseria, 
 M. A. Robb, J. R. Cheeseman, G. Scalmani, V. Barone, 
 G. A. Petersson, H. Nakatsuji, X. Li, M. Caricato, A. V. Marenich, 
 J. Bloino, B. G. Janesko, R. Gomperts, B. Mennucci, H. P. Hratchian, 
 J. V. Ortiz, A. F. Izmaylov, J. L. Sonnenberg, D. Williams-Young, 
 F. Ding, F. Lipparini, F. Egidi, J. Goings, B. Peng, A. Petrone, 
 T. Henderson, D. Ranasinghe, V. G. Zakrzewski, J. Gao, N. Rega, 
 G. Zheng, W. Liang, M. Hada, M. Ehara, K. Toyota, R. Fukuda, 
 J. Hasegawa, M. Ishida, T. Nakajima, Y. Honda, O. Kitao, H. Nakai, 
 T. Vreven, K. Throssell, J. A. Montgomery, Jr., J. E. Peralta, 
 F. Ogliaro, M. J. Bearpark, J. J. Heyd, E. N. Brothers, K. N. Kudin, 
 V. N. Staroverov, T. A. Keith, R. Kobayashi, J. Normand, 
 K. Raghavachari, A. P. Rendell, J. C. Burant, S. S. Iyengar, 
 J. Tomasi, M. Cossi, J. M. Millam, M. Klene, C. Adamo, R. Cammi, 
 J. W. Ochterski, R. L. Martin, K. Morokuma, O. Farkas, 
 J. B. Foresman, and D. J. Fox, Gaussian, Inc., Wallingford CT, 2019.
 
 ******************************************
 Gaussian 16:  ES64L-G16RevC.01  3-Jul-2019
                12-Apr-2022 
 ******************************************
 %mem=8gb
 %nproc=8
 Will use up to    8 processors via shared memory.
 %chk=Mol_01.chk
 ----------------------------------------------------------------------
 #p B3LYP/cc-PVTZ scf(verytight, maxcycles=1000) opt(calcfc, maxcyc=100
 0) freq(hpmodes) int(grid=ultrafine)
 ----------------------------------------------------------------------
 1/6=1000,10=4,18=20,19=15,26=4,38=1/1,3;
 2/9=110,12=2,17=6,18=5,40=1/2;
 3/5=16,6=1,11=2,25=1,30=1,71=2,74=-5,75=-5,140=1/1,2,3;
 4//1;
 5/5=2,7=1000,17=3,38=5/2;
 8/6=4,10=90,11=11/1;
 11/6=1,8=1,9=11,15=111,16=1/1,2,10;
 10/6=1,13=1/2;
 6/7=2,8=2,9=2,10=2,28=1/1;
 7/10=1,25=1/1,2,3,16;
 1/6=1000,10=4,18=20,19=15,26=4/3(2);
 2/9=110/2;
 99//99;
 2/9=110/2;
 3/5=16,6=1,11=2,25=1,30=1,71=1,74=-5,75=-5/1,2,3;
 4/5=5,16=3,69=1/1;
 5/5=2,7=1000,17=3,38=5/2;
 7//1,2,3,16;
 1/6=1000,18=20,19=15,26=4/3(-5);
 2/9=110/2;
 6/7=2,8=2,9=2,10=2,19=2,28=1/1;
 99/9=1/99;
 Leave Link    1 at Tue Apr 12 15:57:48 2022, MaxMem=  1073741824 cpu:               0.5 elap:               0.1
 (Enter /home/saurabh/gaussian/g16/l101.exe)
 ------
 Mol_01
 ------
 Symbolic Z-matrix:
 Charge =  0 Multiplicity = 2
 C                    -3.97682   2.21151   0.79323 
 C                    -3.58831   1.06621  -0.15936 
 C                    -4.8501    0.50355  -0.83613 
 C                    -2.88844  -0.05211   0.632 
 C                    -2.63185   1.59195  -1.23836 
 H                    -4.48176   3.03033   0.23637 
 H                    -3.07519   2.6319    1.28906 
 H                    -4.67021   1.8469    1.58172 
 H                    -3.10936   2.39123  -1.84554 
 H                    -1.69705   1.99117  -0.78856 
 H                    -1.97028   0.33215   1.12699 
 H                    -2.5969   -0.88551  -0.04346 
 H                    -3.56268  -0.45789   1.41706 
 H                    -5.37037   1.29527  -1.41768 
 H                    -5.55879   0.10754  -0.07686 
 H                    -4.58549  -0.32222  -1.53175 
 
 ITRead=  0  0  0  0  0  0  0  0  0  0  0  0  0  0  0  0
 MicOpt= -1 -1 -1 -1 -1 -1 -1 -1 -1 -1 -1 -1 -1 -1 -1 -1
 NAtoms=     16 NQM=       16 NQMF=       0 NMMI=      0 NMMIF=      0
                NMic=       0 NMicF=      0.
                    Isotopes and Nuclear Properties:
 (Nuclear quadrupole moments (NQMom) in fm**2, nuclear magnetic moments (NMagM)
  in nuclear magnetons)

  Atom         1           2           3           4           5           6           7           8           9          10
 IAtWgt=          12          12          12          12          12           1           1           1           1           1
 AtmWgt=  12.0000000  12.0000000  12.0000000  12.0000000  12.0000000   1.0078250   1.0078250   1.0078250   1.0078250   1.0078250
 NucSpn=           0           0           0           0           0           1           1           1           1           1
 AtZEff=  -0.0000000  -0.0000000  -0.0000000  -0.0000000  -0.0000000  -0.0000000  -0.0000000  -0.0000000  -0.0000000  -0.0000000
 NQMom=    0.0000000   0.0000000   0.0000000   0.0000000   0.0000000   0.0000000   0.0000000   0.0000000   0.0000000   0.0000000
 NMagM=    0.0000000   0.0000000   0.0000000   0.0000000   0.0000000   2.7928460   2.7928460   2.7928460   2.7928460   2.7928460
 AtZNuc=   6.0000000   6.0000000   6.0000000   6.0000000   6.0000000   1.0000000   1.0000000   1.0000000   1.0000000   1.0000000

  Atom        11          12          13          14          15          16
 IAtWgt=           1           1           1           1           1           1
 AtmWgt=   1.0078250   1.0078250   1.0078250   1.0078250   1.0078250   1.0078250
 NucSpn=           1           1           1           1           1           1
 AtZEff=  -0.0000000  -0.0000000  -0.0000000  -0.0000000  -0.0000000  -0.0000000
 NQMom=    0.0000000   0.0000000   0.0000000   0.0000000   0.0000000   0.0000000
 NMagM=    2.7928460   2.7928460   2.7928460   2.7928460   2.7928460   2.7928460
 AtZNuc=   1.0000000   1.0000000   1.0000000   1.0000000   1.0000000   1.0000000
 Leave Link  101 at Tue Apr 12 15:57:48 2022, MaxMem=  1073741824 cpu:               1.8 elap:               0.3
 (Enter /home/saurabh/gaussian/g16/l103.exe)

 GradGradGradGradGradGradGradGradGradGradGradGradGradGradGradGradGradGrad
 Berny optimization.
 Initialization pass.
                           ----------------------------
                           !    Initial Parameters    !
                           ! (Angstroms and Degrees)  !
 --------------------------                            --------------------------
 ! Name  Definition              Value          Derivative Info.                !
 --------------------------------------------------------------------------------
 ! R1    R(1,2)                  1.5395         calculate D2E/DX2 analytically  !
 ! R2    R(1,6)                  1.1115         calculate D2E/DX2 analytically  !
 ! R3    R(1,7)                  1.1115         calculate D2E/DX2 analytically  !
 ! R4    R(1,8)                  1.1115         calculate D2E/DX2 analytically  !
 ! R5    R(2,3)                  1.5384         calculate D2E/DX2 analytically  !
 ! R6    R(2,4)                  1.5384         calculate D2E/DX2 analytically  !
 ! R7    R(2,5)                  1.5347         calculate D2E/DX2 analytically  !
 ! R8    R(3,14)                 1.1116         calculate D2E/DX2 analytically  !
 ! R9    R(3,15)                 1.1116         calculate D2E/DX2 analytically  !
 ! R10   R(3,16)                 1.1117         calculate D2E/DX2 analytically  !
 ! R11   R(4,11)                 1.1116         calculate D2E/DX2 analytically  !
 ! R12   R(4,12)                 1.1117         calculate D2E/DX2 analytically  !
 ! R13   R(4,13)                 1.1116         calculate D2E/DX2 analytically  !
 ! R14   R(5,9)                  1.1115         calculate D2E/DX2 analytically  !
 ! R15   R(5,10)                 1.1115         calculate D2E/DX2 analytically  !
 ! A1    A(2,1,6)              110.6509         calculate D2E/DX2 analytically  !
 ! A2    A(2,1,7)              110.6509         calculate D2E/DX2 analytically  !
 ! A3    A(2,1,8)              110.6303         calculate D2E/DX2 analytically  !
 ! A4    A(6,1,7)              108.2619         calculate D2E/DX2 analytically  !
 ! A5    A(6,1,8)              108.2791         calculate D2E/DX2 analytically  !
 ! A6    A(7,1,8)              108.2791         calculate D2E/DX2 analytically  !
 ! A7    A(1,2,3)              109.7127         calculate D2E/DX2 analytically  !
 ! A8    A(1,2,4)              109.7127         calculate D2E/DX2 analytically  !
 ! A9    A(1,2,5)              109.7215         calculate D2E/DX2 analytically  !
 ! A10   A(3,2,4)              109.4844         calculate D2E/DX2 analytically  !
 ! A11   A(3,2,5)              109.0962         calculate D2E/DX2 analytically  !
 ! A12   A(4,2,5)              109.0962         calculate D2E/DX2 analytically  !
 ! A13   A(2,3,14)             110.7031         calculate D2E/DX2 analytically  !
 ! A14   A(2,3,15)             110.6546         calculate D2E/DX2 analytically  !
 ! A15   A(2,3,16)             110.5924         calculate D2E/DX2 analytically  !
 ! A16   A(14,3,15)            108.2223         calculate D2E/DX2 analytically  !
 ! A17   A(14,3,16)            108.2458         calculate D2E/DX2 analytically  !
 ! A18   A(15,3,16)            108.3334         calculate D2E/DX2 analytically  !
 ! A19   A(2,4,11)             110.7031         calculate D2E/DX2 analytically  !
 ! A20   A(2,4,12)             110.5924         calculate D2E/DX2 analytically  !
 ! A21   A(2,4,13)             110.6546         calculate D2E/DX2 analytically  !
 ! A22   A(11,4,12)            108.2458         calculate D2E/DX2 analytically  !
 ! A23   A(11,4,13)            108.2223         calculate D2E/DX2 analytically  !
 ! A24   A(12,4,13)            108.3334         calculate D2E/DX2 analytically  !
 ! A25   A(2,5,9)              111.2623         calculate D2E/DX2 analytically  !
 ! A26   A(2,5,10)             111.2623         calculate D2E/DX2 analytically  !
 ! A27   A(9,5,10)             108.9095         calculate D2E/DX2 analytically  !
 ! D1    D(6,1,2,3)            -59.8451         calculate D2E/DX2 analytically  !
 ! D2    D(6,1,2,4)            179.8401         calculate D2E/DX2 analytically  !
 ! D3    D(6,1,2,5)             59.9975         calculate D2E/DX2 analytically  !
 ! D4    D(7,1,2,3)           -179.8397         calculate D2E/DX2 analytically  !
 ! D5    D(7,1,2,4)             59.8455         calculate D2E/DX2 analytically  !
 ! D6    D(7,1,2,5)            -59.9971         calculate D2E/DX2 analytically  !
 ! D7    D(8,1,2,3)             60.1576         calculate D2E/DX2 analytically  !
 ! D8    D(8,1,2,4)            -60.1572         calculate D2E/DX2 analytically  !
 ! D9    D(8,1,2,5)           -179.9998         calculate D2E/DX2 analytically  !
 ! D10   D(1,2,3,14)            59.7598         calculate D2E/DX2 analytically  !
 ! D11   D(1,2,3,15)           -60.2216         calculate D2E/DX2 analytically  !
 ! D12   D(1,2,3,16)           179.7301         calculate D2E/DX2 analytically  !
 ! D13   D(4,2,3,14)          -179.7866         calculate D2E/DX2 analytically  !
 ! D14   D(4,2,3,15)            60.2319         calculate D2E/DX2 analytically  !
 ! D15   D(4,2,3,16)           -59.8163         calculate D2E/DX2 analytically  !
 ! D16   D(5,2,3,14)           -60.4638         calculate D2E/DX2 analytically  !
 ! D17   D(5,2,3,15)           179.5547         calculate D2E/DX2 analytically  !
 ! D18   D(5,2,3,16)            59.5065         calculate D2E/DX2 analytically  !
 ! D19   D(1,2,4,11)           -59.7599         calculate D2E/DX2 analytically  !
 ! D20   D(1,2,4,12)          -179.7302         calculate D2E/DX2 analytically  !
 ! D21   D(1,2,4,13)            60.2216         calculate D2E/DX2 analytically  !
 ! D22   D(3,2,4,11)           179.7866         calculate D2E/DX2 analytically  !
 ! D23   D(3,2,4,12)            59.8163         calculate D2E/DX2 analytically  !
 ! D24   D(3,2,4,13)           -60.2319         calculate D2E/DX2 analytically  !
 ! D25   D(5,2,4,11)            60.4638         calculate D2E/DX2 analytically  !
 ! D26   D(5,2,4,12)           -59.5065         calculate D2E/DX2 analytically  !
 ! D27   D(5,2,4,13)          -179.5547         calculate D2E/DX2 analytically  !
 ! D28   D(1,2,5,9)            -60.8191         calculate D2E/DX2 analytically  !
 ! D29   D(1,2,5,10)            60.8197         calculate D2E/DX2 analytically  !
 ! D30   D(3,2,5,9)             59.3991         calculate D2E/DX2 analytically  !
 ! D31   D(3,2,5,10)          -178.962          calculate D2E/DX2 analytically  !
 ! D32   D(4,2,5,9)            178.9626         calculate D2E/DX2 analytically  !
 ! D33   D(4,2,5,10)           -59.3985         calculate D2E/DX2 analytically  !
 --------------------------------------------------------------------------------
 Trust Radius=3.00D-01 FncErr=1.00D-07 GrdErr=1.00D-06 EigMax=2.50D+02 EigMin=1.00D-04
 Number of steps in this run=    100 maximum allowed number of steps=    100.
 GradGradGradGradGradGradGradGradGradGradGradGradGradGradGradGradGradGrad

 Leave Link  103 at Tue Apr 12 15:57:48 2022, MaxMem=  1073741824 cpu:               0.1 elap:               0.0
 (Enter /home/saurabh/gaussian/g16/l202.exe)
                          Input orientation:                          
 ---------------------------------------------------------------------
 Center     Atomic      Atomic             Coordinates (Angstroms)
 Number     Number       Type             X           Y           Z
 ---------------------------------------------------------------------
      1          6           0       -3.976820    2.211513    0.793229
      2          6           0       -3.588308    1.066212   -0.159364
      3          6           0       -4.850105    0.503552   -0.836130
      4          6           0       -2.888443   -0.052114    0.632005
      5          6           0       -2.631850    1.591952   -1.238361
      6          1           0       -4.481762    3.030326    0.236368
      7          1           0       -3.075187    2.631901    1.289061
      8          1           0       -4.670214    1.846900    1.581719
      9          1           0       -3.109364    2.391232   -1.845545
     10          1           0       -1.697053    1.991168   -0.788557
     11          1           0       -1.970277    0.332152    1.126995
     12          1           0       -2.596898   -0.885510   -0.043461
     13          1           0       -3.562676   -0.457889    1.417063
     14          1           0       -5.370372    1.295273   -1.417683
     15          1           0       -5.558789    0.107535   -0.076856
     16          1           0       -4.585490   -0.322215   -1.531750
 ---------------------------------------------------------------------
                    Distance matrix (angstroms):
                    1          2          3          4          5
     1  C    0.000000
     2  C    1.539509   0.000000
     3  C    2.516856   1.538418   0.000000
     4  C    2.516856   1.538418   2.512430   0.000000
     5  C    2.513992   1.534747   2.503410   2.503409   0.000000
     6  H    1.111538   2.193766   2.769570   3.492368   2.768740
     7  H    1.111538   2.193766   3.492369   2.769573   2.768737
     8  H    1.111510   2.193482   2.771812   2.771808   3.488951
     9  H    2.783506   2.197332   2.759063   3.486688   1.111549
    10  H    2.783511   2.197332   3.486689   2.759059   1.111549
    11  H    2.769407   2.193533   3.489505   1.111623   2.760377
    12  H    3.492246   2.192156   2.763107   1.111666   2.750786
    13  H    2.772434   2.192866   2.767439   1.111557   3.481315
    14  H    2.769407   2.193534   1.111622   3.489505   2.760377
    15  H    2.772434   2.192867   1.111557   2.767439   3.481315
    16  H    3.492246   2.192156   1.111666   2.763107   2.750786
                    6          7          8          9         10
     6  H    0.000000
     7  H    1.801488   0.000000
     8  H    1.801661   1.801661   0.000000
     9  H    2.574156   3.144017   3.805087   0.000000
    10  H    3.144030   2.574158   3.805089   1.808838   0.000000
    11  H    3.792219   2.556548   3.129041   3.791216   2.548788
    12  H    4.354858   3.791643   3.795512   3.774542   3.104861
    13  H    3.795577   3.130628   2.562383   4.355179   3.787239
    14  H    2.556545   3.792217   3.129046   2.548794   3.791219
    15  H    3.130623   3.795580   2.562387   3.787243   4.355180
    16  H    3.791640   4.354858   3.795515   3.104869   3.774539
                   11         12         13         14         15
    11  H    0.000000
    12  H    1.801477   0.000000
    13  H    1.801122   1.802419   0.000000
    14  H    4.354726   3.786352   3.791718   0.000000
    15  H    3.791718   3.124108   2.556553   1.801122   0.000000
    16  H    3.786352   2.546921   3.124109   1.801477   1.802419
                   16
    16  H    0.000000
 Stoichiometry    C5H11(2)
 Framework group  C1[X(C5H11)]
 Deg. of freedom    42
 Full point group                 C1      NOp   1
 Largest Abelian subgroup         C1      NOp   1
 Largest concise Abelian subgroup C1      NOp   1
                         Standard orientation:                         
 ---------------------------------------------------------------------
 Center     Atomic      Atomic             Coordinates (Angstroms)
 Number     Number       Type             X           Y           Z
 ---------------------------------------------------------------------
      1          6           0       -0.000020    1.084177   -1.043789
      2          6           0       -0.000000   -0.000092    0.049119
      3          6           0        1.256234   -0.877152   -0.090070
      4          6           0       -1.256196   -0.877205   -0.090077
      5          6           0       -0.000018    0.660773    1.434292
      6          1           0        0.900712    1.729508   -0.955774
      7          1           0       -0.900777    1.729474   -0.955774
      8          1           0       -0.000011    0.621529   -2.054438
      9          1           0        0.904385    1.290206    1.580617
     10          1           0       -0.904454    1.290159    1.580616
     11          1           0       -2.177357   -0.263288    0.011272
     12          1           0       -1.273427   -1.663060    0.696013
     13          1           0       -1.278244   -1.375695   -1.083345
     14          1           0        2.177369   -0.263195    0.011284
     15          1           0        1.278309   -1.375641   -1.083338
     16          1           0        1.273494   -1.663005    0.696020
 ---------------------------------------------------------------------
 Rotational constants (GHZ):           4.6137616           4.6071348           4.4178408
 Leave Link  202 at Tue Apr 12 15:57:48 2022, MaxMem=  1073741824 cpu:               0.1 elap:               0.0
 (Enter /home/saurabh/gaussian/g16/l301.exe)
 Standard basis: CC-pVTZ (5D, 7F)
 Ernie: Thresh=  0.10000D-02 Tol=  0.10000D-05 Strict=F.
 Ernie:  15 primitive shells out of 218 were deleted.
 There are   340 symmetry adapted cartesian basis functions of A   symmetry.
 There are   304 symmetry adapted basis functions of A   symmetry.
   304 basis functions,   447 primitive gaussians,   340 cartesian basis functions
    21 alpha electrons       20 beta electrons
       nuclear repulsion energy       187.7636637850 Hartrees.
 IExCor=  402 DFT=T Ex+Corr=B3LYP ExCW=0 ScaHFX=  0.200000
 ScaDFX=  0.800000  0.720000  1.000000  0.810000 ScalE2=  1.000000  1.000000
 IRadAn=      5 IRanWt=     -1 IRanGd=            0 ICorTp=0 IEmpDi=  4
 NAtoms=   16 NActive=   16 NUniq=   16 SFac= 1.00D+00 NAtFMM=   60 NAOKFM=F Big=F
 Integral buffers will be    131072 words long.
 Raffenetti 2 integral format.
 Two-electron integral symmetry is turned on.
 Leave Link  301 at Tue Apr 12 15:57:48 2022, MaxMem=  1073741824 cpu:               0.5 elap:               0.1
 (Enter /home/saurabh/gaussian/g16/l302.exe)
 NPDir=0 NMtPBC=     1 NCelOv=     1 NCel=       1 NClECP=     1 NCelD=      1
         NCelK=      1 NCelE2=     1 NClLst=     1 CellRange=     0.0.
 One-electron integrals computed using PRISM.
 One-electron integral symmetry used in STVInt
 NBasis=   304 RedAO= T EigKep=  6.49D-04  NBF=   304
 NBsUse=   304 1.00D-06 EigRej= -1.00D+00 NBFU=   304
 Precomputing XC quadrature grid using
 IXCGrd= 4 IRadAn=           5 IRanWt=          -1 IRanGd=           0 AccXCQ= 0.00D+00.
 Generated NRdTot=       0 NPtTot=           0 NUsed=           0 NTot=          32
 NSgBfM=   340   340   340   340   340 MxSgAt=    16 MxSgA2=    16.
 Leave Link  302 at Tue Apr 12 15:57:48 2022, MaxMem=  1073741824 cpu:               2.1 elap:               0.3
 (Enter /home/saurabh/gaussian/g16/l303.exe)
 DipDrv:  MaxL=1.
 Leave Link  303 at Tue Apr 12 15:57:49 2022, MaxMem=  1073741824 cpu:               0.4 elap:               0.1
 (Enter /home/saurabh/gaussian/g16/l401.exe)
 ExpMin= 1.03D-01 ExpMax= 8.24D+03 ExpMxC= 2.81D+02 IAcc=3 IRadAn=         5 AccDes= 0.00D+00
 Harris functional with IExCor=  402 and IRadAn=       5 diagonalized for initial guess.
 HarFok:  IExCor=  402 AccDes= 0.00D+00 IRadAn=         5 IDoV= 1 UseB2=F ITyADJ=14
 ICtDFT=  3500011 ScaDFX=  1.000000  1.000000  1.000000  1.000000
 FoFCou: FMM=F IPFlag=           0 FMFlag=      100000 FMFlg1=           0
         NFxFlg=           0 DoJE=T BraDBF=F KetDBF=T FulRan=T
         wScrn=  0.000000 ICntrl=       500 IOpCl=  0 I1Cent=   200000004 NGrid=           0
         NMat0=    1 NMatS0=      1 NMatT0=    0 NMatD0=    1 NMtDS0=    0 NMtDT0=    0
 Petite list used in FoFCou.
 Harris En= -197.198080287540    
 JPrj=0 DoOrth=F DoCkMO=F.
 Initial guess <Sx>= 0.0000 <Sy>= 0.0000 <Sz>= 0.5000 <S**2>= 0.7500 S= 0.5000
 Leave Link  401 at Tue Apr 12 15:57:50 2022, MaxMem=  1073741824 cpu:               8.5 elap:               1.1
 (Enter /home/saurabh/gaussian/g16/l502.exe)
 Integral symmetry usage will be decided dynamically.
 UHF open shell SCF:
 Using DIIS extrapolation, IDIIS=  1040.
 NGot=  1073741824 LenX=  1073504414 LenY=  1073388373
 Requested convergence on RMS density matrix=1.00D-08 within1000 cycles.
 Requested convergence on MAX density matrix=1.00D-06.
 Requested convergence on             energy=1.00D-06.
 No special actions if energy rises.
 Fock matrices will be formed incrementally for  20 cycles.
 Integral accuracy reduced to 1.0D-05 until final iterations.

 Cycle   1  Pass 0  IDiag  1:
 FoFJK:  IHMeth= 1 ICntrl=       0 DoSepK=F KAlg= 0 I1Cent=           0 FoldK=F
 IRaf= 990000000 NMat=       1 IRICut=       1 DoRegI=T DoRafI=F ISym2E= 0 IDoP0=0 IntGTp=1.
 FoFCou: FMM=F IPFlag=           0 FMFlag=      100000 FMFlg1=           0
         NFxFlg=           0 DoJE=F BraDBF=F KetDBF=F FulRan=T
         wScrn=  0.000000 ICntrl=         0 IOpCl=  1 I1Cent=           0 NGrid=           0
         NMat0=    1 NMatS0=      1 NMatT0=    0 NMatD0=    1 NMtDS0=    0 NMtDT0=    0
 Symmetry not used in FoFCou.
 E= -196.931026677113    
 DIIS: error= 4.06D-02 at cycle   1 NSaved=   1.
 NSaved= 1 IEnMin= 1 EnMin= -196.931026677113     IErMin= 1 ErrMin= 4.06D-02
 ErrMax= 4.06D-02  0.00D+00 EMaxC= 1.00D-01 BMatC= 9.14D-01 BMatP= 9.14D-01
 IDIUse=3 WtCom= 5.94D-01 WtEn= 4.06D-01
 Coeff-Com:  0.100D+01
 Coeff-En:   0.100D+01
 Coeff:      0.100D+01
 Gap=     0.215 Goal=   None    Shift=    0.000
 Gap=     0.222 Goal=   None    Shift=    0.000
 GapD=    0.215 DampG=1.000 DampE=0.500 DampFc=0.5000 IDamp=-1.
 Damping current iteration by 5.00D-01
 RMSDP=2.77D-03 MaxDP=1.26D-01              OVMax= 2.02D-01

 Cycle   2  Pass 0  IDiag  1:
 RMSU=  1.38D-03    CP:  9.84D-01
 E= -197.023343679087     Delta-E=       -0.092317001975 Rises=F Damp=T
 DIIS: error= 1.02D-02 at cycle   2 NSaved=   2.
 NSaved= 2 IEnMin= 2 EnMin= -197.023343679087     IErMin= 2 ErrMin= 1.02D-02
 ErrMax= 1.02D-02  0.00D+00 EMaxC= 1.00D-01 BMatC= 5.21D-02 BMatP= 9.14D-01
 IDIUse=3 WtCom= 8.98D-01 WtEn= 1.02D-01
 Coeff-Com:  0.975D-01 0.903D+00
 Coeff-En:   0.207D+00 0.793D+00
 Coeff:      0.109D+00 0.891D+00
 Gap=     0.269 Goal=   None    Shift=    0.000
 Gap=     0.262 Goal=   None    Shift=    0.000
 RMSDP=6.75D-04 MaxDP=3.29D-02 DE=-9.23D-02 OVMax= 1.33D-01

 Cycle   3  Pass 0  IDiag  1:
 RMSU=  4.55D-04    CP:  9.89D-01  6.40D-01
 E= -197.159160504556     Delta-E=       -0.135816825469 Rises=F Damp=F
 DIIS: error= 6.59D-03 at cycle   3 NSaved=   3.
 NSaved= 3 IEnMin= 3 EnMin= -197.159160504556     IErMin= 3 ErrMin= 6.59D-03
 ErrMax= 6.59D-03  0.00D+00 EMaxC= 1.00D-01 BMatC= 1.53D-02 BMatP= 5.21D-02
 IDIUse=3 WtCom= 9.34D-01 WtEn= 6.59D-02
 Coeff-Com: -0.153D-02 0.311D+00 0.691D+00
 Coeff-En:   0.000D+00 0.000D+00 0.100D+01
 Coeff:     -0.143D-02 0.290D+00 0.711D+00
 Gap=     0.264 Goal=   None    Shift=    0.000
 Gap=     0.237 Goal=   None    Shift=    0.000
 RMSDP=1.95D-04 MaxDP=9.54D-03 DE=-1.36D-01 OVMax= 2.07D-02

 Cycle   4  Pass 0  IDiag  1:
 RMSU=  1.45D-04    CP:  9.88D-01  7.09D-01  8.01D-01
 E= -197.161818827582     Delta-E=       -0.002658323026 Rises=F Damp=F
 DIIS: error= 3.00D-03 at cycle   4 NSaved=   4.
 NSaved= 4 IEnMin= 4 EnMin= -197.161818827582     IErMin= 4 ErrMin= 3.00D-03
 ErrMax= 3.00D-03  0.00D+00 EMaxC= 1.00D-01 BMatC= 5.38D-03 BMatP= 1.53D-02
 IDIUse=3 WtCom= 9.70D-01 WtEn= 3.00D-02
 Coeff-Com: -0.141D-01 0.482D-01 0.388D+00 0.578D+00
 Coeff-En:   0.000D+00 0.000D+00 0.235D+00 0.765D+00
 Coeff:     -0.137D-01 0.468D-01 0.384D+00 0.583D+00
 Gap=     0.263 Goal=   None    Shift=    0.000
 Gap=     0.244 Goal=   None    Shift=    0.000
 RMSDP=6.97D-05 MaxDP=4.59D-03 DE=-2.66D-03 OVMax= 9.44D-03

 Cycle   5  Pass 0  IDiag  1:
 RMSU=  3.18D-05    CP:  9.88D-01  6.95D-01  8.74D-01  6.63D-01
 E= -197.163034724782     Delta-E=       -0.001215897200 Rises=F Damp=F
 DIIS: error= 3.06D-04 at cycle   5 NSaved=   5.
 NSaved= 5 IEnMin= 5 EnMin= -197.163034724782     IErMin= 5 ErrMin= 3.06D-04
 ErrMax= 3.06D-04  0.00D+00 EMaxC= 1.00D-01 BMatC= 6.57D-05 BMatP= 5.38D-03
 IDIUse=3 WtCom= 9.97D-01 WtEn= 3.06D-03
 Coeff-Com: -0.292D-02-0.212D-02 0.729D-01 0.165D+00 0.767D+00
 Coeff-En:   0.000D+00 0.000D+00 0.000D+00 0.000D+00 0.100D+01
 Coeff:     -0.291D-02-0.211D-02 0.726D-01 0.165D+00 0.767D+00
 Gap=     0.263 Goal=   None    Shift=    0.000
 Gap=     0.244 Goal=   None    Shift=    0.000
 RMSDP=1.16D-05 MaxDP=6.50D-04 DE=-1.22D-03 OVMax= 1.18D-03

 Cycle   6  Pass 0  IDiag  1:
 RMSU=  9.46D-06    CP:  9.88D-01  6.93D-01  8.81D-01  6.85D-01  8.53D-01
 E= -197.163050558347     Delta-E=       -0.000015833565 Rises=F Damp=F
 DIIS: error= 6.99D-05 at cycle   6 NSaved=   6.
 NSaved= 6 IEnMin= 6 EnMin= -197.163050558347     IErMin= 6 ErrMin= 6.99D-05
 ErrMax= 6.99D-05  0.00D+00 EMaxC= 1.00D-01 BMatC= 3.89D-06 BMatP= 6.57D-05
 IDIUse=1 WtCom= 1.00D+00 WtEn= 0.00D+00
 Coeff-Com:  0.140D-03-0.282D-02-0.239D-02 0.940D-02 0.164D+00 0.832D+00
 Coeff:      0.140D-03-0.282D-02-0.239D-02 0.940D-02 0.164D+00 0.832D+00
 Gap=     0.263 Goal=   None    Shift=    0.000
 Gap=     0.244 Goal=   None    Shift=    0.000
 RMSDP=4.26D-06 MaxDP=2.23D-04 DE=-1.58D-05 OVMax= 5.30D-04

 Initial convergence to 1.0D-05 achieved.  Increase integral accuracy.
 Cycle   7  Pass 1  IDiag  1:
 E= -197.163045335768     Delta-E=        0.000005222579 Rises=F Damp=F
 DIIS: error= 4.54D-05 at cycle   1 NSaved=   1.
 NSaved= 1 IEnMin= 1 EnMin= -197.163045335768     IErMin= 1 ErrMin= 4.54D-05
 ErrMax= 4.54D-05  0.00D+00 EMaxC= 1.00D-01 BMatC= 2.37D-06 BMatP= 2.37D-06
 IDIUse=1 WtCom= 1.00D+00 WtEn= 0.00D+00
 Coeff-Com:  0.100D+01
 Coeff:      0.100D+01
 Gap=     0.263 Goal=   None    Shift=    0.000
 Gap=     0.244 Goal=   None    Shift=    0.000
 RMSDP=4.26D-06 MaxDP=2.23D-04 DE= 5.22D-06 OVMax= 3.23D-04

 Cycle   8  Pass 1  IDiag  1:
 RMSU=  5.32D-06    CP:  1.00D+00
 E= -197.163045299680     Delta-E=        0.000000036088 Rises=F Damp=F
 DIIS: error= 5.23D-05 at cycle   2 NSaved=   2.
 NSaved= 2 IEnMin= 1 EnMin= -197.163045335768     IErMin= 1 ErrMin= 4.54D-05
 ErrMax= 5.23D-05  0.00D+00 EMaxC= 1.00D-01 BMatC= 2.63D-06 BMatP= 2.37D-06
 IDIUse=1 WtCom= 1.00D+00 WtEn= 0.00D+00
 Coeff-Com:  0.515D+00 0.485D+00
 Coeff:      0.515D+00 0.485D+00
 Gap=     0.263 Goal=   None    Shift=    0.000
 Gap=     0.244 Goal=   None    Shift=    0.000
 RMSDP=1.71D-06 MaxDP=7.88D-05 DE= 3.61D-08 OVMax= 2.00D-04

 Cycle   9  Pass 1  IDiag  1:
 RMSU=  1.53D-06    CP:  1.00D+00  8.54D-01
 E= -197.163045943299     Delta-E=       -0.000000643619 Rises=F Damp=F
 DIIS: error= 7.85D-06 at cycle   3 NSaved=   3.
 NSaved= 3 IEnMin= 3 EnMin= -197.163045943299     IErMin= 3 ErrMin= 7.85D-06
 ErrMax= 7.85D-06  0.00D+00 EMaxC= 1.00D-01 BMatC= 6.48D-08 BMatP= 2.37D-06
 IDIUse=1 WtCom= 1.00D+00 WtEn= 0.00D+00
 Coeff-Com: -0.442D-01 0.858D-01 0.958D+00
 Coeff:     -0.442D-01 0.858D-01 0.958D+00
 Gap=     0.263 Goal=   None    Shift=    0.000
 Gap=     0.244 Goal=   None    Shift=    0.000
 RMSDP=4.39D-07 MaxDP=2.30D-05 DE=-6.44D-07 OVMax= 4.89D-05

 Cycle  10  Pass 1  IDiag  1:
 RMSU=  4.05D-07    CP:  1.00D+00  8.86D-01  9.89D-01
 E= -197.163045967752     Delta-E=       -0.000000024454 Rises=F Damp=F
 DIIS: error= 3.55D-06 at cycle   4 NSaved=   4.
 NSaved= 4 IEnMin= 4 EnMin= -197.163045967752     IErMin= 4 ErrMin= 3.55D-06
 ErrMax= 3.55D-06  0.00D+00 EMaxC= 1.00D-01 BMatC= 8.53D-09 BMatP= 6.48D-08
 IDIUse=1 WtCom= 1.00D+00 WtEn= 0.00D+00
 Coeff-Com: -0.452D-01-0.529D-02 0.262D+00 0.788D+00
 Coeff:     -0.452D-01-0.529D-02 0.262D+00 0.788D+00
 Gap=     0.263 Goal=   None    Shift=    0.000
 Gap=     0.244 Goal=   None    Shift=    0.000
 RMSDP=1.76D-07 MaxDP=1.42D-05 DE=-2.45D-08 OVMax= 2.76D-05

 Cycle  11  Pass 1  IDiag  1:
 RMSU=  1.62D-07    CP:  1.00D+00  8.94D-01  1.01D+00  1.11D+00
 E= -197.163045970742     Delta-E=       -0.000000002990 Rises=F Damp=F
 DIIS: error= 1.93D-06 at cycle   5 NSaved=   5.
 NSaved= 5 IEnMin= 5 EnMin= -197.163045970742     IErMin= 5 ErrMin= 1.93D-06
 ErrMax= 1.93D-06  0.00D+00 EMaxC= 1.00D-01 BMatC= 2.82D-09 BMatP= 8.53D-09
 IDIUse=1 WtCom= 1.00D+00 WtEn= 0.00D+00
 Coeff-Com: -0.719D-02-0.273D-01-0.167D+00 0.358D+00 0.843D+00
 Coeff:     -0.719D-02-0.273D-01-0.167D+00 0.358D+00 0.843D+00
 Gap=     0.263 Goal=   None    Shift=    0.000
 Gap=     0.244 Goal=   None    Shift=    0.000
 RMSDP=1.10D-07 MaxDP=7.54D-06 DE=-2.99D-09 OVMax= 1.48D-05

 Cycle  12  Pass 1  IDiag  1:
 RMSU=  4.80D-08    CP:  1.00D+00  8.97D-01  1.02D+00  1.34D+00  9.48D-01
 E= -197.163045971737     Delta-E=       -0.000000000995 Rises=F Damp=F
 DIIS: error= 5.82D-07 at cycle   6 NSaved=   6.
 NSaved= 6 IEnMin= 6 EnMin= -197.163045971737     IErMin= 6 ErrMin= 5.82D-07
 ErrMax= 5.82D-07  0.00D+00 EMaxC= 1.00D-01 BMatC= 3.14D-10 BMatP= 2.82D-09
 IDIUse=1 WtCom= 1.00D+00 WtEn= 0.00D+00
 Coeff-Com:  0.649D-03-0.123D-01-0.101D+00 0.982D-01 0.402D+00 0.613D+00
 Coeff:      0.649D-03-0.123D-01-0.101D+00 0.982D-01 0.402D+00 0.613D+00
 Gap=     0.263 Goal=   None    Shift=    0.000
 Gap=     0.244 Goal=   None    Shift=    0.000
 RMSDP=2.49D-08 MaxDP=1.42D-06 DE=-9.95D-10 OVMax= 2.79D-06

 Cycle  13  Pass 1  IDiag  1:
 RMSU=  1.40D-08    CP:  1.00D+00  8.97D-01  1.03D+00  1.37D+00  9.87D-01
                    CP:  6.67D-01
 E= -197.163045971820     Delta-E=       -0.000000000083 Rises=F Damp=F
 DIIS: error= 1.49D-07 at cycle   7 NSaved=   7.
 NSaved= 7 IEnMin= 7 EnMin= -197.163045971820     IErMin= 7 ErrMin= 1.49D-07
 ErrMax= 1.49D-07  0.00D+00 EMaxC= 1.00D-01 BMatC= 1.07D-11 BMatP= 3.14D-10
 IDIUse=1 WtCom= 1.00D+00 WtEn= 0.00D+00
 Coeff-Com:  0.544D-03-0.344D-02-0.301D-01 0.199D-01 0.114D+00 0.223D+00
 Coeff-Com:  0.675D+00
 Coeff:      0.544D-03-0.344D-02-0.301D-01 0.199D-01 0.114D+00 0.223D+00
 Coeff:      0.675D+00
 Gap=     0.263 Goal=   None    Shift=    0.000
 Gap=     0.244 Goal=   None    Shift=    0.000
 RMSDP=5.93D-09 MaxDP=3.74D-07 DE=-8.31D-11 OVMax= 5.53D-07

 SCF Done:  E(UB3LYP) =  -197.163045972     A.U. after   13 cycles
            NFock= 13  Conv=0.59D-08     -V/T= 2.0091
 <Sx>= 0.0000 <Sy>= 0.0000 <Sz>= 0.5000 <S**2>= 0.7530 S= 0.5015
 <L.S>=  0.00000000000    
 KE= 1.953785676175D+02 PE=-8.306324119617D+02 EE= 2.503271345873D+02
 Annihilation of the first spin contaminant:
 S**2 before annihilation     0.7530,   after     0.7500
 Leave Link  502 at Tue Apr 12 15:58:39 2022, MaxMem=  1073741824 cpu:             398.2 elap:              49.8
 (Enter /home/saurabh/gaussian/g16/l801.exe)
 DoSCS=F DFT=T ScalE2(SS,OS)=  1.000000  1.000000
 Range of M.O.s used for correlation:     1   304
 NBasis=   304 NAE=    21 NBE=    20 NFC=     0 NFV=     0
 NROrb=    304 NOA=    21 NOB=    20 NVA=   283 NVB=   284

 **** Warning!!: The largest alpha MO coefficient is  0.12942937D+02


 **** Warning!!: The largest beta MO coefficient is  0.12175953D+02

 Leave Link  801 at Tue Apr 12 15:58:40 2022, MaxMem=  1073741824 cpu:               0.2 elap:               0.0
 (Enter /home/saurabh/gaussian/g16/l1101.exe)
 Using compressed storage, NAtomX=    16.
 Will process     17 centers per pass.
 Leave Link 1101 at Tue Apr 12 15:58:40 2022, MaxMem=  1073741824 cpu:               2.5 elap:               0.3
 (Enter /home/saurabh/gaussian/g16/l1102.exe)
 Symmetrizing basis deriv contribution to polar:
 IMax=3 JMax=2 DiffMx= 0.00D+00
 Leave Link 1102 at Tue Apr 12 15:58:40 2022, MaxMem=  1073741824 cpu:               0.3 elap:               0.1
 (Enter /home/saurabh/gaussian/g16/l1110.exe)
 Forming Gx(P) for the SCF density, NAtomX=    16.
 Integral derivatives from FoFJK, PRISM(SPDF).
 Do as many integral derivatives as possible in FoFJK.
 G2DrvN: MDV=    1073740040.
 G2DrvN: will do    17 centers at a time, making    1 passes.
 Calling FoFCou, ICntrl=  3107 FMM=F I1Cent=   0 AccDes= 0.00D+00.
 FoFJK:  IHMeth= 1 ICntrl=    3107 DoSepK=F KAlg= 0 I1Cent=           0 FoldK=F
 IRaf=         0 NMat=       1 IRICut=       1 DoRegI=T DoRafI=F ISym2E= 0 IDoP0=0 IntGTp=1.
 FoFCou: FMM=F IPFlag=           0 FMFlag=      100000 FMFlg1=           0
         NFxFlg=           0 DoJE=F BraDBF=F KetDBF=F FulRan=T
         wScrn=  0.000000 ICntrl=      3107 IOpCl=  1 I1Cent=           0 NGrid=           0
         NMat0=    1 NMatS0=      1 NMatT0=    0 NMatD0=    1 NMtDS0=    0 NMtDT0=    0
 Symmetry not used in FoFCou.
 End of G2Drv F.D. properties file   721 does not exist.
 End of G2Drv F.D. properties file   722 does not exist.
 End of G2Drv F.D. properties file   788 does not exist.
 Leave Link 1110 at Tue Apr 12 16:00:17 2022, MaxMem=  1073741824 cpu:             775.6 elap:              97.0
 (Enter /home/saurabh/gaussian/g16/l1002.exe)
 Minotr:  UHF open shell wavefunction.
          IDoAtm=1111111111111111
          Direct CPHF calculation.
          Differentiating once with respect to nuclear coordinates.
          Requested convergence is 1.0D-08 RMS, and 1.0D-07 maximum.
          Secondary convergence is 1.0D-12 RMS, and 1.0D-12 maximum.
          NewPWx=T KeepS1=F KeepF1=F KeepIn=T MapXYZ=F SortEE=F KeepMc=T.
         4734 words used for storage of precomputed grid.
 Two-electron integrals replicated using symmetry.
          MDV=    1073741824 using IRadAn=       1.
          Solving linear equations simultaneously, MaxMat=     384.
 FoF2E skips out because all densities are zero.
 CalDSu exits because no D1Ps are significant.
 FoFJK:  IHMeth= 1 ICntrl=       0 DoSepK=F KAlg= 0 I1Cent=           0 FoldK=F
 IRaf= 990000000 NMat=      48 IRICut=     120 DoRegI=T DoRafI=T ISym2E= 2 IDoP0=3 IntGTp=3.
 FoFCou: FMM=F IPFlag=           0 FMFlag=      100000 FMFlg1=           0
         NFxFlg=           0 DoJE=F BraDBF=F KetDBF=F FulRan=T
         wScrn=  0.000000 ICntrl=         0 IOpCl=  1 I1Cent=           0 NGrid=           0
         NMat0=   48 NMatS0=     48 NMatT0=    0 NMatD0=   48 NMtDS0=    0 NMtDT0=    0
 Integrals replicated using symmetry in FoFCou.
 Raff kept on since  96.99% of shell-pairs survive, threshold=   0.20 IRatSp=97.
          There are    51 degrees of freedom in the 1st order CPHF.  IDoFFX=6 NUNeed=     0.
     45 vectors produced by pass  0 Test12= 2.28D-14 1.96D-09 XBig12= 1.66D-01 1.64D-01.
 AX will form    45 AO Fock derivatives at one time.
     45 vectors produced by pass  1 Test12= 2.28D-14 1.96D-09 XBig12= 1.86D-02 3.08D-02.
     45 vectors produced by pass  2 Test12= 2.28D-14 1.96D-09 XBig12= 3.92D-04 5.18D-03.
     45 vectors produced by pass  3 Test12= 2.28D-14 1.96D-09 XBig12= 2.14D-06 2.79D-04.
     45 vectors produced by pass  4 Test12= 2.28D-14 1.96D-09 XBig12= 2.03D-08 2.11D-05.
     45 vectors produced by pass  5 Test12= 2.28D-14 1.96D-09 XBig12= 1.11D-10 1.32D-06.
     21 vectors produced by pass  6 Test12= 2.28D-14 1.96D-09 XBig12= 4.51D-13 6.44D-08.
      4 vectors produced by pass  7 Test12= 2.28D-14 1.96D-09 XBig12= 2.25D-15 7.19D-09.
 InvSVY:  IOpt=1 It=  1 EMax= 3.89D-16
 Solved reduced A of dimension   295 with    51 vectors.
 End of Minotr F.D. properties file   721 does not exist.
 End of Minotr F.D. properties file   722 does not exist.
 End of Minotr F.D. properties file   788 does not exist.
 Leave Link 1002 at Tue Apr 12 16:03:43 2022, MaxMem=  1073741824 cpu:            1644.7 elap:             205.6
 (Enter /home/saurabh/gaussian/g16/l601.exe)
 Copying SCF densities to generalized density rwf, IOpCl= 1 IROHF=0.

 **********************************************************************

            Population analysis using the SCF Density.

 **********************************************************************

 Orbital symmetries:
 Alpha Orbitals:
       Occupied  (A) (A) (A) (A) (A) (A) (A) (A) (A) (A) (A) (A)
                 (A) (A) (A) (A) (A) (A) (A) (A) (A)
       Virtual   (A) (A) (A) (A) (A) (A) (A) (A) (A) (A) (A) (A)
                 (A) (A) (A) (A) (A) (A) (A) (A) (A) (A) (A) (A)
                 (A) (A) (A) (A) (A) (A) (A) (A) (A) (A) (A) (A)
                 (A) (A) (A) (A) (A) (A) (A) (A) (A) (A) (A) (A)
                 (A) (A) (A) (A) (A) (A) (A) (A) (A) (A) (A) (A)
                 (A) (A) (A) (A) (A) (A) (A) (A) (A) (A) (A) (A)
                 (A) (A) (A) (A) (A) (A) (A) (A) (A) (A) (A) (A)
                 (A) (A) (A) (A) (A) (A) (A) (A) (A) (A) (A) (A)
                 (A) (A) (A) (A) (A) (A) (A) (A) (A) (A) (A) (A)
                 (A) (A) (A) (A) (A) (A) (A) (A) (A) (A) (A) (A)
                 (A) (A) (A) (A) (A) (A) (A) (A) (A) (A) (A) (A)
                 (A) (A) (A) (A) (A) (A) (A) (A) (A) (A) (A) (A)
                 (A) (A) (A) (A) (A) (A) (A) (A) (A) (A) (A) (A)
                 (A) (A) (A) (A) (A) (A) (A) (A) (A) (A) (A) (A)
                 (A) (A) (A) (A) (A) (A) (A) (A) (A) (A) (A) (A)
                 (A) (A) (A) (A) (A) (A) (A) (A) (A) (A) (A) (A)
                 (A) (A) (A) (A) (A) (A) (A) (A) (A) (A) (A) (A)
                 (A) (A) (A) (A) (A) (A) (A) (A) (A) (A) (A) (A)
                 (A) (A) (A) (A) (A) (A) (A) (A) (A) (A) (A) (A)
                 (A) (A) (A) (A) (A) (A) (A) (A) (A) (A) (A) (A)
                 (A) (A) (A) (A) (A) (A) (A) (A) (A) (A) (A) (A)
                 (A) (A) (A) (A) (A) (A) (A) (A) (A) (A) (A) (A)
                 (A) (A) (A) (A) (A) (A) (A) (A) (A) (A) (A) (A)
                 (A) (A) (A) (A) (A) (A) (A)
 Beta  Orbitals:
       Occupied  (A) (A) (A) (A) (A) (A) (A) (A) (A) (A) (A) (A)
                 (A) (A) (A) (A) (A) (A) (A) (A)
       Virtual   (A) (A) (A) (A) (A) (A) (A) (A) (A) (A) (A) (A)
                 (A) (A) (A) (A) (A) (A) (A) (A) (A) (A) (A) (A)
                 (A) (A) (A) (A) (A) (A) (A) (A) (A) (A) (A) (A)
                 (A) (A) (A) (A) (A) (A) (A) (A) (A) (A) (A) (A)
                 (A) (A) (A) (A) (A) (A) (A) (A) (A) (A) (A) (A)
                 (A) (A) (A) (A) (A) (A) (A) (A) (A) (A) (A) (A)
                 (A) (A) (A) (A) (A) (A) (A) (A) (A) (A) (A) (A)
                 (A) (A) (A) (A) (A) (A) (A) (A) (A) (A) (A) (A)
                 (A) (A) (A) (A) (A) (A) (A) (A) (A) (A) (A) (A)
                 (A) (A) (A) (A) (A) (A) (A) (A) (A) (A) (A) (A)
                 (A) (A) (A) (A) (A) (A) (A) (A) (A) (A) (A) (A)
                 (A) (A) (A) (A) (A) (A) (A) (A) (A) (A) (A) (A)
                 (A) (A) (A) (A) (A) (A) (A) (A) (A) (A) (A) (A)
                 (A) (A) (A) (A) (A) (A) (A) (A) (A) (A) (A) (A)
                 (A) (A) (A) (A) (A) (A) (A) (A) (A) (A) (A) (A)
                 (A) (A) (A) (A) (A) (A) (A) (A) (A) (A) (A) (A)
                 (A) (A) (A) (A) (A) (A) (A) (A) (A) (A) (A) (A)
                 (A) (A) (A) (A) (A) (A) (A) (A) (A) (A) (A) (A)
                 (A) (A) (A) (A) (A) (A) (A) (A) (A) (A) (A) (A)
                 (A) (A) (A) (A) (A) (A) (A) (A) (A) (A) (A) (A)
                 (A) (A) (A) (A) (A) (A) (A) (A) (A) (A) (A) (A)
                 (A) (A) (A) (A) (A) (A) (A) (A) (A) (A) (A) (A)
                 (A) (A) (A) (A) (A) (A) (A) (A) (A) (A) (A) (A)
                 (A) (A) (A) (A) (A) (A) (A) (A)
 The electronic state is 2-A.
 Alpha  occ. eigenvalues --  -10.19368 -10.19017 -10.17370 -10.16638 -10.16638
 Alpha  occ. eigenvalues --   -0.82472  -0.68602  -0.68199  -0.67390  -0.53006
 Alpha  occ. eigenvalues --   -0.45221  -0.45100  -0.43800  -0.40381  -0.39418
 Alpha  occ. eigenvalues --   -0.36641  -0.36468  -0.34075  -0.32867  -0.32611
 Alpha  occ. eigenvalues --   -0.23783
 Alpha virt. eigenvalues --    0.02559   0.07541   0.07561   0.08300   0.08680
 Alpha virt. eigenvalues --    0.08845   0.10451   0.13049   0.13841   0.14017
 Alpha virt. eigenvalues --    0.15776   0.15890   0.18046   0.18345   0.18417
 Alpha virt. eigenvalues --    0.22924   0.23744   0.28340   0.30077   0.30625
 Alpha virt. eigenvalues --    0.31559   0.32365   0.33243   0.36548   0.40779
 Alpha virt. eigenvalues --    0.42494   0.42518   0.44150   0.44406   0.44577
 Alpha virt. eigenvalues --    0.45286   0.45465   0.45934   0.46355   0.46672
 Alpha virt. eigenvalues --    0.47073   0.48711   0.48761   0.49112   0.50810
 Alpha virt. eigenvalues --    0.51013   0.55379   0.64516   0.65117   0.67173
 Alpha virt. eigenvalues --    0.72885   0.74937   0.75457   0.81707   0.82085
 Alpha virt. eigenvalues --    0.82259   0.85275   0.86816   0.86861   0.91099
 Alpha virt. eigenvalues --    0.91725   0.92735   0.93087   0.93646   0.94264
 Alpha virt. eigenvalues --    0.94979   0.96660   0.98907   1.02185   1.03888
 Alpha virt. eigenvalues --    1.07423   1.09909   1.10853   1.12902   1.13585
 Alpha virt. eigenvalues --    1.15949   1.16028   1.19438   1.19542   1.19624
 Alpha virt. eigenvalues --    1.21849   1.23924   1.24645   1.26448   1.26689
 Alpha virt. eigenvalues --    1.27320   1.29441   1.30049   1.30295   1.31056
 Alpha virt. eigenvalues --    1.33096   1.34450   1.38211   1.40063   1.44010
 Alpha virt. eigenvalues --    1.44014   1.44913   1.46296   1.49858   1.50865
 Alpha virt. eigenvalues --    1.50876   1.52119   1.52389   1.52555   1.59842
 Alpha virt. eigenvalues --    1.62230   1.65613   1.72723   1.74053   2.14654
 Alpha virt. eigenvalues --    2.21377   2.21781   2.29540   2.29547   2.30144
 Alpha virt. eigenvalues --    2.30746   2.32021   2.40828   2.42961   2.44886
 Alpha virt. eigenvalues --    2.46544   2.51218   2.53168   2.53570   2.55209
 Alpha virt. eigenvalues --    2.56654   2.58680   2.59210   2.60443   2.61164
 Alpha virt. eigenvalues --    2.67475   2.69239   2.72097   2.75598   2.77334
 Alpha virt. eigenvalues --    2.78192   2.78233   2.80412   2.80898   2.83471
 Alpha virt. eigenvalues --    2.83692   2.85290   2.87540   2.92383   2.94362
 Alpha virt. eigenvalues --    2.95021   2.96831   2.97575   2.98710   3.00392
 Alpha virt. eigenvalues --    3.01047   3.02107   3.04435   3.04660   3.06518
 Alpha virt. eigenvalues --    3.07375   3.10383   3.10621   3.11570   3.11773
 Alpha virt. eigenvalues --    3.13297   3.14630   3.15283   3.22189   3.23454
 Alpha virt. eigenvalues --    3.23958   3.25226   3.28886   3.29224   3.31466
 Alpha virt. eigenvalues --    3.32920   3.33570   3.37139   3.37597   3.41187
 Alpha virt. eigenvalues --    3.41437   3.42040   3.42811   3.46032   3.46741
 Alpha virt. eigenvalues --    3.47440   3.47696   3.49349   3.52023   3.54758
 Alpha virt. eigenvalues --    3.58564   3.59553   3.62776   3.64969   3.65814
 Alpha virt. eigenvalues --    3.66847   3.67137   3.68023   3.69946   3.71658
 Alpha virt. eigenvalues --    3.74533   3.77201   3.79690   3.80489   3.85840
 Alpha virt. eigenvalues --    3.86098   3.87944   3.91178   3.91958   3.94934
 Alpha virt. eigenvalues --    3.96328   3.97333   3.99287   4.01983   4.04765
 Alpha virt. eigenvalues --    4.05332   4.06340   4.06874   4.08337   4.10249
 Alpha virt. eigenvalues --    4.10326   4.12151   4.13258   4.14274   4.14892
 Alpha virt. eigenvalues --    4.17266   4.17720   4.20489   4.21660   4.24028
 Alpha virt. eigenvalues --    4.24902   4.25446   4.26218   4.28556   4.31040
 Alpha virt. eigenvalues --    4.35786   4.39100   4.39980   4.45570   4.57984
 Alpha virt. eigenvalues --    4.58196   4.60686   4.60973   4.61319   4.61650
 Alpha virt. eigenvalues --    4.72501   4.73943   4.75919   4.76350   4.78198
 Alpha virt. eigenvalues --    4.79088   4.79858   4.81944   4.89589   4.89626
 Alpha virt. eigenvalues --    4.95583   4.97016   5.06400   5.07817   5.09955
 Alpha virt. eigenvalues --    5.10430   5.11517   5.14085   5.17163   5.17629
 Alpha virt. eigenvalues --    5.18540   5.20138   5.21818   5.24134   5.25929
 Alpha virt. eigenvalues --    5.26704   5.28212   5.30604   5.32572   5.33829
 Alpha virt. eigenvalues --    5.37565   5.38885   5.43052   5.48748   5.49851
 Alpha virt. eigenvalues --    5.51755   5.86216   5.87559   5.89385   5.90524
 Alpha virt. eigenvalues --    5.91614   5.93894   5.94633   9.37611  11.81429
 Alpha virt. eigenvalues --   13.21887  13.28476  13.28804
  Beta  occ. eigenvalues --  -10.19390 -10.17555 -10.17263 -10.16620 -10.16620
  Beta  occ. eigenvalues --   -0.81923  -0.68392  -0.68161  -0.64931  -0.52458
  Beta  occ. eigenvalues --   -0.44914  -0.44794  -0.43346  -0.40034  -0.39001
  Beta  occ. eigenvalues --   -0.36467  -0.36233  -0.33478  -0.32481  -0.32287
  Beta virt. eigenvalues --   -0.07877   0.02678   0.07720   0.07725   0.08544
  Beta virt. eigenvalues --    0.08885   0.08945   0.10687   0.13174   0.13982
  Beta virt. eigenvalues --    0.14141   0.15864   0.15986   0.18123   0.18504
  Beta virt. eigenvalues --    0.18920   0.23160   0.24268   0.29841   0.30117
  Beta virt. eigenvalues --    0.31121   0.31910   0.32507   0.34812   0.37865
  Beta virt. eigenvalues --    0.40797   0.43059   0.43214   0.44410   0.44687
  Beta virt. eigenvalues --    0.45180   0.45424   0.45788   0.46384   0.46584
  Beta virt. eigenvalues --    0.47119   0.47194   0.48751   0.48878   0.50000
  Beta virt. eigenvalues --    0.51018   0.51173   0.56198   0.65098   0.65465
  Beta virt. eigenvalues --    0.68069   0.73067   0.75030   0.76078   0.81850
  Beta virt. eigenvalues --    0.82344   0.82444   0.85660   0.87254   0.87339
  Beta virt. eigenvalues --    0.91712   0.91750   0.92918   0.93571   0.93740
  Beta virt. eigenvalues --    0.94708   0.95071   0.96774   0.99181   1.03320
  Beta virt. eigenvalues --    1.03992   1.08060   1.10089   1.11432   1.13483
  Beta virt. eigenvalues --    1.13917   1.16248   1.16566   1.19683   1.19843
  Beta virt. eigenvalues --    1.19970   1.22474   1.24417   1.25802   1.26642
  Beta virt. eigenvalues --    1.26764   1.27636   1.29651   1.30100   1.30523
  Beta virt. eigenvalues --    1.31506   1.33431   1.35072   1.38615   1.40558
  Beta virt. eigenvalues --    1.44189   1.44258   1.44949   1.46832   1.50414
  Beta virt. eigenvalues --    1.50911   1.51086   1.52144   1.53020   1.53159
  Beta virt. eigenvalues --    1.60632   1.62533   1.66304   1.72992   1.74468
  Beta virt. eigenvalues --    2.18850   2.21599   2.22047   2.29625   2.30405
  Beta virt. eigenvalues --    2.30448   2.31117   2.32567   2.42316   2.43571
  Beta virt. eigenvalues --    2.45130   2.47537   2.51989   2.53481   2.54175
  Beta virt. eigenvalues --    2.55988   2.56894   2.58765   2.59756   2.60581
  Beta virt. eigenvalues --    2.61942   2.68578   2.70003   2.73031   2.76034
  Beta virt. eigenvalues --    2.77820   2.78287   2.79124   2.81221   2.81750
  Beta virt. eigenvalues --    2.83755   2.83900   2.85503   2.88208   2.93125
  Beta virt. eigenvalues --    2.95192   2.95536   2.97566   2.98412   2.99199
  Beta virt. eigenvalues --    3.00496   3.01803   3.03427   3.04775   3.05483
  Beta virt. eigenvalues --    3.06827   3.07895   3.11406   3.11674   3.11830
  Beta virt. eigenvalues --    3.12241   3.13934   3.15031   3.16459   3.23685
  Beta virt. eigenvalues --    3.24049   3.25217   3.26335   3.29004   3.29324
  Beta virt. eigenvalues --    3.32095   3.32944   3.34118   3.37908   3.38118
  Beta virt. eigenvalues --    3.41315   3.41634   3.42227   3.43154   3.46324
  Beta virt. eigenvalues --    3.46877   3.47789   3.48194   3.49968   3.52657
  Beta virt. eigenvalues --    3.54795   3.58936   3.59823   3.63839   3.65137
  Beta virt. eigenvalues --    3.65895   3.66976   3.67252   3.68713   3.70276
  Beta virt. eigenvalues --    3.72188   3.74935   3.77512   3.79908   3.81098
  Beta virt. eigenvalues --    3.86235   3.86408   3.88547   3.91260   3.92163
  Beta virt. eigenvalues --    3.94987   3.96655   3.98425   3.99341   4.02295
  Beta virt. eigenvalues --    4.05078   4.05432   4.06447   4.06958   4.08657
  Beta virt. eigenvalues --    4.10554   4.10633   4.12237   4.13380   4.14395
  Beta virt. eigenvalues --    4.15048   4.17297   4.17903   4.20735   4.21824
  Beta virt. eigenvalues --    4.24275   4.25117   4.25456   4.26266   4.28605
  Beta virt. eigenvalues --    4.31862   4.35950   4.39450   4.40027   4.45909
  Beta virt. eigenvalues --    4.58221   4.58351   4.60783   4.61038   4.61689
  Beta virt. eigenvalues --    4.62128   4.72695   4.74311   4.76562   4.76784
  Beta virt. eigenvalues --    4.78274   4.79485   4.80621   4.82350   4.89743
  Beta virt. eigenvalues --    4.89924   4.96154   4.98648   5.06519   5.08006
  Beta virt. eigenvalues --    5.09999   5.10582   5.11607   5.14328   5.17229
  Beta virt. eigenvalues --    5.17961   5.18913   5.20489   5.22078   5.24374
  Beta virt. eigenvalues --    5.26133   5.26862   5.28357   5.30810   5.32838
  Beta virt. eigenvalues --    5.34200   5.37686   5.38944   5.43162   5.48873
  Beta virt. eigenvalues --    5.49908   5.52437   5.86965   5.87616   5.89623
  Beta virt. eigenvalues --    5.90572   5.91732   5.94043   5.94665   9.37865
  Beta virt. eigenvalues --   11.83103  13.21965  13.28493  13.28886
          Condensed to atoms (all electrons):
               1          2          3          4          5          6
     1  C    4.907767   0.363790  -0.053800  -0.053800  -0.062982   0.395114
     2  C    0.363790   4.864979   0.351243   0.351243   0.352432  -0.035526
     3  C   -0.053800   0.351243   4.899322  -0.055468  -0.056675  -0.005527
     4  C   -0.053800   0.351243  -0.055468   4.899322  -0.056675   0.008559
     5  C   -0.062982   0.352432  -0.056675  -0.056675   5.258935  -0.002869
     6  H    0.395114  -0.035526  -0.005527   0.008559  -0.002869   0.603382
     7  H    0.395114  -0.035526   0.008559  -0.005527  -0.002869  -0.028785
     8  H    0.390786  -0.032853  -0.005713  -0.005714   0.009625  -0.028091
     9  H   -0.001778  -0.044925  -0.008284   0.008436   0.396728   0.004410
    10  H   -0.001778  -0.044925   0.008436  -0.008284   0.396728  -0.000202
    11  H   -0.006041  -0.033652   0.008435   0.398693  -0.006479  -0.000138
    12  H    0.008737  -0.034345  -0.005427   0.397770  -0.001354  -0.000560
    13  H   -0.004560  -0.036111  -0.006344   0.397934   0.008278  -0.000198
    14  H   -0.006041  -0.033652   0.398693   0.008435  -0.006479   0.004293
    15  H   -0.004560  -0.036111   0.397934  -0.006344   0.008278  -0.000370
    16  H    0.008737  -0.034345   0.397770  -0.005427  -0.001354  -0.000213
               7          8          9         10         11         12
     1  C    0.395114   0.390786  -0.001778  -0.001778  -0.006041   0.008737
     2  C   -0.035526  -0.032853  -0.044925  -0.044925  -0.033652  -0.034345
     3  C    0.008559  -0.005713  -0.008284   0.008436   0.008435  -0.005427
     4  C   -0.005527  -0.005714   0.008436  -0.008284   0.398693   0.397770
     5  C   -0.002869   0.009625   0.396728   0.396728  -0.006479  -0.001354
     6  H   -0.028785  -0.028091   0.004410  -0.000202  -0.000138  -0.000560
     7  H    0.603382  -0.028091  -0.000202   0.004410   0.004293  -0.000213
     8  H   -0.028091   0.606496  -0.000376  -0.000376  -0.000163  -0.000257
     9  H   -0.000202  -0.000376   0.599193  -0.042971  -0.000161  -0.000040
    10  H    0.004410  -0.000376  -0.042971   0.599193   0.004455  -0.000184
    11  H    0.004293  -0.000163  -0.000161   0.004455   0.608960  -0.028912
    12  H   -0.000213  -0.000257  -0.000040  -0.000184  -0.028912   0.601698
    13  H   -0.000370   0.003519  -0.000606  -0.000215  -0.030381  -0.029030
    14  H   -0.000138  -0.000163   0.004455  -0.000161  -0.000564  -0.000136
    15  H   -0.000198   0.003519  -0.000215  -0.000606  -0.000156  -0.000149
    16  H   -0.000560  -0.000257  -0.000184  -0.000040  -0.000136   0.004616
              13         14         15         16
     1  C   -0.004560  -0.006041  -0.004560   0.008737
     2  C   -0.036111  -0.033652  -0.036111  -0.034345
     3  C   -0.006344   0.398693   0.397934   0.397770
     4  C    0.397934   0.008435  -0.006344  -0.005427
     5  C    0.008278  -0.006479   0.008278  -0.001354
     6  H   -0.000198   0.004293  -0.000370  -0.000213
     7  H   -0.000370  -0.000138  -0.000198  -0.000560
     8  H    0.003519  -0.000163   0.003519  -0.000257
     9  H   -0.000606   0.004455  -0.000215  -0.000184
    10  H   -0.000215  -0.000161  -0.000606  -0.000040
    11  H   -0.030381  -0.000564  -0.000156  -0.000136
    12  H   -0.029030  -0.000136  -0.000149   0.004616
    13  H    0.612986  -0.000156   0.004435  -0.000149
    14  H   -0.000156   0.608960  -0.030380  -0.028912
    15  H    0.004435  -0.030380   0.612986  -0.029030
    16  H   -0.000149  -0.028912  -0.029030   0.601698
          Atomic-Atomic Spin Densities.
               1          2          3          4          5          6
     1  C    0.066764   0.017075  -0.001020  -0.001020  -0.034732  -0.003011
     2  C    0.017075  -0.014770   0.006495   0.006495  -0.036187  -0.000574
     3  C   -0.001020   0.006495   0.009173   0.001382  -0.007516   0.000069
     4  C   -0.001020   0.006495   0.001382   0.009173  -0.007516   0.000018
     5  C   -0.034732  -0.036187  -0.007516  -0.007516   1.047281   0.002618
     6  H   -0.003011  -0.000574   0.000069   0.000018   0.002618  -0.002334
     7  H   -0.003011  -0.000574   0.000018   0.000069   0.002618   0.000645
     8  H   -0.007765  -0.005100   0.000033   0.000033   0.004400   0.001830
     9  H   -0.003562   0.002201   0.000180   0.000068   0.005790   0.000341
    10  H   -0.003562   0.002201   0.000068   0.000180   0.005790   0.000169
    11  H   -0.000664   0.000720   0.000025   0.000023  -0.000047   0.000016
    12  H    0.000875  -0.002580  -0.000739  -0.003092   0.005543  -0.000029
    13  H    0.001366  -0.000078  -0.000476  -0.000637  -0.000027  -0.000029
    14  H   -0.000664   0.000720   0.000023   0.000025  -0.000047   0.000050
    15  H    0.001366  -0.000078  -0.000637  -0.000476  -0.000027  -0.000084
    16  H    0.000875  -0.002580  -0.003092  -0.000739   0.005543  -0.000075
               7          8          9         10         11         12
     1  C   -0.003011  -0.007765  -0.003562  -0.003562  -0.000664   0.000875
     2  C   -0.000574  -0.005100   0.002201   0.002201   0.000720  -0.002580
     3  C    0.000018   0.000033   0.000180   0.000068   0.000025  -0.000739
     4  C    0.000069   0.000033   0.000068   0.000180   0.000023  -0.003092
     5  C    0.002618   0.004400   0.005790   0.005790  -0.000047   0.005543
     6  H    0.000645   0.001830   0.000341   0.000169   0.000016  -0.000029
     7  H   -0.002334   0.001830   0.000169   0.000341   0.000050  -0.000075
     8  H    0.001830   0.025042   0.000321   0.000321   0.000185  -0.000262
     9  H    0.000169   0.000321  -0.024734   0.006252   0.000025  -0.000160
    10  H    0.000341   0.000321   0.006252  -0.024734   0.000192  -0.000350
    11  H    0.000050   0.000185   0.000025   0.000192   0.000080  -0.000136
    12  H   -0.000075  -0.000262  -0.000160  -0.000350  -0.000136   0.001489
    13  H   -0.000084  -0.001109   0.000003  -0.000089  -0.000302   0.001146
    14  H    0.000016   0.000185   0.000192   0.000025   0.000004  -0.000032
    15  H   -0.000029  -0.001109  -0.000089   0.000003  -0.000006   0.000235
    16  H   -0.000029  -0.000262  -0.000350  -0.000160  -0.000032   0.000586
              13         14         15         16
     1  C    0.001366  -0.000664   0.001366   0.000875
     2  C   -0.000078   0.000720  -0.000078  -0.002580
     3  C   -0.000476   0.000023  -0.000637  -0.003092
     4  C   -0.000637   0.000025  -0.000476  -0.000739
     5  C   -0.000027  -0.000047  -0.000027   0.005543
     6  H   -0.000029   0.000050  -0.000084  -0.000075
     7  H   -0.000084   0.000016  -0.000029  -0.000029
     8  H   -0.001109   0.000185  -0.001109  -0.000262
     9  H    0.000003   0.000192  -0.000089  -0.000350
    10  H   -0.000089   0.000025   0.000003  -0.000160
    11  H   -0.000302   0.000004  -0.000006  -0.000032
    12  H    0.001146  -0.000032   0.000235   0.000586
    13  H   -0.000181  -0.000006   0.000084   0.000235
    14  H   -0.000006   0.000080  -0.000302  -0.000136
    15  H    0.000084  -0.000302  -0.000180   0.001146
    16  H    0.000235  -0.000136   0.001146   0.001489
 Mulliken charges and spin densities:
               1          2
     1  C   -0.274703   0.029308
     2  C    0.118284  -0.026614
     3  C   -0.273155   0.003987
     4  C   -0.273155   0.003987
     5  C   -0.233267   0.993485
     6  H    0.086722  -0.000380
     7  H    0.086722  -0.000380
     8  H    0.088109   0.018573
     9  H    0.086519  -0.013354
    10  H    0.086520  -0.013354
    11  H    0.081948   0.000134
    12  H    0.087786   0.002419
    13  H    0.080968  -0.000183
    14  H    0.081948   0.000134
    15  H    0.080968  -0.000183
    16  H    0.087786   0.002419
 Sum of Mulliken charges =  -0.00000   1.00000
 Mulliken charges and spin densities with hydrogens summed into heavy atoms:
               1          2
     1  C   -0.013150   0.047122
     2  C    0.118284  -0.026614
     3  C   -0.022453   0.006358
     4  C   -0.022453   0.006358
     5  C   -0.060228   0.966777
 APT charges:
               1
     1  C   -0.974655
     2  C    0.097580
     3  C   -0.990381
     4  C   -0.990381
     5  C   -0.653999
     6  H    0.321023
     7  H    0.321022
     8  H    0.319787
     9  H    0.311559
    10  H    0.311559
    11  H    0.321454
    12  H    0.330042
    13  H    0.311948
    14  H    0.321454
    15  H    0.311948
    16  H    0.330042
 Sum of APT charges =  -0.00000
 APT charges with hydrogens summed into heavy atoms:
               1
     1  C   -0.012823
     2  C    0.097580
     3  C   -0.026938
     4  C   -0.026938
     5  C   -0.030881
 Electronic spatial extent (au):  <R**2>=            470.7359
 Charge=             -0.0000 electrons
 Dipole moment (field-independent basis, Debye):
    X=             -0.0000    Y=              0.2998    Z=             -0.6054  Tot=              0.6755
 Quadrupole moment (field-independent basis, Debye-Ang):
   XX=            -35.1126   YY=            -34.8747   ZZ=            -36.7384
   XY=             -0.0000   XZ=             -0.0000   YZ=              0.3478
 Traceless Quadrupole moment (field-independent basis, Debye-Ang):
   XX=              0.4627   YY=              0.7005   ZZ=             -1.1632
   XY=             -0.0000   XZ=             -0.0000   YZ=              0.3478
 Octapole moment (field-independent basis, Debye-Ang**2):
  XXX=             -0.0002  YYY=             -0.0714  ZZZ=             -7.3801  XYY=              0.0001
  XXY=              3.0447  XXZ=              0.4383  XZZ=              0.0000  YZZ=             -1.5633
  YYZ=              1.0268  XYZ=             -0.0000
 Hexadecapole moment (field-independent basis, Debye-Ang**3):
 XXXX=           -235.4531 YYYY=           -236.3398 ZZZZ=           -225.7632 XXXY=             -0.0001
 XXXZ=             -0.0000 YYYX=              0.0001 YYYZ=             -0.9399 ZZZX=             -0.0000
 ZZZY=              1.3422 XXYY=            -77.2384 XXZZ=            -76.2846 YYZZ=            -73.2760
 XXYZ=              0.4851 YYXZ=              0.0000 ZZXY=             -0.0001
 N-N= 1.877636637850D+02 E-N=-8.306323789821D+02  KE= 1.953785676175D+02
  Exact polarizability:       0.000       0.000       0.000       0.000       0.000       0.000
 Approx polarizability:      86.889       0.000      85.176      -0.000       1.903      88.067
                          Isotropic Fermi Contact Couplings
        Atom                 a.u.       MegaHertz       Gauss      10(-4) cm-1
     1  C(13)              0.04877      54.82165      19.56173      18.28653
     2  C(13)             -0.00838      -9.42018      -3.36135      -3.14223
     3  C(13)              0.00800       8.99499       3.20964       3.00041
     4  C(13)              0.00800       8.99460       3.20950       3.00028
     5  C(13)              0.24378     274.05387      97.78924      91.41453
     6  H(1)              -0.00018      -0.78356      -0.27959      -0.26137
     7  H(1)              -0.00018      -0.78348      -0.27957      -0.26134
     8  H(1)               0.00723      32.33747      11.53881      10.78662
     9  H(1)              -0.00222      -9.91561      -3.53814      -3.30749
    10  H(1)              -0.00222      -9.91560      -3.53813      -3.30749
    11  H(1)              -0.00024      -1.05681      -0.37710      -0.35251
    12  H(1)              -0.00023      -1.02468      -0.36563      -0.34180
    13  H(1)               0.00002       0.06887       0.02457       0.02297
    14  H(1)              -0.00024      -1.05681      -0.37710      -0.35251
    15  H(1)               0.00002       0.06900       0.02462       0.02301
    16  H(1)              -0.00023      -1.02468      -0.36563      -0.34180
 --------------------------------------------------------
       Center         ----  Spin Dipole Couplings  ----
                      3XX-RR        3YY-RR        3ZZ-RR
 --------------------------------------------------------
     1   Atom       -0.031485     -0.015893      0.047378
     2   Atom       -0.024337     -0.018395      0.042732
     3   Atom        0.001571     -0.004859      0.003288
     4   Atom        0.001570     -0.004858      0.003288
     5   Atom       -0.521053      0.281768      0.239285
     6   Atom       -0.002767     -0.001589      0.004355
     7   Atom       -0.002766     -0.001589      0.004355
     8   Atom       -0.005522     -0.001544      0.007066
     9   Atom        0.029604     -0.002006     -0.027597
    10   Atom        0.029609     -0.002012     -0.027597
    11   Atom        0.004947     -0.004467     -0.000480
    12   Atom       -0.002760      0.005806     -0.003046
    13   Atom       -0.002141     -0.000110      0.002251
    14   Atom        0.004947     -0.004467     -0.000480
    15   Atom       -0.002141     -0.000110      0.002251
    16   Atom       -0.002759      0.005805     -0.003046
 --------------------------------------------------------
                        XY            XZ            YZ
 --------------------------------------------------------
     1   Atom       -0.000000      0.000000     -0.037202
     2   Atom       -0.000000      0.000000     -0.000757
     3   Atom       -0.008236     -0.013416      0.008873
     4   Atom        0.008236      0.013416      0.008874
     5   Atom       -0.000021      0.000020     -0.783729
     6   Atom        0.006359     -0.005580     -0.006020
     7   Atom       -0.006359      0.005580     -0.006019
     8   Atom       -0.000000     -0.000000      0.002491
     9   Atom        0.050719      0.024888     -0.014935
    10   Atom       -0.050717     -0.024887     -0.014936
    11   Atom        0.003473      0.007056      0.002080
    12   Atom        0.008495      0.003633      0.005420
    13   Atom        0.002152      0.002495      0.003857
    14   Atom       -0.003473     -0.007057      0.002079
    15   Atom       -0.002152     -0.002496      0.003857
    16   Atom       -0.008496     -0.003633      0.005420
 --------------------------------------------------------


 ---------------------------------------------------------------------------------
              Anisotropic Spin Dipole Couplings in Principal Axis System
 ---------------------------------------------------------------------------------

       Atom             a.u.   MegaHertz   Gauss  10(-4) cm-1        Axes

              Baa    -0.0331    -4.441    -1.585    -1.481 -0.0000  0.9077  0.4196
     1 C(13)  Bbb    -0.0315    -4.225    -1.508    -1.409  1.0000  0.0000 -0.0000
              Bcc     0.0646     8.666     3.092     2.891  0.0000 -0.4196  0.9077
 
              Baa    -0.0243    -3.266    -1.165    -1.089  1.0000  0.0000  0.0000
     2 C(13)  Bbb    -0.0184    -2.470    -0.881    -0.824 -0.0000  0.9999  0.0124
              Bcc     0.0427     5.736     2.047     1.913  0.0000 -0.0124  0.9999
 
              Baa    -0.0110    -1.479    -0.528    -0.493  0.6984 -0.0891  0.7101
     3 C(13)  Bbb    -0.0104    -1.399    -0.499    -0.467  0.3560  0.9040 -0.2367
              Bcc     0.0214     2.878     1.027     0.960 -0.6209  0.4181  0.6631
 
              Baa    -0.0110    -1.479    -0.528    -0.493 -0.6984 -0.0891  0.7101
     4 C(13)  Bbb    -0.0104    -1.399    -0.499    -0.467 -0.3560  0.9040 -0.2367
              Bcc     0.0214     2.878     1.027     0.960  0.6209  0.4181  0.6631
 
              Baa    -0.5235   -70.247   -25.066   -23.432 -0.0000  0.6975  0.7166
     5 C(13)  Bbb    -0.5211   -69.920   -24.949   -23.323  1.0000  0.0000  0.0000
              Bcc     1.0445   140.168    50.015    46.755 -0.0000  0.7166 -0.6975
 
              Baa    -0.0086    -4.569    -1.630    -1.524  0.7428 -0.6694  0.0089
     6 H(1)   Bbb    -0.0039    -2.095    -0.747    -0.699  0.4709  0.5318  0.7039
              Bcc     0.0125     6.664     2.378     2.223 -0.4759 -0.5187  0.7103
 
              Baa    -0.0086    -4.569    -1.630    -1.524  0.7428  0.6695 -0.0089
     7 H(1)   Bbb    -0.0039    -2.095    -0.747    -0.699 -0.4709  0.5318  0.7039
              Bcc     0.0125     6.664     2.378     2.223  0.4760 -0.5186  0.7103
 
              Baa    -0.0055    -2.946    -1.051    -0.983  1.0000  0.0000  0.0000
     8 H(1)   Bbb    -0.0022    -1.181    -0.421    -0.394 -0.0000  0.9658 -0.2593
              Bcc     0.0077     4.127     1.473     1.377 -0.0000  0.2593  0.9658
 
              Baa    -0.0613   -32.687   -11.664   -10.903 -0.5023  0.5894  0.6327
     9 H(1)   Bbb    -0.0071    -3.769    -1.345    -1.257  0.2828 -0.5795  0.7643
              Bcc     0.0683    36.456    13.008    12.160  0.8171  0.5629  0.1244
 
              Baa    -0.0613   -32.687   -11.664   -10.903  0.5022  0.5894  0.6327
    10 H(1)   Bbb    -0.0071    -3.769    -1.345    -1.257 -0.2828 -0.5795  0.7643
              Bcc     0.0683    36.456    13.008    12.160  0.8172 -0.5628 -0.1244
 
              Baa    -0.0057    -3.038    -1.084    -1.013 -0.4866  0.8059  0.3371
    11 H(1)   Bbb    -0.0052    -2.756    -0.983    -0.919 -0.3526 -0.5343  0.7683
              Bcc     0.0109     5.794     2.067     1.933  0.7993  0.2550  0.5442
 
              Baa    -0.0080    -4.276    -1.526    -1.426  0.8639 -0.4952 -0.0915
    12 H(1)   Bbb    -0.0056    -2.976    -1.062    -0.993 -0.1084 -0.3603  0.9265
              Bcc     0.0136     7.252     2.588     2.419  0.4918  0.7906  0.3649
 
              Baa    -0.0035    -1.871    -0.668    -0.624  0.8605 -0.5084 -0.0324
    13 H(1)   Bbb    -0.0029    -1.530    -0.546    -0.510 -0.3602 -0.6521  0.6671
              Bcc     0.0064     3.401     1.213     1.134  0.3603  0.5624  0.7443
 
              Baa    -0.0057    -3.038    -1.084    -1.013  0.4866  0.8060  0.3371
    14 H(1)   Bbb    -0.0052    -2.756    -0.983    -0.919  0.3526 -0.5342  0.7683
              Bcc     0.0109     5.794     2.067     1.933  0.7993 -0.2550 -0.5442
 
              Baa    -0.0035    -1.871    -0.668    -0.624  0.8605  0.5084  0.0324
    15 H(1)   Bbb    -0.0029    -1.530    -0.546    -0.510  0.3602 -0.6521  0.6671
              Bcc     0.0064     3.401     1.213     1.134 -0.3603  0.5623  0.7443
 
              Baa    -0.0080    -4.276    -1.526    -1.426  0.8639  0.4953  0.0915
    16 H(1)   Bbb    -0.0056    -2.976    -1.062    -0.993  0.1084 -0.3602  0.9265
              Bcc     0.0136     7.252     2.588     2.419 -0.4918  0.7905  0.3649
 

 ---------------------------------------------------------------------------------

 No NMR shielding tensors so no spin-rotation constants.
 Leave Link  601 at Tue Apr 12 16:03:43 2022, MaxMem=  1073741824 cpu:               2.8 elap:               0.4
 (Enter /home/saurabh/gaussian/g16/l701.exe)
 ... and contract with generalized density number  0.
 Compute integral second derivatives.
 Leave Link  701 at Tue Apr 12 16:03:43 2022, MaxMem=  1073741824 cpu:               1.8 elap:               0.2
 (Enter /home/saurabh/gaussian/g16/l702.exe)
 L702 exits ... SP integral derivatives will be done elsewhere.
 Leave Link  702 at Tue Apr 12 16:03:43 2022, MaxMem=  1073741824 cpu:               0.2 elap:               0.0
 (Enter /home/saurabh/gaussian/g16/l703.exe)
 Integral derivatives from FoFJK, PRISM(SPDF).
 Compute integral second derivatives, UseDBF=F ICtDFT=           0.
 Calling FoFJK, ICntrl=    100127 FMM=F ISym2X=0 I1Cent= 0 IOpClX= 1 NMat=1 NMatS=1 NMatT=0.
 FoFJK:  IHMeth= 1 ICntrl=  100127 DoSepK=F KAlg= 0 I1Cent=           0 FoldK=F
 IRaf=         0 NMat=       1 IRICut=       1 DoRegI=T DoRafI=F ISym2E= 0 IDoP0=0 IntGTp=1.
 FoFCou: FMM=F IPFlag=           0 FMFlag=      100000 FMFlg1=         800
         NFxFlg=           0 DoJE=F BraDBF=F KetDBF=F FulRan=T
         wScrn=  0.000000 ICntrl=    100127 IOpCl=  1 I1Cent=           0 NGrid=           0
         NMat0=    1 NMatS0=      1 NMatT0=    0 NMatD0=    1 NMtDS0=    0 NMtDT0=    0
 Symmetry not used in FoFCou.
 Leave Link  703 at Tue Apr 12 16:06:40 2022, MaxMem=  1073741824 cpu:            1415.3 elap:             176.9
 (Enter /home/saurabh/gaussian/g16/l716.exe)
 Dipole        =-2.67902620D-06 1.17942502D-01-2.38174210D-01
 Polarizability= 0.00000000D+00 0.00000000D+00 0.00000000D+00
                 0.00000000D+00 0.00000000D+00 0.00000000D+00
 ***** Axes restored to original set *****
 -------------------------------------------------------------------
 Center     Atomic                   Forces (Hartrees/Bohr)
 Number     Number              X              Y              Z
 -------------------------------------------------------------------
      1        6           0.000858221    0.010787218    0.002936167
      2        6           0.006334563   -0.013028620   -0.013395506
      3        6          -0.008261700   -0.003631923   -0.003520853
      4        6           0.003769900   -0.007040047    0.005483862
      5        6          -0.011627466    0.039445041    0.030465981
      6        1           0.005263942   -0.008294106    0.007547050
      7        1          -0.010905345   -0.003714048   -0.004554121
      8        1           0.007350625    0.003609973   -0.008455350
      9        1           0.007353500   -0.016167894   -0.004595164
     10        1          -0.003003203   -0.013234165   -0.012346186
     11        1          -0.009786366   -0.005295127   -0.004990295
     12        1          -0.002897477    0.009080798    0.008721097
     13        1           0.008164071    0.003534919   -0.007969266
     14        1           0.004870452   -0.009446788    0.005979061
     15        1           0.006702835    0.003948849   -0.009062832
     16        1          -0.004186551    0.009445919    0.007756356
 -------------------------------------------------------------------
 Cartesian Forces:  Max     0.039445041 RMS     0.010564517
 FormGI is forming the generalized inverse of G from B-inverse, IUseBI=4.
 Leave Link  716 at Tue Apr 12 16:06:40 2022, MaxMem=  1073741824 cpu:               0.2 elap:               0.0
 (Enter /home/saurabh/gaussian/g16/l103.exe)

 GradGradGradGradGradGradGradGradGradGradGradGradGradGradGradGradGradGrad
 Berny optimization.
 Red2BG is reusing G-inverse.
 Internal  Forces:  Max     0.013877803 RMS     0.005914590
 Search for a local minimum.
 Step number   1 out of a maximum of  100
 All quantities printed in internal units (Hartrees-Bohrs-Radians)
 RMS Force = .59146D-02 SwitMx=.10000D-02 MixMth= 1
 Mixed Optimization -- RFO/linear search
 Second derivative matrix not updated -- analytic derivatives used.
 ITU=  0
     Eigenvalues ---    0.00197   0.00302   0.00329   0.00339   0.03624
     Eigenvalues ---    0.04237   0.04417   0.04468   0.04480   0.04519
     Eigenvalues ---    0.04528   0.04567   0.04613   0.04680   0.10913
     Eigenvalues ---    0.11138   0.11779   0.11882   0.12391   0.12734
     Eigenvalues ---    0.13786   0.13867   0.14581   0.14652   0.15002
     Eigenvalues ---    0.17102   0.17743   0.24415   0.25988   0.26567
     Eigenvalues ---    0.29214   0.29247   0.29302   0.29510   0.29523
     Eigenvalues ---    0.29551   0.29749   0.29750   0.30084   0.30388
     Eigenvalues ---    0.30391   0.31160
 RFO step:  Lambda=-1.60660227D-02 EMin= 1.97412041D-03
 Linear search not attempted -- first point.
 Iteration  1 RMS(Cart)=  0.04004928 RMS(Int)=  0.00584593
 Iteration  2 RMS(Cart)=  0.00500926 RMS(Int)=  0.00385475
 Iteration  3 RMS(Cart)=  0.00005913 RMS(Int)=  0.00385448
 Iteration  4 RMS(Cart)=  0.00000110 RMS(Int)=  0.00385448
 Iteration  5 RMS(Cart)=  0.00000002 RMS(Int)=  0.00385448
 ITry= 1 IFail=0 DXMaxC= 1.25D-01 DCOld= 1.00D+10 DXMaxT= 3.00D-01 DXLimC= 3.00D+00 Rises=F
 Variable       Old X    -DE/DX   Delta X   Delta X   Delta X     New X
                                 (Linear)    (Quad)   (Total)
    R1        2.90925  -0.00043   0.00000   0.01284   0.01284   2.92209
    R2        2.10050  -0.01228   0.00000  -0.03921  -0.03921   2.06130
    R3        2.10050  -0.01228   0.00000  -0.03921  -0.03921   2.06130
    R4        2.10045  -0.01177   0.00000  -0.03509  -0.03509   2.06536
    R5        2.90719   0.00010   0.00000   0.00049   0.00049   2.90768
    R6        2.90719   0.00010   0.00000   0.00050   0.00050   2.90768
    R7        2.90025  -0.01060   0.00000  -0.06731  -0.06731   2.83294
    R8        2.10066  -0.01214   0.00000  -0.03781  -0.03781   2.06286
    R9        2.10054  -0.01187   0.00000  -0.03761  -0.03761   2.06292
   R10        2.10074  -0.01287   0.00000  -0.03982  -0.03982   2.06093
   R11        2.10066  -0.01214   0.00000  -0.03781  -0.03781   2.06286
   R12        2.10074  -0.01287   0.00000  -0.03982  -0.03982   2.06093
   R13        2.10054  -0.01187   0.00000  -0.03761  -0.03761   2.06292
   R14        2.10052  -0.01228   0.00000  -0.04917  -0.04917   2.05135
   R15        2.10052  -0.01228   0.00000  -0.04917  -0.04917   2.05135
    A1        1.93122   0.00214   0.00000   0.00795   0.00793   1.93915
    A2        1.93122   0.00214   0.00000   0.00795   0.00793   1.93915
    A3        1.93086  -0.00132   0.00000  -0.00511  -0.00509   1.92577
    A4        1.88953  -0.00165   0.00000  -0.00366  -0.00371   1.88581
    A5        1.88983  -0.00072   0.00000  -0.00379  -0.00378   1.88605
    A6        1.88983  -0.00072   0.00000  -0.00379  -0.00378   1.88605
    A7        1.91485   0.00055   0.00000  -0.00615  -0.00611   1.90874
    A8        1.91485   0.00055   0.00000  -0.00615  -0.00611   1.90874
    A9        1.91500  -0.00303   0.00000  -0.01642  -0.01634   1.89866
   A10        1.91086  -0.00096   0.00000   0.00245   0.00229   1.91315
   A11        1.90409   0.00145   0.00000   0.01326   0.01313   1.91722
   A12        1.90409   0.00145   0.00000   0.01326   0.01313   1.91722
   A13        1.93213   0.00117   0.00000   0.00534   0.00533   1.93746
   A14        1.93129   0.00141   0.00000   0.00422   0.00421   1.93550
   A15        1.93020   0.00113   0.00000   0.00520   0.00519   1.93539
   A16        1.88884  -0.00133   0.00000  -0.00550  -0.00550   1.88333
   A17        1.88925  -0.00126   0.00000  -0.00573  -0.00574   1.88350
   A18        1.89077  -0.00128   0.00000  -0.00417  -0.00418   1.88659
   A19        1.93213   0.00117   0.00000   0.00534   0.00533   1.93746
   A20        1.93020   0.00113   0.00000   0.00520   0.00519   1.93539
   A21        1.93129   0.00141   0.00000   0.00422   0.00421   1.93550
   A22        1.88925  -0.00126   0.00000  -0.00573  -0.00574   1.88350
   A23        1.88884  -0.00133   0.00000  -0.00550  -0.00550   1.88333
   A24        1.89077  -0.00128   0.00000  -0.00417  -0.00418   1.88659
   A25        1.94189   0.01388   0.00000   0.10672   0.09031   2.03220
   A26        1.94189   0.01388   0.00000   0.10672   0.09031   2.03220
   A27        1.90083  -0.00236   0.00000   0.10118   0.07953   1.98036
    D1       -1.04449   0.00012   0.00000   0.00056   0.00055  -1.04395
    D2        3.13880   0.00061   0.00000   0.00523   0.00528  -3.13910
    D3        1.04715   0.00036   0.00000   0.00290   0.00291   1.05007
    D4       -3.13879  -0.00061   0.00000  -0.00523  -0.00528   3.13911
    D5        1.04450  -0.00012   0.00000  -0.00056  -0.00055   1.04395
    D6       -1.04715  -0.00036   0.00000  -0.00290  -0.00292  -1.05006
    D7        1.04995  -0.00025   0.00000  -0.00234  -0.00237   1.04758
    D8       -1.04994   0.00025   0.00000   0.00234   0.00237  -1.04758
    D9       -3.14159  -0.00000   0.00000  -0.00000  -0.00000  -3.14159
   D10        1.04301  -0.00091   0.00000  -0.00039  -0.00040   1.04260
   D11       -1.05107  -0.00094   0.00000   0.00025   0.00023  -1.05083
[...]

 Dipole orientation:
     6         -5.17439392          3.40115792          6.29123326
     6         -5.65671866          1.73481350          3.93163233
     6         -8.40643281          0.78996609          3.99032949
     6         -3.83682059         -0.53270426          3.99032447
     6         -5.21216984          3.27066619          1.59985113
     1         -6.43945426          5.02838094          6.31830747
     1         -3.23574609          4.10107013          6.31830379
     1         -5.48920666          2.31352428          8.01889635
     1         -6.69181302          4.45431374          0.83240635
     1         -3.32904990          3.48097334          0.83240910
     1         -1.87233804          0.09563283          3.94862901
     1         -4.14264073         -1.76753306          2.36802058
     1         -4.10802682         -1.64822722          5.70464502
     1         -9.73156559          2.37047951          3.94863820
     1         -8.77300702         -0.29795313          5.70464985
     1         -8.80747859         -0.41729935          2.36802542

 Electric dipole moment (dipole orientation):
 (Debye = 10**-18 statcoulomb cm , SI units = C m)
                  (au)            (Debye)         (10**-30 SI)
   Tot        0.945059D-01      0.240210D+00      0.801255D+00
   x          0.000000D+00      0.000000D+00      0.000000D+00
   y          0.000000D+00      0.000000D+00      0.000000D+00
   z          0.945059D-01      0.240210D+00      0.801255D+00

 Dipole polarizability, Alpha (dipole orientation).
 (esu units = cm**3 , SI units = C**2 m**2 J**-1)
 Alpha(0;0):
               (au)            (10**-24 esu)      (10**-40 SI)
   iso        0.617478D+02      0.915008D+01      0.101808D+02
   aniso      0.220616D+01      0.326920D+00      0.363747D+00
   xx         0.621386D+02      0.920798D+01      0.102453D+02
   yx        -0.390132D+00     -0.578116D-01     -0.643240D-01
   yy         0.609036D+02      0.902499D+01      0.100417D+02
   zx        -0.268800D+00     -0.398321D-01     -0.443192D-01
   zy        -0.928683D+00     -0.137617D+00     -0.153119D+00
   zz         0.622013D+02      0.921728D+01      0.102556D+02

 ----------------------------------------------------------------------
 Unable to Open any file for archive entry.
 1\1\GINC-MEDIAWIKI\Freq\UB3LYP\CC-pVTZ\C5H11(2)\SAURABH\12-Apr-2022\0\
 \#P Geom=AllCheck Guess=TCheck SCRF=Check GenChk UB3LYP/CC-pVTZ Freq\\
 Mol_01\\0,2\C,-4.0264262177,2.2073068241,0.8579201955\C,-3.5898391956,
 1.1066830606,-0.1419997003\C,-4.8398522304,0.541824109,-0.8395910947\C
 ,-2.874313927,-0.0149408612,0.6314442352\C,-2.6631708219,1.7007152424,
 -1.1553442976\H,-4.5423598478,3.0198397782,0.3446617921\H,-3.164341098
 2,2.6294974525,1.3759894962\H,-4.7051845765,1.7937607745,1.6083288141\
 H,-3.051601067,2.2022691398,-2.0316428629\H,-1.605169327,1.7925525956,
 -0.9491106609\H,-1.9826759694,0.3643502568,1.1342840981\H,-2.565395776
 7,-0.8172887692,-0.0401092463\H,-3.5308189975,-0.442985205,1.391586011
 6\H,-5.3631845952,1.3219244629,-1.3957337101\H,-5.5373780861,0.1253992
 113,-0.1101499649\H,-4.5718936235,-0.2489212683,-1.5417994763\\Version
 =ES64L-G16RevC.01\State=2-A\HF=-197.1756083\S2=0.753847\S2-1=0.\S2A=0.
 750009\RMSD=3.219e-09\RMSF=1.688e-05\ZeroPoint=0.1438247\Thermal=0.151
 192\ETot=-197.0244163\HTot=-197.0234721\GTot=-197.0621188\Dipole=-0.05
 26691,0.0166599,0.0766797\DipoleDeriv=0.0700257,0.0170293,0.0206111,-0
 .0106568,0.039656,-0.0012681,0.0101323,-0.0382611,0.0526079,0.0676521,
 -0.0022772,0.0189867,0.0131233,0.1455303,0.0063185,0.0248157,0.0268961
 ,0.0595287,0.0356769,-0.0202882,-0.036834,-0.0217786,0.0677216,-0.0149
 221,-0.0240707,-0.0106119,0.0666739,0.0643565,0.0211657,-0.0147075,0.0
 288705,0.039331,0.0227967,-0.0251189,0.0267898,0.0663849,0.0973785,0.0
 312386,0.0289487,0.0487034,-0.2559702,-0.2036618,0.0355588,-0.1803261,
 -0.0055662,0.0067373,0.091078,-0.0294272,0.0830336,-0.0760129,0.039672
 8,-0.0603009,0.0877577,0.0004476,-0.0796643,-0.0804423,-0.1014146,-0.0
 419944,0.0149211,-0.0518254,-0.0590337,-0.0592863,-0.0040849,-0.032091
 7,-0.0299728,0.1170781,-0.0542681,0.0137559,0.0534861,0.1078827,0.0210
 237,-0.0721701,0.004735,0.024812,-0.0572093,-0.0076335,0.0606749,0.110
 2986,-0.0197466,0.1062416,-0.0401717,-0.1109226,-0.0459474,-0.0064592,
 -0.0296787,0.0962426,0.0549051,-0.0500445,0.0373473,0.0399178,-0.09999
 48,-0.032571,-0.1010607,-0.0800734,0.0158294,-0.0420818,-0.0889861,-0.
 0098301,0.0051803,0.0404056,0.0538941,0.0170965,0.0597191,-0.0767599,-
 0.0619547,0.0429365,-0.1173866,-0.0275648,-0.0308185,-0.0624533,0.1065
 308,-0.0222856,0.0120191,0.0632446,0.0683041,0.086191,-0.0549471,-0.01
 17365,0.0462799,-0.0623689,0.0938922,-0.0628659,0.095867,-0.0744019,0.
 0637623,-0.0043827,-0.0514999,-0.0641389,0.0574323,-0.0658172,0.026486
 9,0.0401883,0.1102267,0.0686699,-0.0487335,0.0297608,0.0525935,0.04279
 72,0.0068441,-0.0605598,-0.1110638,0.0018464,-0.1089773,-0.0331202\Pol
 ar=62.4237255,0.07784,60.5790538,-0.2006838,-0.7369905,62.240699\Quadr
 upole=0.278543,-0.2257614,-0.0527816,0.0895238,0.2764026,-0.3791829\PG
 =C01 [X(C5H11)]\NImag=0\\0.55404150,0.02716034,0.49710066,0.03435285,-
 0.06466083,0.50168400,-0.07581454,0.00763284,0.00735387,0.47447643,0.0
 2156087,-0.10606172,-0.04152168,0.01814415,0.43860888,0.01262540,-0.02
 291160,-0.09801415,0.00475766,-0.03722086,0.45245298,0.00535283,0.0001
 8006,-0.00003576,-0.12960820,-0.02792729,-0.03613107,0.48622827,-0.020
 32229,-0.01454361,-0.01775181,-0.02610587,-0.08873403,-0.01395621,-0.0
 3743953,0.55388326,-0.01974879,-0.01502125,-0.01520523,-0.03118324,-0.
 01008723,-0.09204608,-0.04585007,-0.01928881,0.54455859,-0.00624272,0.
 01319691,-0.00427624,-0.09525481,0.02521916,-0.02001142,-0.01971951,0.
 02007754,-0.01862161,0.54234889,0.01709394,-0.02789906,0.00899392,0.02
 945105,-0.12228211,0.03034004,-0.00193459,0.00858637,-0.00339729,0.041
 46681,0.50467764,0.00915192,-0.01592404,0.00974575,-0.02266826,0.03455
 921,-0.09285119,-0.01289708,0.01145533,-0.01150170,-0.02946919,0.04702
 318,0.53764341,-0.01133862,0.00261609,0.01661893,-0.12983358,-0.034684
 64,0.04666975,-0.02955000,-0.01542041,0.01811274,0.00986901,0.00311567
 ,-0.00674093,0.58150028,0.00919283,0.00934779,-0.00888065,-0.03328596,
 -0.07273192,0.04914885,-0.01224424,-0.00612898,0.00600183,-0.01205956,
 -0.01459476,0.02153688,0.02705299,0.18872505,0.01910814,-0.00009306,-0
 .02520860,0.04719920,0.05101775,-0.12883664,-0.00308336,-0.00352093,0.
 00924848,0.00991363,0.01502693,-0.02170474,0.07563901,-0.20332978,0.45
 242511,-0.10444905,0.08957247,-0.05932373,-0.00596440,0.00606840,-0.00
 393816,0.00034982,-0.00094355,-0.00008861,-0.00033305,0.00116570,0.002
 07759,0.00024611,-0.00007692,-0.00111120,0.11052505,0.08950470,-0.1875
 1207,0.09292208,0.01033791,-0.01708813,0.01074521,0.00063601,0.0007178
 6,0.00152507,0.00091204,-0.00292848,-0.00448732,-0.00135561,0.00065441
 ,0.00113816,-0.10050663,0.20482320,-0.06008148,0.09392157,-0.10812050,
 0.01011826,-0.01542146,0.00939036,0.00076718,0.00020707,0.00112628,0.0
 0114497,-0.00285207,-0.00256588,-0.00007193,-0.00062982,0.00150407,0.0
 6463962,-0.10036983,0.11620309,-0.21374482,-0.07878334,-0.09751577,0.0
 0696178,0.00363433,0.00447530,0.00029857,0.00106492,0.00105108,0.00065
 341,-0.00007705,0.00042436,0.00105383,0.00038976,0.00039460,-0.0119347
 2,-0.00567925,-0.00597408,0.23084741,-0.07804567,-0.08359244,-0.044826
 95,-0.01796321,-0.00941915,-0.01007863,0.00239645,-0.00337110,-0.00295
 169,-0.00155936,0.00106992,-0.00019892,-0.00054945,0.00022904,0.001486
 20,0.01951274,0.01031148,0.01103878,0.08556693,0.08975308,-0.09650448,
 -0.04493137,-0.10274436,-0.01613952,-0.00706496,-0.01120482,0.00239166
 ,-0.00314673,-0.00275487,-0.00039462,0.00124903,0.00047064,-0.00148411
 ,0.00029070,0.00112170,-0.01213772,-0.00606931,-0.00763098,0.10615615,
 0.05263812,0.11095086,-0.14431763,-0.06195313,0.10581417,-0.00674275,-
 0.00360829,0.00633398,0.00040443,-0.00027354,-0.00106214,0.00000105,-0
 .00091516,0.00010936,0.00005335,0.00204473,0.00203349,0.01045888,0.005
 75107,-0.01094447,-0.01539557,-0.00981288,0.01785731,0.15467938,-0.062
 11771,-0.08507327,0.06880696,0.01509894,0.00573660,-0.01763237,0.00062
 587,0.00103752,0.00049007,-0.00000372,0.00142997,-0.00039848,0.0006433
 4,-0.00134720,-0.00174650,-0.01546196,-0.00916286,0.01508846,-0.006439
 82,-0.00523529,0.00820117,0.06801198,0.09222993,0.10575189,0.06858706,
 -0.16291807,0.01341439,0.00736347,-0.01611701,0.00059570,0.00133184,0.
 00066296,-0.00086309,0.00117935,0.00067389,0.00150308,-0.00361897,-0.0
 0238205,0.00950723,0.00562068,-0.01048061,-0.00934656,-0.00616809,0.01
 144627,-0.11943633,-0.07338750,0.17783626,0.00004638,-0.00053434,-0.00
 019584,0.00858610,-0.00848933,0.01388047,0.00176069,-0.00035280,0.0006
 5590,-0.00217484,-0.00087049,0.00182961,-0.09399956,0.04380671,-0.0886
 1271,-0.00003826,0.00028372,-0.00006766,-0.00004376,0.00008812,0.00011
 222,-0.00015136,0.00019977,0.00003233,0.09031970,-0.00042783,-0.000902
 62,0.00071776,0.00432249,-0.00152400,0.00556230,0.00141963,0.00047477,
 0.00059984,-0.00139042,-0.00054419,0.00186699,0.04542361,-0.08244363,0
 .12756885,0.00009706,0.00010310,0.00000294,0.00004278,0.00005265,-0.00
 013098,-0.00011373,0.00018534,0.00030178,-0.04640254,0.08113200,-0.000
 50445,0.00021081,0.00059342,-0.01151588,0.00902245,-0.00954476,-0.0011
 2845,-0.00075003,0.00090743,0.00382072,0.00004210,-0.00187786,-0.08546
 479,0.12280086,-0.22948646,0.00041714,-0.00054934,-0.00013827,0.000051
 27,0.00002054,-0.00006355,0.00020749,-0.00015419,0.00008436,0.09300477
 ,-0.13408082,0.23956011,0.00002881,-0.00030945,-0.00045543,-0.01152434
 ,-0.00076750,-0.00861050,-0.00103310,-0.00073141,0.00379584,0.00076885
 ,0.00102915,-0.00103793,-0.32591992,-0.02544112,-0.05656306,0.00000885
 ,-0.00002874,0.00001156,0.00010861,0.00034796,0.00047682,0.00008003,0.
 00008288,0.00022630,-0.00517779,-0.00265039,0.00066056,0.34223932,-0.0
 0088557,-0.00083523,0.00044498,-0.00823671,0.00145979,-0.00172976,-0.0
 0171709,-0.00058266,0.00130760,-0.00122581,0.00091226,-0.00111052,-0.0
 2949093,-0.02299975,0.01325695,0.00010814,0.00006301,-0.00004239,0.000
 02851,0.00009254,-0.00017146,-0.00018851,0.00022106,0.00023992,0.01265
 676,0.00408911,0.00289963,0.02941146,0.01796873,-0.00032456,0.00032444
 ,0.00054365,0.01880795,0.00194869,0.00758182,0.00123487,0.00112073,-0.
 00298112,0.00056378,-0.00040538,0.00146179,-0.06063180,0.01477420,-0.0
 5700997,0.00010716,-0.00007159,-0.00012653,-0.00019955,-0.00029544,-0.
 00027458,-0.00017022,-0.00008563,-0.00018275,-0.02126112,-0.00234695,-
 0.00043651,0.06117110,-0.01491715,0.05080375,0.00014985,-0.00129417,-0
 .00006023,-0.01351617,-0.00583839,-0.00649503,-0.00050047,0.00376182,-
 0.00134478,-0.21709796,-0.07536210,-0.09492477,0.00039434,-0.00048716,
 0.00134884,0.00039177,0.00009806,0.00017744,0.00027488,0.00080015,0.00
 043003,-0.00008072,0.00003006,-0.00005986,0.00022312,0.00007820,-0.000
 01790,0.00059562,0.00012014,-0.00030990,0.23656774,0.00022607,0.001579
 90,0.00062541,0.01990281,0.00793224,0.01082224,0.00187934,-0.00342790,
 0.00217416,-0.07680896,-0.08080737,-0.04305560,0.00068776,0.00088701,-
 0.00062402,-0.00025380,0.00020896,0.00003827,-0.00017238,-0.00020521,-
 0.00015543,0.00002025,-0.00010861,-0.00008919,0.00002225,0.00007286,-0
 .00022991,-0.00031949,0.00014067,-0.00003625,0.08229486,0.08665546,0.0
 0083864,-0.00073296,0.00031353,-0.01311751,-0.00648116,-0.00901363,-0.
 00078966,0.00346014,-0.00149709,-0.09450212,-0.04215011,-0.10008688,-0
 .00117772,-0.00088904,0.00081988,0.00018784,0.00006248,-0.00008491,0.0
 0008644,0.00025313,0.00053896,0.00009182,0.00008625,0.00001882,0.00037
 296,-0.00005572,0.00013022,0.00069208,0.00033536,-0.00033493,0.1066847
 3,0.04501365,0.10671512,-0.00145736,0.00229483,-0.00217483,-0.00510652
 ,0.01017639,0.00929001,0.00043034,0.00037477,0.00134559,-0.06727302,0.
 05156797,0.04477800,0.00017101,-0.00092552,0.00045062,0.00018621,0.001
 04280,0.00057581,0.00019197,0.00021551,0.00016386,0.00025741,-0.000304
 26,-0.00034955,-0.00001706,0.00001325,-0.00004902,-0.00000670,0.000005
 27,-0.00012143,0.00851883,-0.01964911,-0.01679622,0.06977872,0.0021595
 4,-0.00338996,0.00405278,0.00556169,-0.01772711,-0.01467721,-0.0010062
 4,0.00066983,-0.00089904,0.05179936,-0.18365113,-0.11773700,0.00054337
 ,0.00138028,-0.00108456,0.00078692,-0.00110887,-0.00107496,-0.00012019
 ,0.00034525,0.00019676,0.00003974,0.00032167,-0.00001337,-0.00011747,-
 0.00000163,0.00002870,-0.00029092,-0.00039039,-0.00000189,0.00304361,-
 0.00848962,-0.00684993,-0.05944035,0.20093494,-0.00126839,0.00211974,-
 0.00131745,-0.00486108,0.01263825,0.00998548,0.00048596,0.00037158,0.0
 0093573,0.04551590,-0.11938139,-0.14959053,-0.00031847,0.00004312,0.00
 102784,-0.00038226,0.00068931,0.00087123,0.00010948,0.00018387,-0.0000
 5296,-0.00032796,0.00006650,0.00009689,-0.00010196,-0.00004893,0.00015
 899,0.00007647,-0.00011046,-0.00003243,0.00434875,-0.00951396,-0.00935
 135,-0.04849147,0.12912996,0.16088661,0.00057368,-0.00042931,-0.000369
 95,0.00817773,0.00676877,-0.01076983,0.00117510,0.00030479,-0.00029936
 ,-0.14357669,-0.06082207,0.10931505,-0.00100819,0.00142374,-0.00139244
 ,0.00012978,-0.00019214,-0.00018064,-0.00008044,0.00000141,0.00014610,
 0.00014130,-0.00008283,0.00004024,0.00076224,0.00012780,-0.00054508,0.
 00027586,0.00035751,-0.00005468,-0.01575330,-0.00910292,0.01860358,-0.
 00565846,-0.00313395,0.00493191,0.15468364,-0.00141115,0.00106262,0.00
 057358,-0.01532098,-0.01057804,0.01603145,-0.00104775,0.00050793,-0.00
 077177,-0.05942652,-0.08462055,0.06673497,0.00322204,-0.00247165,0.002
 96260,0.00012216,0.00041501,-0.00024309,0.00001641,-0.00012534,-0.0000
 1857,0.00072385,-0.00027386,-0.00055405,-0.00074455,-0.00053809,0.0009
 8027,0.00011028,-0.00000241,-0.00027460,-0.00683815,-0.00509167,0.0081
 2956,0.01505316,0.01032261,-0.01601416,0.06483172,0.09095527,0.0003172
 0,-0.00145520,0.00051196,0.01016529,0.00642520,-0.01218221,0.00140930,
 -0.00016694,0.00022733,0.10849509,0.06763043,-0.16965460,-0.00266106,0
 .00229137,-0.00143144,-0.00022896,-0.00017785,0.00005656,-0.00010196,-
 0.00000864,0.00003537,-0.00030532,0.00024539,0.00076968,0.00061717,0.0
 0063922,-0.00043718,0.00007938,-0.00016765,0.00005349,-0.00906759,-0.0
 0589639,0.01147284,0.01205989,0.00807091,-0.01374047,-0.11968589,-0.07
 714555,0.18394778,0.00072721,0.00108826,0.00102625,-0.01356550,0.01995
 330,-0.01308655,-0.10293381,0.08662884,-0.06007331,-0.00430929,-0.0035
 2630,-0.00192048,0.00130331,0.00120242,-0.00120132,0.00046250,-0.00066
 457,-0.00014492,0.00002617,-0.00011147,0.00032955,0.00000234,-0.000140
 21,0.00001113,-0.00023618,-0.00046400,0.00083724,0.00028128,-0.0001288
 9,0.00030178,-0.00076761,0.00124425,-0.00128082,0.00021926,-0.00026155
 ,0.00022369,0.00023996,0.00002388,-0.00018485,0.11241636,-0.00040094,0
 .00103633,-0.00002921,-0.00570966,0.00788543,-0.00648979,0.08802311,-0
 .18254467,0.09463733,-0.00161248,-0.00006873,-0.00108355,-0.00006500,0
 .00054871,-0.00027233,-0.00007221,0.00016626,0.00012219,0.00002487,0.0
 0021871,0.00012624,0.00006220,-0.00007893,-0.00006030,0.00027348,0.000
 20491,-0.00009375,0.00014882,0.00009100,-0.00021341,-0.00031322,0.0006
 9622,-0.00023806,-0.00029657,0.00015312,0.00004377,-0.00004826,-0.0000
 3806,-0.00020325,-0.09524950,0.19720075,0.00013912,0.00137063,0.000279
 74,-0.00643446,0.01091816,-0.00891750,-0.06051588,0.09366156,-0.112513
 73,-0.00246374,-0.00232765,-0.00104745,0.00129022,-0.00013091,0.000249
 21,0.00005477,-0.00079434,-0.00002013,0.00023758,-0.00018593,0.0002709
 3,-0.00006766,0.00002160,-0.00009393,-0.00005201,-0.00006739,0.0004326
 3,-0.00000514,-0.00009128,0.00005391,-0.00086375,0.00080943,-0.0001611
 2,-0.00007935,0.00020974,0.00015528,0.00017218,-0.00028718,0.00034811,
 0.06931642,-0.10359766,0.12032121,0.00098725,0.00125366,0.00122642,-0.
 01756272,-0.01065964,0.01811415,-0.14792296,-0.06064239,0.10907916,0.0
 0088050,-0.00052824,0.00167671,-0.00435366,-0.00095778,-0.00343925,0.0
 0002669,-0.00001032,-0.00013781,0.00015885,0.00036582,-0.00014373,0.00
 061071,-0.00033238,-0.00081787,0.00016640,-0.00000023,0.00006385,-0.00
 084083,-0.00083867,0.00096671,0.00045072,0.00009043,-0.00021030,-0.000
 09973,0.00001750,-0.00003731,0.00001427,0.00055288,-0.00091320,0.01059
 939,0.00526843,-0.01081713,0.16236673,-0.00010867,0.00018376,0.0011838
 6,-0.00700999,-0.00593004,0.00861281,-0.06047972,-0.08402444,0.0650922
 1,0.00089417,0.00021746,0.00005939,-0.00246837,0.00008325,-0.00142563,
 -0.00007013,-0.00010610,0.00001979,0.00031320,0.00020051,-0.00010441,0
 .00005201,-0.00005053,-0.00071428,0.00021040,0.00007934,-0.00025645,-0
 .00057287,-0.00018433,0.00034068,0.00005187,-0.00010219,-0.00011322,0.
 00006494,0.00001774,-0.00010514,0.00004958,0.00045775,-0.00013201,-0.0
 1540071,-0.00885158,0.01564176,0.06927383,0.08782230,-0.00034797,0.000
 08045,0.00097725,-0.00980028,-0.00641986,0.00891026,0.11048889,0.06627
 878,-0.16590446,-0.00000550,-0.00045208,0.00081241,-0.00206174,-0.0003
 6998,-0.00064089,0.00009328,-0.00005002,-0.00009100,0.00000364,0.00018
 001,0.00024199,-0.00002150,0.00007775,0.00007694,-0.00008406,-0.000412
 29,0.00008120,-0.00042511,-0.00012871,0.00081212,0.00015944,-0.0001522
 9,0.00020148,0.00001635,0.00010058,-0.00010186,0.00011818,-0.00004748,
 0.00012861,0.00988825,0.00507655,-0.01111994,-0.11985061,-0.07214562,0
 .17939768,-0.00454277,-0.00169175,-0.00198471,0.00629148,-0.01955028,-
 0.01710417,-0.06473201,0.05001912,0.04423160,0.00146018,-0.00085429,0.
 00029604,0.00141227,0.00036508,-0.00068418,-0.00006617,-0.00012902,0.0
 0016817,0.00062383,-0.00125308,-0.00125951,-0.00000084,0.00019003,-0.0
 0020903,-0.00002585,-0.00007568,0.00016254,0.00011544,0.00002441,-0.00
 008010,0.00014935,-0.00006136,0.00031626,-0.00013490,0.00041895,0.0000
 9672,-0.00009649,0.00013272,0.00000552,-0.00446542,0.00996693,0.010088
 82,-0.00548162,0.01520045,0.01182873,0.06949352,-0.00317845,-0.0005010
 9,-0.00065019,0.00318050,-0.00954668,-0.00656649,0.04863597,-0.1825201
 4,-0.11941104,0.00052084,0.00050278,0.00075948,0.00072954,0.00086237,-
 0.00036063,-0.00004840,0.00044322,0.00019454,0.00019031,-0.00032465,-0
 .00090881,0.00015942,0.00016848,-0.00001835,-0.00002969,-0.00043993,0.
 00010913,-0.00001867,-0.00004340,0.00013954,-0.00014558,0.00005926,0.0
 0016964,-0.00019307,0.00061326,-0.00011204,-0.00005384,0.00001849,0.00
 005095,0.00580624,-0.01661947,-0.01515054,-0.00285291,0.01018709,0.008
 38422,-0.05270222,0.19714042,-0.00350506,-0.00088440,-0.00112092,0.003
 90360,-0.00967596,-0.00959294,0.04305778,-0.11930557,-0.15326251,0.001
 15344,-0.00051901,0.00007294,0.00077880,0.00096135,0.00030449,0.000126
 00,-0.00013339,0.00010722,0.00014801,-0.00108638,-0.00035061,-0.000112
 01,0.00032051,0.00050833,-0.00013006,-0.00011660,0.00003625,-0.0000929
 3,-0.00001505,0.00006828,-0.00000541,0.00026988,0.00031906,-0.00061826
 ,0.00054853,0.00006898,-0.00002938,-0.00005598,-0.00010585,-0.00404205
 ,0.01227524,0.01176276,0.00524022,-0.01595377,-0.01378179,-0.04587269,
 0.13337058,0.16496631\\-0.00000270,-0.00001091,-0.00000051,0.00003717,
 0.00004406,-0.00003299,0.00001178,0.00000397,0.00000111,-0.00000222,0.
 00000794,-0.00000937,0.00001302,-0.00004550,-0.00003462,-0.00000392,0.
 00000643,-0.00000423,0.00000694,0.00000335,0.00000389,-0.00000486,-0.0
 0000120,0.00000603,-0.00000528,-0.00000769,0.00004822,-0.00004550,0.00
 000370,0.00001812,0.00000519,0.00000390,0.00000378,0.00000237,-0.00000
 418,-0.00000441,-0.00000733,-0.00000250,0.00000463,-0.00000324,0.00000
 629,-0.00000253,-0.00000348,-0.00000359,0.00000751,0.00000206,-0.00000
 409,-0.00000464\\\@
 The archive entry for this job was punched.


 SILVERMAN'S PARADOX - IF MURPHY'S LAW CAN GO WRONG, IT WILL.
 Job cpu time:       0 days  1 hours  7 minutes  1.9 seconds.
 Elapsed time:       0 days  0 hours  8 minutes 23.2 seconds.
 File lengths (MBytes):  RWF=    212 Int=      0 D2E=      0 Chk=     11 Scr=      1
 Normal termination of Gaussian 16 at Tue Apr 12 16:20:07 2022.
