 Entering Gaussian System, Link 0=g16
 Input=Mol_02.com
 Output=Mol_02.log
 Initial command:
 /home/saurabh/gaussian/g16/l1.exe "/home/saurabh/gaussian/gauss_scr/Gau-24362.inp" -scrdir="/home/saurabh/gaussian/gauss_scr/"
 Entering Link 1 = /home/saurabh/gaussian/g16/l1.exe PID=     24363.
  
 Copyright (c) 1988-2019, Gaussian, Inc.  All Rights Reserved.
  
 This is part of the Gaussian(R) 16 program.  It is based on
 the Gaussian(R) 09 system (copyright 2009, Gaussian, Inc.),
 the Gaussian(R) 03 system (copyright 2003, Gaussian, Inc.),
 the Gaussian(R) 98 system (copyright 1998, Gaussian, Inc.),
 the Gaussian(R) 94 system (copyright 1995, Gaussian, Inc.),
 the Gaussian 92(TM) system (copyright 1992, Gaussian, Inc.),
 the Gaussian 90(TM) system (copyright 1990, Gaussian, Inc.),
 the Gaussian 88(TM) system (copyright 1988, Gaussian, Inc.),
 the Gaussian 86(TM) system (copyright 1986, Carnegie Mellon
 University), and the Gaussian 82(TM) system (copyright 1983,
 Carnegie Mellon University). Gaussian is a federally registered
 trademark of Gaussian, Inc.
  
 This software contains proprietary and confidential information,
 including trade secrets, belonging to Gaussian, Inc.
  
 This software is provided under written license and may be
 used, copied, transmitted, or stored only in accord with that
 written license.
  
 The following legend is applicable only to US Government
 contracts under FAR:
  
                    RESTRICTED RIGHTS LEGEND
  
 Use, reproduction and disclosure by the US Government is
 subject to restrictions as set forth in subparagraphs (a)
 and (c) of the Commercial Computer Software - Restricted
 Rights clause in FAR 52.227-19.
  
 Gaussian, Inc.
 340 Quinnipiac St., Bldg. 40, Wallingford CT 06492
  
  
 ---------------------------------------------------------------
 Warning -- This program may not be used in any manner that
 competes with the business of Gaussian, Inc. or will provide
 assistance to any competitor of Gaussian, Inc.  The licensee
 of this program is prohibited from giving any competitor of
 Gaussian, Inc. access to this program.  By using this program,
 the user acknowledges that Gaussian, Inc. is engaged in the
 business of creating and licensing software in the field of
 computational chemistry and represents and warrants to the
 licensee that it is not a competitor of Gaussian, Inc. and that
 it will not use this program in any manner prohibited above.
 ---------------------------------------------------------------
  

 Cite this work as:
 Gaussian 16, Revision C.01,
 M. J. Frisch, G. W. Trucks, H. B. Schlegel, G. E. Scuseria, 
 M. A. Robb, J. R. Cheeseman, G. Scalmani, V. Barone, 
 G. A. Petersson, H. Nakatsuji, X. Li, M. Caricato, A. V. Marenich, 
 J. Bloino, B. G. Janesko, R. Gomperts, B. Mennucci, H. P. Hratchian, 
 J. V. Ortiz, A. F. Izmaylov, J. L. Sonnenberg, D. Williams-Young, 
 F. Ding, F. Lipparini, F. Egidi, J. Goings, B. Peng, A. Petrone, 
 T. Henderson, D. Ranasinghe, V. G. Zakrzewski, J. Gao, N. Rega, 
 G. Zheng, W. Liang, M. Hada, M. Ehara, K. Toyota, R. Fukuda, 
 J. Hasegawa, M. Ishida, T. Nakajima, Y. Honda, O. Kitao, H. Nakai, 
 T. Vreven, K. Throssell, J. A. Montgomery, Jr., J. E. Peralta, 
 F. Ogliaro, M. J. Bearpark, J. J. Heyd, E. N. Brothers, K. N. Kudin, 
 V. N. Staroverov, T. A. Keith, R. Kobayashi, J. Normand, 
 K. Raghavachari, A. P. Rendell, J. C. Burant, S. S. Iyengar, 
 J. Tomasi, M. Cossi, J. M. Millam, M. Klene, C. Adamo, R. Cammi, 
 J. W. Ochterski, R. L. Martin, K. Morokuma, O. Farkas, 
 J. B. Foresman, and D. J. Fox, Gaussian, Inc., Wallingford CT, 2019.
 
 ******************************************
 Gaussian 16:  ES64L-G16RevC.01  3-Jul-2019
                12-Apr-2022 
 ******************************************
 %mem=8gb
 %nproc=8
 Will use up to    8 processors via shared memory.
 %chk=Mol_02.chk
 ----------------------------------------------------------------------
 #p B3LYP/cc-PVTZ scf(verytight, maxcycles=1000) opt(calcfc, maxcyc=100
 0) freq(hpmodes) int(grid=ultrafine)
 ----------------------------------------------------------------------
 1/6=1000,10=4,18=20,19=15,26=4,38=1/1,3;
 2/9=110,12=2,17=6,18=5,40=1/2;
 3/5=16,6=1,11=2,25=1,30=1,71=2,74=-5,75=-5,140=1/1,2,3;
 4//1;
 5/5=2,7=1000,17=3,38=5/2;
 8/6=4,10=90,11=11/1;
 11/6=1,8=1,9=11,15=111,16=1/1,2,10;
 10/6=1,13=1/2;
 6/7=2,8=2,9=2,10=2,28=1/1;
 7/10=1,25=1/1,2,3,16;
 1/6=1000,10=4,18=20,19=15,26=4/3(2);
 2/9=110/2;
 99//99;
 2/9=110/2;
 3/5=16,6=1,11=2,25=1,30=1,71=1,74=-5,75=-5/1,2,3;
 4/5=5,16=3,69=1/1;
 5/5=2,7=1000,17=3,38=5/2;
 7//1,2,3,16;
 1/6=1000,18=20,19=15,26=4/3(-5);
 2/9=110/2;
 6/7=2,8=2,9=2,10=2,19=2,28=1/1;
 99/9=1/99;
 Leave Link    1 at Tue Apr 12 16:20:07 2022, MaxMem=  1073741824 cpu:               0.5 elap:               0.1
 (Enter /home/saurabh/gaussian/g16/l101.exe)
 ------
 Mol_02
 ------
 Symbolic Z-matrix:
 Charge =  0 Multiplicity = 2
 C                    -3.5957    2.0746    0.88197 
 C                    -3.38906   0.87301  -0.06208 
 C                    -4.68979   0.62339  -0.85073 
 C                    -3.0582   -0.38212   0.7697 
 C                    -2.24392   1.17415  -1.06201 
 H                    -3.84363   2.99001   0.30239 
 H                    -2.67806   2.27563   1.47536 
 H                    -4.42744   1.87666   1.59232 
 H                    -2.13482   0.33552  -1.79256 
 H                    -2.50717   2.06266  -1.67603 
 H                    -2.13595  -0.23062   1.36991 
 H                    -2.90554  -1.26148   0.10732 
 H                    -3.88681  -0.61542   1.47293 
 H                    -4.95906   1.51508  -1.45733 
 H                    -5.53344   0.4063   -0.1602 
 H                    -4.57268  -0.24229  -1.53809 
 O                    -1.03506   1.46252  -0.39482 
 O                    -0.28521   0.37815  -0.46624 
 
 ITRead=  0  0  0  0  0  0  0  0  0  0  0  0  0  0  0  0  0  0
 MicOpt= -1 -1 -1 -1 -1 -1 -1 -1 -1 -1 -1 -1 -1 -1 -1 -1 -1 -1
 NAtoms=     18 NQM=       18 NQMF=       0 NMMI=      0 NMMIF=      0
                NMic=       0 NMicF=      0.
                    Isotopes and Nuclear Properties:
 (Nuclear quadrupole moments (NQMom) in fm**2, nuclear magnetic moments (NMagM)
  in nuclear magnetons)

  Atom         1           2           3           4           5           6           7           8           9          10
 IAtWgt=          12          12          12          12          12           1           1           1           1           1
 AtmWgt=  12.0000000  12.0000000  12.0000000  12.0000000  12.0000000   1.0078250   1.0078250   1.0078250   1.0078250   1.0078250
 NucSpn=           0           0           0           0           0           1           1           1           1           1
 AtZEff=  -0.0000000  -0.0000000  -0.0000000  -0.0000000  -0.0000000  -0.0000000  -0.0000000  -0.0000000  -0.0000000  -0.0000000
 NQMom=    0.0000000   0.0000000   0.0000000   0.0000000   0.0000000   0.0000000   0.0000000   0.0000000   0.0000000   0.0000000
 NMagM=    0.0000000   0.0000000   0.0000000   0.0000000   0.0000000   2.7928460   2.7928460   2.7928460   2.7928460   2.7928460
 AtZNuc=   6.0000000   6.0000000   6.0000000   6.0000000   6.0000000   1.0000000   1.0000000   1.0000000   1.0000000   1.0000000

  Atom        11          12          13          14          15          16          17          18
 IAtWgt=           1           1           1           1           1           1          16          16
 AtmWgt=   1.0078250   1.0078250   1.0078250   1.0078250   1.0078250   1.0078250  15.9949146  15.9949146
 NucSpn=           1           1           1           1           1           1           0           0
 AtZEff=  -0.0000000  -0.0000000  -0.0000000  -0.0000000  -0.0000000  -0.0000000  -0.0000000  -0.0000000
 NQMom=    0.0000000   0.0000000   0.0000000   0.0000000   0.0000000   0.0000000   0.0000000   0.0000000
 NMagM=    2.7928460   2.7928460   2.7928460   2.7928460   2.7928460   2.7928460   0.0000000   0.0000000
 AtZNuc=   1.0000000   1.0000000   1.0000000   1.0000000   1.0000000   1.0000000   8.0000000   8.0000000
 Leave Link  101 at Tue Apr 12 16:20:07 2022, MaxMem=  1073741824 cpu:               1.5 elap:               0.2
 (Enter /home/saurabh/gaussian/g16/l103.exe)

 GradGradGradGradGradGradGradGradGradGradGradGradGradGradGradGradGradGrad
 Berny optimization.
 Initialization pass.
                           ----------------------------
                           !    Initial Parameters    !
                           ! (Angstroms and Degrees)  !
 --------------------------                            --------------------------
 ! Name  Definition              Value          Derivative Info.                !
 --------------------------------------------------------------------------------
 ! R1    R(1,2)                  1.542          calculate D2E/DX2 analytically  !
 ! R2    R(1,6)                  1.1115         calculate D2E/DX2 analytically  !
 ! R3    R(1,7)                  1.1111         calculate D2E/DX2 analytically  !
 ! R4    R(1,8)                  1.1116         calculate D2E/DX2 analytically  !
 ! R5    R(2,3)                  1.5415         calculate D2E/DX2 analytically  !
 ! R6    R(2,4)                  1.5416         calculate D2E/DX2 analytically  !
 ! R7    R(2,5)                  1.5498         calculate D2E/DX2 analytically  !
 ! R8    R(3,14)                 1.1116         calculate D2E/DX2 analytically  !
 ! R9    R(3,15)                 1.1116         calculate D2E/DX2 analytically  !
 ! R10   R(3,16)                 1.1116         calculate D2E/DX2 analytically  !
 ! R11   R(4,11)                 1.1107         calculate D2E/DX2 analytically  !
 ! R12   R(4,12)                 1.1114         calculate D2E/DX2 analytically  !
 ! R13   R(4,13)                 1.1116         calculate D2E/DX2 analytically  !
 ! R14   R(5,9)                  1.1175         calculate D2E/DX2 analytically  !
 ! R15   R(5,10)                 1.1117         calculate D2E/DX2 analytically  !
 ! R16   R(5,17)                 1.4105         calculate D2E/DX2 analytically  !
 ! R17   R(17,18)                1.3203         calculate D2E/DX2 analytically  !
 ! A1    A(2,1,6)              110.6362         calculate D2E/DX2 analytically  !
 ! A2    A(2,1,7)              110.9325         calculate D2E/DX2 analytically  !
 ! A3    A(2,1,8)              110.6558         calculate D2E/DX2 analytically  !
 ! A4    A(6,1,7)              108.2821         calculate D2E/DX2 analytically  !
 ! A5    A(6,1,8)              108.2393         calculate D2E/DX2 analytically  !
 ! A6    A(7,1,8)              107.9935         calculate D2E/DX2 analytically  !
 ! A7    A(1,2,3)              109.0464         calculate D2E/DX2 analytically  !
 ! A8    A(1,2,4)              109.4428         calculate D2E/DX2 analytically  !
 ! A9    A(1,2,5)              110.0357         calculate D2E/DX2 analytically  !
 ! A10   A(3,2,4)              108.9834         calculate D2E/DX2 analytically  !
 ! A11   A(3,2,5)              108.9572         calculate D2E/DX2 analytically  !
 ! A12   A(4,2,5)              110.3483         calculate D2E/DX2 analytically  !
 ! A13   A(2,3,14)             110.7141         calculate D2E/DX2 analytically  !
 ! A14   A(2,3,15)             110.7455         calculate D2E/DX2 analytically  !
 ! A15   A(2,3,16)             110.7068         calculate D2E/DX2 analytically  !
 ! A16   A(14,3,15)            108.1678         calculate D2E/DX2 analytically  !
 ! A17   A(14,3,16)            108.2282         calculate D2E/DX2 analytically  !
 ! A18   A(15,3,16)            108.1796         calculate D2E/DX2 analytically  !
 ! A19   A(2,4,11)             111.0206         calculate D2E/DX2 analytically  !
 ! A20   A(2,4,12)             110.6147         calculate D2E/DX2 analytically  !
 ! A21   A(2,4,13)             110.6236         calculate D2E/DX2 analytically  !
 ! A22   A(11,4,12)            108.4158         calculate D2E/DX2 analytically  !
 ! A23   A(11,4,13)            107.8006         calculate D2E/DX2 analytically  !
 ! A24   A(12,4,13)            108.262          calculate D2E/DX2 analytically  !
 ! A25   A(2,5,9)              110.3704         calculate D2E/DX2 analytically  !
 ! A26   A(2,5,10)             109.6761         calculate D2E/DX2 analytically  !
 ! A27   A(2,5,17)             111.5791         calculate D2E/DX2 analytically  !
 ! A28   A(9,5,10)             105.1788         calculate D2E/DX2 analytically  !
 ! A29   A(9,5,17)             112.2689         calculate D2E/DX2 analytically  !
 ! A30   A(10,5,17)            107.5067         calculate D2E/DX2 analytically  !
 ! A31   A(5,17,18)            107.0518         calculate D2E/DX2 analytically  !
 ! D1    D(6,1,2,3)            -60.4213         calculate D2E/DX2 analytically  !
 ! D2    D(6,1,2,4)           -179.5526         calculate D2E/DX2 analytically  !
 ! D3    D(6,1,2,5)             59.0321         calculate D2E/DX2 analytically  !
 ! D4    D(7,1,2,3)            179.3839         calculate D2E/DX2 analytically  !
 ! D5    D(7,1,2,4)             60.2526         calculate D2E/DX2 analytically  !
 ! D6    D(7,1,2,5)            -61.1627         calculate D2E/DX2 analytically  !
 ! D7    D(8,1,2,3)             59.5385         calculate D2E/DX2 analytically  !
 ! D8    D(8,1,2,4)            -59.5927         calculate D2E/DX2 analytically  !
 ! D9    D(8,1,2,5)            178.9919         calculate D2E/DX2 analytically  !
 ! D10   D(1,2,3,14)            60.2379         calculate D2E/DX2 analytically  !
 ! D11   D(1,2,3,15)           -59.7421         calculate D2E/DX2 analytically  !
 ! D12   D(1,2,3,16)          -179.7319         calculate D2E/DX2 analytically  !
 ! D13   D(4,2,3,14)           179.6547         calculate D2E/DX2 analytically  !
 ! D14   D(4,2,3,15)            59.6747         calculate D2E/DX2 analytically  !
 ! D15   D(4,2,3,16)           -60.3151         calculate D2E/DX2 analytically  !
 ! D16   D(5,2,3,14)           -59.8826         calculate D2E/DX2 analytically  !
 ! D17   D(5,2,3,15)          -179.8626         calculate D2E/DX2 analytically  !
 ! D18   D(5,2,3,16)            60.1476         calculate D2E/DX2 analytically  !
 ! D19   D(1,2,4,11)           -59.613          calculate D2E/DX2 analytically  !
 ! D20   D(1,2,4,12)           179.98           calculate D2E/DX2 analytically  !
 ! D21   D(1,2,4,13)            60.0267         calculate D2E/DX2 analytically  !
 ! D22   D(3,2,4,11)          -178.7832         calculate D2E/DX2 analytically  !
 ! D23   D(3,2,4,12)            60.8098         calculate D2E/DX2 analytically  !
 ! D24   D(3,2,4,13)           -59.1435         calculate D2E/DX2 analytically  !
 ! D25   D(5,2,4,11)            61.6135         calculate D2E/DX2 analytically  !
 ! D26   D(5,2,4,12)           -58.7935         calculate D2E/DX2 analytically  !
 ! D27   D(5,2,4,13)          -178.7468         calculate D2E/DX2 analytically  !
 ! D28   D(1,2,5,9)           -176.2156         calculate D2E/DX2 analytically  !
 ! D29   D(1,2,5,10)           -60.7867         calculate D2E/DX2 analytically  !
 ! D30   D(1,2,5,17)            58.2243         calculate D2E/DX2 analytically  !
 ! D31   D(3,2,5,9)            -56.7078         calculate D2E/DX2 analytically  !
 ! D32   D(3,2,5,10)            58.7211         calculate D2E/DX2 analytically  !
 ! D33   D(3,2,5,17)           177.732          calculate D2E/DX2 analytically  !
 ! D34   D(4,2,5,9)             62.9114         calculate D2E/DX2 analytically  !
 ! D35   D(4,2,5,10)           178.3403         calculate D2E/DX2 analytically  !
 ! D36   D(4,2,5,17)           -62.6488         calculate D2E/DX2 analytically  !
 ! D37   D(2,5,17,18)          102.1498         calculate D2E/DX2 analytically  !
 ! D38   D(9,5,17,18)          -22.3534         calculate D2E/DX2 analytically  !
 ! D39   D(10,5,17,18)        -137.5574         calculate D2E/DX2 analytically  !
 --------------------------------------------------------------------------------
 Trust Radius=3.00D-01 FncErr=1.00D-07 GrdErr=1.00D-06 EigMax=2.50D+02 EigMin=1.00D-04
 Number of steps in this run=    108 maximum allowed number of steps=    108.
 GradGradGradGradGradGradGradGradGradGradGradGradGradGradGradGradGradGrad

 Leave Link  103 at Tue Apr 12 16:20:07 2022, MaxMem=  1073741824 cpu:               0.1 elap:               0.0
 (Enter /home/saurabh/gaussian/g16/l202.exe)
                          Input orientation:                          
 ---------------------------------------------------------------------
 Center     Atomic      Atomic             Coordinates (Angstroms)
 Number     Number       Type             X           Y           Z
 ---------------------------------------------------------------------
      1          6           0       -3.595699    2.074603    0.881973
      2          6           0       -3.389062    0.873009   -0.062077
      3          6           0       -4.689789    0.623391   -0.850726
      4          6           0       -3.058197   -0.382122    0.769696
      5          6           0       -2.243916    1.174155   -1.062010
      6          1           0       -3.843633    2.990013    0.302388
      7          1           0       -2.678057    2.275633    1.475357
      8          1           0       -4.427444    1.876662    1.592320
      9          1           0       -2.134817    0.335522   -1.792557
     10          1           0       -2.507170    2.062660   -1.676032
     11          1           0       -2.135951   -0.230624    1.369914
     12          1           0       -2.905543   -1.261484    0.107323
     13          1           0       -3.886813   -0.615418    1.472928
     14          1           0       -4.959061    1.515082   -1.457326
     15          1           0       -5.533439    0.406304   -0.160202
     16          1           0       -4.572681   -0.242285   -1.538093
     17          8           0       -1.035057    1.462520   -0.394816
     18          8           0       -0.285206    0.378154   -0.466245
 ---------------------------------------------------------------------
                    Distance matrix (angstroms):
                    1          2          3          4          5
     1  C    0.000000
     2  C    1.541997   0.000000
     3  C    2.511034   1.541482   0.000000
     4  C    2.517342   1.541646   2.509764   0.000000
     5  C    2.533218   1.549811   2.516004   2.537755   0.000000
     6  H    1.111470   2.195717   2.765240   3.493792   2.778133
     7  H    1.111119   2.199224   3.491079   2.775991   2.799994
     8  H    1.111564   2.196039   2.758258   2.766523   3.508102
     9  H    3.508801   2.203766   2.738211   2.816521   1.117544
    10  H    2.780004   2.190400   2.741615   3.501739   1.111651
    11  H    2.771827   2.199748   3.490368   1.110744   2.810572
    12  H    3.493690   2.195119   2.766613   1.111449   2.781623
    13  H    2.769511   2.195316   2.752959   1.111560   3.511067
    14  H    2.764803   2.196332   1.111568   3.488881   2.764872
    15  H    2.761193   2.196769   1.111618   2.759193   3.496257
    16  H    3.489869   2.196238   1.111568   2.763894   2.766966
    17  O    2.926042   2.449403   3.777440   2.975212   1.410547
    18  O    3.956639   3.168936   4.428128   3.129705   2.196611
                    6          7          8          9         10
     6  H    0.000000
     7  H    1.801322   0.000000
     8  H    1.801196   1.798114   0.000000
     9  H    3.788822   3.839063   4.369056   0.000000
    10  H    2.561301   3.163197   3.795283   1.770658   0.000000
    11  H    3.798459   2.566383   3.121067   3.212747   3.830762
    12  H    4.358129   3.799272   3.790694   2.598845   3.793282
    13  H    3.790932   3.133572   2.552842   3.825856   4.357920
    14  H    2.552684   3.792367   3.116680   3.078977   2.521794
    15  H    3.121696   3.784528   2.540967   3.770971   3.768230
    16  H    3.790335   4.360091   3.782925   2.518292   3.098086
    17  O    3.272220   2.618807   3.953291   2.105534   2.041763
    18  O    4.480515   3.618837   4.862238   2.276397   3.039452
                   11         12         13         14         15
    11  H    0.000000
    12  H    1.802520   0.000000
    13  H    1.795605   1.801435   0.000000
    14  H    4.360129   3.791357   3.778244   0.000000
    15  H    3.780193   3.123928   2.534247   1.800508   0.000000
    16  H    3.793981   2.554508   3.110609   1.801153   1.800641
    17  O    2.681972   3.342313   3.992344   4.065648   4.626670
    18  O    2.677190   3.143812   4.209412   4.911188   5.257224
                   16         17         18
    16  H    0.000000
    17  O    4.090015   0.000000
    18  O    4.462762   1.320314   0.000000
 Stoichiometry    C5H11O2(2)
 Framework group  C1[X(C5H11O2)]
 Deg. of freedom    48
 Full point group                 C1      NOp   1
 Largest Abelian subgroup         C1      NOp   1
 Largest concise Abelian subgroup C1      NOp   1
                         Standard orientation:                         
 ---------------------------------------------------------------------
 Center     Atomic      Atomic             Coordinates (Angstroms)
 Number     Number       Type             X           Y           Z
 ---------------------------------------------------------------------
      1          6           0       -1.091994   -1.127821   -0.957970
      2          6           0       -0.728509    0.024634   -0.000116
      3          6           0       -1.905402    0.266193    0.965669
      4          6           0       -0.476630    1.308949   -0.814832
      5          6           0        0.530676   -0.346680    0.823590
      6          1           0       -1.285859   -2.063137   -0.389669
      7          1           0       -0.267326   -1.321444   -1.677009
      8          1           0       -2.005026   -0.879616   -1.541358
      9          1           0        0.759100    0.455147    1.567768
     10          1           0        0.326958   -1.256365    1.429179
     11          1           0        0.353061    1.165008   -1.539156
     12          1           0       -0.212994    2.153621   -0.142265
     13          1           0       -1.384638    1.592072   -1.390096
     14          1           0       -2.116158   -0.646205    1.564582
     15          1           0       -2.827062    0.532873    0.404316
     16          1           0       -1.674038    1.096827    1.667169
     17          8           0        1.631632   -0.630486   -0.011271
     18          8           0        2.414009    0.432932    0.004833
 ---------------------------------------------------------------------
 Rotational constants (GHZ):           4.0548546           1.7601715           1.7089835
 Leave Link  202 at Tue Apr 12 16:20:07 2022, MaxMem=  1073741824 cpu:               0.1 elap:               0.0
 (Enter /home/saurabh/gaussian/g16/l301.exe)
 Standard basis: CC-pVTZ (5D, 7F)
 Ernie: Thresh=  0.10000D-02 Tol=  0.10000D-05 Strict=F.
 Ernie:  21 primitive shells out of 270 were deleted.
 There are   410 symmetry adapted cartesian basis functions of A   symmetry.
 There are   364 symmetry adapted basis functions of A   symmetry.
   364 basis functions,   551 primitive gaussians,   410 cartesian basis functions
    29 alpha electrons       28 beta electrons
       nuclear repulsion energy       332.8892736547 Hartrees.
 IExCor=  402 DFT=T Ex+Corr=B3LYP ExCW=0 ScaHFX=  0.200000
 ScaDFX=  0.800000  0.720000  1.000000  0.810000 ScalE2=  1.000000  1.000000
 IRadAn=      5 IRanWt=     -1 IRanGd=            0 ICorTp=0 IEmpDi=  4
 NAtoms=   18 NActive=   18 NUniq=   18 SFac= 1.00D+00 NAtFMM=   60 NAOKFM=F Big=F
 Integral buffers will be    131072 words long.
 Raffenetti 2 integral format.
 Two-electron integral symmetry is turned on.
 Leave Link  301 at Tue Apr 12 16:20:07 2022, MaxMem=  1073741824 cpu:               0.4 elap:               0.1
 (Enter /home/saurabh/gaussian/g16/l302.exe)
 NPDir=0 NMtPBC=     1 NCelOv=     1 NCel=       1 NClECP=     1 NCelD=      1
         NCelK=      1 NCelE2=     1 NClLst=     1 CellRange=     0.0.
 One-electron integrals computed using PRISM.
 One-electron integral symmetry used in STVInt
 NBasis=   364 RedAO= T EigKep=  4.90D-04  NBF=   364
 NBsUse=   364 1.00D-06 EigRej= -1.00D+00 NBFU=   364
 Precomputing XC quadrature grid using
 IXCGrd= 4 IRadAn=           5 IRanWt=          -1 IRanGd=           0 AccXCQ= 0.00D+00.
 Generated NRdTot=       0 NPtTot=           0 NUsed=           0 NTot=          32
 NSgBfM=   410   410   410   410   410 MxSgAt=    18 MxSgA2=    18.
 Leave Link  302 at Tue Apr 12 16:20:08 2022, MaxMem=  1073741824 cpu:               2.3 elap:               0.3
 (Enter /home/saurabh/gaussian/g16/l303.exe)
 DipDrv:  MaxL=1.
 Leave Link  303 at Tue Apr 12 16:20:08 2022, MaxMem=  1073741824 cpu:               0.4 elap:               0.1
 (Enter /home/saurabh/gaussian/g16/l401.exe)
 ExpMin= 1.03D-01 ExpMax= 1.53D+04 ExpMxC= 5.22D+02 IAcc=3 IRadAn=         5 AccDes= 0.00D+00
 Harris functional with IExCor=  402 and IRadAn=       5 diagonalized for initial guess.
 HarFok:  IExCor=  402 AccDes= 0.00D+00 IRadAn=         5 IDoV= 1 UseB2=F ITyADJ=14
 ICtDFT=  3500011 ScaDFX=  1.000000  1.000000  1.000000  1.000000
 FoFCou: FMM=F IPFlag=           0 FMFlag=      100000 FMFlg1=           0
         NFxFlg=           0 DoJE=T BraDBF=F KetDBF=T FulRan=T
         wScrn=  0.000000 ICntrl=       500 IOpCl=  0 I1Cent=   200000004 NGrid=           0
         NMat0=    1 NMatS0=      1 NMatT0=    0 NMatD0=    1 NMtDS0=    0 NMtDT0=    0
 Petite list used in FoFCou.
 Harris En= -347.632998918476    
 JPrj=0 DoOrth=F DoCkMO=F.
 Initial guess <Sx>= 0.0000 <Sy>= 0.0000 <Sz>= 0.5000 <S**2>= 0.7500 S= 0.5000
 Leave Link  401 at Tue Apr 12 16:20:09 2022, MaxMem=  1073741824 cpu:               9.9 elap:               1.3
 (Enter /home/saurabh/gaussian/g16/l502.exe)
 Integral symmetry usage will be decided dynamically.
 UHF open shell SCF:
 Using DIIS extrapolation, IDIIS=  1040.
 NGot=  1073741824 LenX=  1073398246 LenY=  1073229705
 Requested convergence on RMS density matrix=1.00D-08 within1000 cycles.
 Requested convergence on MAX density matrix=1.00D-06.
 Requested convergence on             energy=1.00D-06.
 No special actions if energy rises.
 Fock matrices will be formed incrementally for  20 cycles.
 Integral accuracy reduced to 1.0D-05 until final iterations.

 Cycle   1  Pass 0  IDiag  1:
 FoFJK:  IHMeth= 1 ICntrl=       0 DoSepK=F KAlg= 0 I1Cent=           0 FoldK=F
 IRaf= 980000000 NMat=       1 IRICut=       1 DoRegI=T DoRafI=F ISym2E= 0 IDoP0=0 IntGTp=1.
 FoFCou: FMM=F IPFlag=           0 FMFlag=      100000 FMFlg1=           0
         NFxFlg=           0 DoJE=F BraDBF=F KetDBF=F FulRan=T
         wScrn=  0.000000 ICntrl=         0 IOpCl=  1 I1Cent=           0 NGrid=           0
         NMat0=    1 NMatS0=      1 NMatT0=    0 NMatD0=    1 NMtDS0=    0 NMtDT0=    0
 Symmetry not used in FoFCou.
 E= -347.356032664089    
 DIIS: error= 3.47D-02 at cycle   1 NSaved=   1.
 NSaved= 1 IEnMin= 1 EnMin= -347.356032664089     IErMin= 1 ErrMin= 3.47D-02
 ErrMax= 3.47D-02  0.00D+00 EMaxC= 1.00D-01 BMatC= 1.06D+00 BMatP= 1.06D+00
 IDIUse=3 WtCom= 6.53D-01 WtEn= 3.47D-01
 Coeff-Com:  0.100D+01
 Coeff-En:   0.100D+01
 Coeff:      0.100D+01
 Gap=     0.332 Goal=   None    Shift=    0.000
 Gap=     0.108 Goal=   None    Shift=    0.000
 GapD=    0.108 DampG=1.000 DampE=0.500 DampFc=0.5000 IDamp=-1.
 Damping current iteration by 5.00D-01
 RMSDP=2.16D-03 MaxDP=6.79D-02              OVMax= 1.91D-01

 Cycle   2  Pass 0  IDiag  1:
 RMSU=  1.08D-03    CP:  9.92D-01
 E= -347.446340177212     Delta-E=       -0.090307513122 Rises=F Damp=T
 DIIS: error= 7.31D-03 at cycle   2 NSaved=   2.
 NSaved= 2 IEnMin= 2 EnMin= -347.446340177212     IErMin= 2 ErrMin= 7.31D-03
 ErrMax= 7.31D-03  0.00D+00 EMaxC= 1.00D-01 BMatC= 1.24D-01 BMatP= 1.06D+00
 IDIUse=3 WtCom= 9.27D-01 WtEn= 7.31D-02
 Coeff-Com:  0.150D+00 0.850D+00
 Coeff-En:   0.249D+00 0.751D+00
 Coeff:      0.158D+00 0.842D+00
 Gap=     0.356 Goal=   None    Shift=    0.000
 Gap=     0.184 Goal=   None    Shift=    0.000
 RMSDP=5.91D-04 MaxDP=2.13D-02 DE=-9.03D-02 OVMax= 1.47D-01

 Cycle   3  Pass 0  IDiag  1:
 RMSU=  5.02D-04    CP:  9.94D-01  7.11D-01
 E= -347.582881190905     Delta-E=       -0.136541013694 Rises=F Damp=F
 DIIS: error= 7.97D-03 at cycle   3 NSaved=   3.
 NSaved= 3 IEnMin= 3 EnMin= -347.582881190905     IErMin= 2 ErrMin= 7.31D-03
 ErrMax= 7.97D-03  0.00D+00 EMaxC= 1.00D-01 BMatC= 1.17D-01 BMatP= 1.24D-01
 IDIUse=3 WtCom= 9.20D-01 WtEn= 7.97D-02
 Coeff-Com:  0.259D-01 0.488D+00 0.486D+00
 Coeff-En:   0.000D+00 0.000D+00 0.100D+01
 Coeff:      0.239D-01 0.449D+00 0.527D+00
 Gap=     0.305 Goal=   None    Shift=    0.000
 Gap=     0.143 Goal=   None    Shift=    0.000
 RMSDP=3.68D-04 MaxDP=2.11D-02 DE=-1.37D-01 OVMax= 7.65D-02

 Cycle   4  Pass 0  IDiag  1:
 RMSU=  2.84D-04    CP:  9.95D-01  7.58D-01  5.43D-01
 E= -347.594304621539     Delta-E=       -0.011423430633 Rises=F Damp=F
 DIIS: error= 6.39D-03 at cycle   4 NSaved=   4.
 NSaved= 4 IEnMin= 4 EnMin= -347.594304621539     IErMin= 4 ErrMin= 6.39D-03
 ErrMax= 6.39D-03  0.00D+00 EMaxC= 1.00D-01 BMatC= 5.03D-02 BMatP= 1.17D-01
 IDIUse=3 WtCom= 9.36D-01 WtEn= 6.39D-02
 Coeff-Com: -0.719D-02 0.114D+00 0.398D+00 0.496D+00
 Coeff-En:   0.000D+00 0.000D+00 0.343D+00 0.657D+00
 Coeff:     -0.673D-02 0.106D+00 0.394D+00 0.506D+00
 Gap=     0.310 Goal=   None    Shift=    0.000
 Gap=     0.152 Goal=   None    Shift=    0.000
 RMSDP=1.85D-04 MaxDP=7.58D-03 DE=-1.14D-02 OVMax= 2.70D-02

 Cycle   5  Pass 0  IDiag  1:
 RMSU=  9.00D-05    CP:  9.94D-01  7.66D-01  6.81D-01  4.85D-01
 E= -347.602763548308     Delta-E=       -0.008458926769 Rises=F Damp=F
 DIIS: error= 1.25D-03 at cycle   5 NSaved=   5.
 NSaved= 5 IEnMin= 5 EnMin= -347.602763548308     IErMin= 5 ErrMin= 1.25D-03
 ErrMax= 1.25D-03  0.00D+00 EMaxC= 1.00D-01 BMatC= 1.53D-03 BMatP= 5.03D-02
 IDIUse=3 WtCom= 9.88D-01 WtEn= 1.25D-02
 Coeff-Com: -0.476D-02 0.123D-01 0.165D+00 0.250D+00 0.578D+00
 Coeff-En:   0.000D+00 0.000D+00 0.000D+00 0.000D+00 0.100D+01
 Coeff:     -0.470D-02 0.121D-01 0.163D+00 0.247D+00 0.583D+00
 Gap=     0.301 Goal=   None    Shift=    0.000
 Gap=     0.152 Goal=   None    Shift=    0.000
 RMSDP=4.52D-05 MaxDP=2.25D-03 DE=-8.46D-03 OVMax= 1.04D-02

 Cycle   6  Pass 0  IDiag  1:
 RMSU=  2.85D-05    CP:  9.94D-01  7.57D-01  7.06D-01  5.59D-01  7.41D-01
 E= -347.603094195746     Delta-E=       -0.000330647438 Rises=F Damp=F
 DIIS: error= 3.90D-04 at cycle   6 NSaved=   6.
 NSaved= 6 IEnMin= 6 EnMin= -347.603094195746     IErMin= 6 ErrMin= 3.90D-04
 ErrMax= 3.90D-04  0.00D+00 EMaxC= 1.00D-01 BMatC= 2.29D-04 BMatP= 1.53D-03
 IDIUse=3 WtCom= 9.96D-01 WtEn= 3.90D-03
 Coeff-Com: -0.170D-03-0.119D-01 0.246D-01 0.348D-01 0.279D+00 0.674D+00
 Coeff-En:   0.000D+00 0.000D+00 0.000D+00 0.000D+00 0.000D+00 0.100D+01
 Coeff:     -0.169D-03-0.119D-01 0.245D-01 0.347D-01 0.277D+00 0.675D+00
 Gap=     0.302 Goal=   None    Shift=    0.000
 Gap=     0.153 Goal=   None    Shift=    0.000
 RMSDP=1.47D-05 MaxDP=8.39D-04 DE=-3.31D-04 OVMax= 1.58D-03

 Cycle   7  Pass 0  IDiag  1:
 RMSU=  1.01D-05    CP:  9.94D-01  7.58D-01  7.11D-01  5.50D-01  8.51D-01
                    CP:  9.48D-01
 E= -347.603143599286     Delta-E=       -0.000049403541 Rises=F Damp=F
 DIIS: error= 1.25D-04 at cycle   7 NSaved=   7.
 NSaved= 7 IEnMin= 7 EnMin= -347.603143599286     IErMin= 7 ErrMin= 1.25D-04
 ErrMax= 1.25D-04  0.00D+00 EMaxC= 1.00D-01 BMatC= 2.09D-05 BMatP= 2.29D-04
 IDIUse=3 WtCom= 9.99D-01 WtEn= 1.25D-03
 Coeff-Com:  0.122D-02-0.344D-02-0.144D-01-0.370D-01-0.376D-01 0.548D-01
 Coeff-Com:  0.104D+01
 Coeff-En:   0.000D+00 0.000D+00 0.000D+00 0.000D+00 0.000D+00 0.000D+00
 Coeff-En:   0.100D+01
 Coeff:      0.122D-02-0.344D-02-0.144D-01-0.369D-01-0.375D-01 0.548D-01
 Coeff:      0.104D+01
 Gap=     0.303 Goal=   None    Shift=    0.000
 Gap=     0.154 Goal=   None    Shift=    0.000
 RMSDP=8.61D-06 MaxDP=4.43D-04 DE=-4.94D-05 OVMax= 2.04D-03

 Initial convergence to 1.0D-05 achieved.  Increase integral accuracy.
 Cycle   8  Pass 1  IDiag  1:
 E= -347.603158582692     Delta-E=       -0.000014983406 Rises=F Damp=F
 DIIS: error= 5.47D-05 at cycle   1 NSaved=   1.
 NSaved= 1 IEnMin= 1 EnMin= -347.603158582692     IErMin= 1 ErrMin= 5.47D-05
 ErrMax= 5.47D-05  0.00D+00 EMaxC= 1.00D-01 BMatC= 7.39D-06 BMatP= 7.39D-06
 IDIUse=1 WtCom= 1.00D+00 WtEn= 0.00D+00
 Coeff-Com:  0.100D+01
 Coeff:      0.100D+01
 Gap=     0.302 Goal=   None    Shift=    0.000
 Gap=     0.154 Goal=   None    Shift=    0.000
 RMSDP=8.61D-06 MaxDP=4.43D-04 DE=-1.50D-05 OVMax= 8.37D-04

 Cycle   9  Pass 1  IDiag  1:
 RMSU=  9.62D-06    CP:  1.00D+00
 E= -347.603156899297     Delta-E=        0.000001683395 Rises=F Damp=F
 DIIS: error= 1.08D-04 at cycle   2 NSaved=   2.
 NSaved= 2 IEnMin= 1 EnMin= -347.603158582692     IErMin= 1 ErrMin= 5.47D-05
 ErrMax= 1.08D-04  0.00D+00 EMaxC= 1.00D-01 BMatC= 1.79D-05 BMatP= 7.39D-06
 IDIUse=3 WtCom= 4.90D-01 WtEn= 5.10D-01
 Coeff-Com:  0.620D+00 0.380D+00
 Coeff-En:   0.660D+00 0.340D+00
 Coeff:      0.640D+00 0.360D+00
 Gap=     0.303 Goal=   None    Shift=    0.000
 Gap=     0.154 Goal=   None    Shift=    0.000
 RMSDP=3.72D-06 MaxDP=1.85D-04 DE= 1.68D-06 OVMax= 7.96D-04

 Cycle  10  Pass 1  IDiag  1:
 RMSU=  3.10D-06    CP:  1.00D+00  7.86D-01
 E= -347.603160435460     Delta-E=       -0.000003536163 Rises=F Damp=F
 DIIS: error= 3.28D-05 at cycle   3 NSaved=   3.
 NSaved= 3 IEnMin= 3 EnMin= -347.603160435460     IErMin= 3 ErrMin= 3.28D-05
 ErrMax= 3.28D-05  0.00D+00 EMaxC= 1.00D-01 BMatC= 1.49D-06 BMatP= 7.39D-06
 IDIUse=1 WtCom= 1.00D+00 WtEn= 0.00D+00
 Coeff-Com:  0.252D+00 0.237D+00 0.511D+00
 Coeff:      0.252D+00 0.237D+00 0.511D+00
 Gap=     0.303 Goal=   None    Shift=    0.000
 Gap=     0.154 Goal=   None    Shift=    0.000
 RMSDP=1.20D-06 MaxDP=6.71D-05 DE=-3.54D-06 OVMax= 3.13D-04

 Cycle  11  Pass 1  IDiag  1:
 RMSU=  1.16D-06    CP:  1.00D+00  8.13D-01  9.45D-01
 E= -347.603160710899     Delta-E=       -0.000000275439 Rises=F Damp=F
 DIIS: error= 1.08D-05 at cycle   4 NSaved=   4.
 NSaved= 4 IEnMin= 4 EnMin= -347.603160710899     IErMin= 4 ErrMin= 1.08D-05
 ErrMax= 1.08D-05  0.00D+00 EMaxC= 1.00D-01 BMatC= 2.29D-07 BMatP= 1.49D-06
 IDIUse=1 WtCom= 1.00D+00 WtEn= 0.00D+00
 Coeff-Com: -0.858D-01 0.397D-01 0.197D+00 0.849D+00
 Coeff:     -0.858D-01 0.397D-01 0.197D+00 0.849D+00
 Gap=     0.303 Goal=   None    Shift=    0.000
 Gap=     0.154 Goal=   None    Shift=    0.000
 RMSDP=1.11D-06 MaxDP=6.52D-05 DE=-2.75D-07 OVMax= 4.79D-04

 Cycle  12  Pass 1  IDiag  1:
 RMSU=  8.83D-07    CP:  1.00D+00  8.63D-01  1.00D+00  1.38D+00
 E= -347.603160853220     Delta-E=       -0.000000142321 Rises=F Damp=F
 DIIS: error= 8.57D-06 at cycle   5 NSaved=   5.
 NSaved= 5 IEnMin= 5 EnMin= -347.603160853220     IErMin= 5 ErrMin= 8.57D-06
 ErrMax= 8.57D-06  0.00D+00 EMaxC= 1.00D-01 BMatC= 6.64D-08 BMatP= 2.29D-07
 IDIUse=1 WtCom= 1.00D+00 WtEn= 0.00D+00
 Coeff-Com: -0.610D-01-0.990D-02-0.951D-01 0.240D+00 0.926D+00
 Coeff:     -0.610D-01-0.990D-02-0.951D-01 0.240D+00 0.926D+00
 Gap=     0.303 Goal=   None    Shift=    0.000
 Gap=     0.154 Goal=   None    Shift=    0.000
 RMSDP=8.21D-07 MaxDP=5.87D-05 DE=-1.42D-07 OVMax= 4.09D-04

 Cycle  13  Pass 1  IDiag  1:
 RMSU=  3.58D-07    CP:  1.00D+00  8.88D-01  1.04D+00  1.78D+00  1.58D+00
 E= -347.603160910931     Delta-E=       -0.000000057711 Rises=F Damp=F
 DIIS: error= 5.81D-06 at cycle   6 NSaved=   6.
 NSaved= 6 IEnMin= 6 EnMin= -347.603160910931     IErMin= 6 ErrMin= 5.81D-06
 ErrMax= 5.81D-06  0.00D+00 EMaxC= 1.00D-01 BMatC= 2.16D-08 BMatP= 6.64D-08
 IDIUse=1 WtCom= 1.00D+00 WtEn= 0.00D+00
 Coeff-Com:  0.592D-02-0.180D-01-0.152D+00-0.225D+00 0.480D+00 0.909D+00
 Coeff:      0.592D-02-0.180D-01-0.152D+00-0.225D+00 0.480D+00 0.909D+00
 Gap=     0.303 Goal=   None    Shift=    0.000
 Gap=     0.154 Goal=   None    Shift=    0.000
 RMSDP=7.71D-07 MaxDP=7.02D-05 DE=-5.77D-08 OVMax= 4.19D-04

 Cycle  14  Pass 1  IDiag  1:
 RMSU=  2.46D-07    CP:  1.00D+00  9.06D-01  1.08D+00  2.18D+00  2.15D+00
                    CP:  1.40D+00
 E= -347.603160945361     Delta-E=       -0.000000034430 Rises=F Damp=F
 DIIS: error= 3.85D-06 at cycle   7 NSaved=   7.
 NSaved= 7 IEnMin= 7 EnMin= -347.603160945361     IErMin= 7 ErrMin= 3.85D-06
 ErrMax= 3.85D-06  0.00D+00 EMaxC= 1.00D-01 BMatC= 6.35D-09 BMatP= 2.16D-08
 IDIUse=1 WtCom= 1.00D+00 WtEn= 0.00D+00
 Coeff-Com:  0.128D-01-0.438D-02 0.155D-01-0.805D-01-0.128D+00 0.105D+00
 Coeff-Com:  0.108D+01
 Coeff:      0.128D-01-0.438D-02 0.155D-01-0.805D-01-0.128D+00 0.105D+00
 Coeff:      0.108D+01
 Gap=     0.303 Goal=   None    Shift=    0.000
 Gap=     0.154 Goal=   None    Shift=    0.000
 RMSDP=4.66D-07 MaxDP=4.60D-05 DE=-3.44D-08 OVMax= 2.63D-04

 Cycle  15  Pass 1  IDiag  1:
 RMSU=  1.01D-07    CP:  1.00D+00  9.11D-01  1.11D+00  2.35D+00  2.47D+00
                    CP:  1.98D+00  1.72D+00
 E= -347.603160958771     Delta-E=       -0.000000013410 Rises=F Damp=F
 DIIS: error= 2.51D-06 at cycle   8 NSaved=   8.
 NSaved= 8 IEnMin= 8 EnMin= -347.603160958771     IErMin= 8 ErrMin= 2.51D-06
 ErrMax= 2.51D-06  0.00D+00 EMaxC= 1.00D-01 BMatC= 3.27D-09 BMatP= 6.35D-09
 IDIUse=1 WtCom= 1.00D+00 WtEn= 0.00D+00
 Coeff-Com:  0.177D-02 0.985D-02 0.158D+00 0.149D+00-0.502D+00-0.786D+00
 Coeff-Com:  0.540D+00 0.143D+01
 Coeff:      0.177D-02 0.985D-02 0.158D+00 0.149D+00-0.502D+00-0.786D+00
 Coeff:      0.540D+00 0.143D+01
 Gap=     0.303 Goal=   None    Shift=    0.000
 Gap=     0.154 Goal=   None    Shift=    0.000
 RMSDP=7.28D-07 MaxDP=7.42D-05 DE=-1.34D-08 OVMax= 4.15D-04

 Cycle  16  Pass 1  IDiag  1:
 RMSU=  6.23D-08    CP:  1.00D+00  9.19D-01  1.16D+00  2.60D+00  2.98D+00
                    CP:  2.86D+00  3.00D+00  1.62D+00
 E= -347.603160969031     Delta-E=       -0.000000010260 Rises=F Damp=F
 DIIS: error= 7.19D-07 at cycle   9 NSaved=   9.
 NSaved= 9 IEnMin= 9 EnMin= -347.603160969031     IErMin= 9 ErrMin= 7.19D-07
 ErrMax= 7.19D-07  0.00D+00 EMaxC= 1.00D-01 BMatC= 6.24D-10 BMatP= 3.27D-09
 IDIUse=1 WtCom= 1.00D+00 WtEn= 0.00D+00
 Coeff-Com: -0.135D-02 0.573D-02 0.814D-01 0.937D-01-0.245D+00-0.436D+00
 Coeff-Com:  0.943D-01 0.767D+00 0.640D+00
 Coeff:     -0.135D-02 0.573D-02 0.814D-01 0.937D-01-0.245D+00-0.436D+00
 Coeff:      0.943D-01 0.767D+00 0.640D+00
 Gap=     0.303 Goal=   None    Shift=    0.000
 Gap=     0.154 Goal=   None    Shift=    0.000
 RMSDP=1.54D-07 MaxDP=1.59D-05 DE=-1.03D-08 OVMax= 8.66D-05

 Cycle  17  Pass 1  IDiag  1:
 RMSU=  1.02D-07    CP:  1.00D+00  9.20D-01  1.17D+00  2.65D+00  3.00D+00
                    CP:  3.00D+00  3.00D+00  1.82D+00  1.31D+00
 E= -347.603160969565     Delta-E=       -0.000000000534 Rises=F Damp=F
 DIIS: error= 1.84D-07 at cycle  10 NSaved=  10.
 NSaved=10 IEnMin=10 EnMin= -347.603160969565     IErMin=10 ErrMin= 1.84D-07
 ErrMax= 1.84D-07  0.00D+00 EMaxC= 1.00D-01 BMatC= 2.94D-11 BMatP= 6.24D-10
 IDIUse=1 WtCom= 1.00D+00 WtEn= 0.00D+00
 Coeff-Com: -0.398D-03 0.105D-03-0.348D-02 0.122D-02 0.107D-01 0.767D-02
 Coeff-Com: -0.400D-01-0.186D-01 0.119D+00 0.923D+00
 Coeff:     -0.398D-03 0.105D-03-0.348D-02 0.122D-02 0.107D-01 0.767D-02
 Coeff:     -0.400D-01-0.186D-01 0.119D+00 0.923D+00
 Gap=     0.303 Goal=   None    Shift=    0.000
 Gap=     0.154 Goal=   None    Shift=    0.000
 RMSDP=2.17D-08 MaxDP=1.96D-06 DE=-5.34D-10 OVMax= 1.14D-05

 Cycle  18  Pass 1  IDiag  1:
 RMSU=  1.02D-08    CP:  1.00D+00  9.21D-01  1.17D+00  2.66D+00  3.00D+00
                    CP:  3.00D+00  3.00D+00  1.86D+00  1.45D+00  1.13D+00
 E= -347.603160969588     Delta-E=       -0.000000000022 Rises=F Damp=F
 DIIS: error= 6.19D-08 at cycle  11 NSaved=  11.
 NSaved=11 IEnMin=11 EnMin= -347.603160969588     IErMin=11 ErrMin= 6.19D-08
 ErrMax= 6.19D-08  0.00D+00 EMaxC= 1.00D-01 BMatC= 4.71D-12 BMatP= 2.94D-11
 IDIUse=1 WtCom= 1.00D+00 WtEn= 0.00D+00
 Coeff-Com:  0.210D-03-0.102D-02-0.171D-01-0.185D-01 0.506D-01 0.884D-01
 Coeff-Com: -0.244D-01-0.157D+00-0.114D+00 0.141D+00 0.105D+01
 Coeff:      0.210D-03-0.102D-02-0.171D-01-0.185D-01 0.506D-01 0.884D-01
 Coeff:     -0.244D-01-0.157D+00-0.114D+00 0.141D+00 0.105D+01
 Gap=     0.303 Goal=   None    Shift=    0.000
 Gap=     0.154 Goal=   None    Shift=    0.000
 RMSDP=7.88D-09 MaxDP=6.33D-07 DE=-2.24D-11 OVMax= 3.73D-06

 SCF Done:  E(UB3LYP) =  -347.603160970     A.U. after   18 cycles
            NFock= 18  Conv=0.79D-08     -V/T= 2.0074
 <Sx>= 0.0000 <Sy>= 0.0000 <Sz>= 0.5000 <S**2>= 0.7540 S= 0.5020
 <L.S>=  0.00000000000    
 KE= 3.450452142493D+02 PE=-1.476470173904D+03 EE= 4.509325250304D+02
 Annihilation of the first spin contaminant:
 S**2 before annihilation     0.7540,   after     0.7500
 Leave Link  502 at Tue Apr 12 16:22:05 2022, MaxMem=  1073741824 cpu:             930.2 elap:             116.3
 (Enter /home/saurabh/gaussian/g16/l801.exe)
 DoSCS=F DFT=T ScalE2(SS,OS)=  1.000000  1.000000
 Range of M.O.s used for correlation:     1   364
 NBasis=   364 NAE=    29 NBE=    28 NFC=     0 NFV=     0
 NROrb=    364 NOA=    29 NOB=    28 NVA=   335 NVB=   336

 **** Warning!!: The largest alpha MO coefficient is  0.10649404D+02


 **** Warning!!: The largest beta MO coefficient is  0.10648340D+02

 Leave Link  801 at Tue Apr 12 16:22:05 2022, MaxMem=  1073741824 cpu:               0.2 elap:               0.0
 (Enter /home/saurabh/gaussian/g16/l1101.exe)
 Using compressed storage, NAtomX=    18.
 Will process     19 centers per pass.
 Leave Link 1101 at Tue Apr 12 16:22:06 2022, MaxMem=  1073741824 cpu:               3.3 elap:               0.5
 (Enter /home/saurabh/gaussian/g16/l1102.exe)
 Symmetrizing basis deriv contribution to polar:
 IMax=3 JMax=2 DiffMx= 0.00D+00
 Leave Link 1102 at Tue Apr 12 16:22:06 2022, MaxMem=  1073741824 cpu:               0.3 elap:               0.1
 (Enter /home/saurabh/gaussian/g16/l1110.exe)
 Forming Gx(P) for the SCF density, NAtomX=    18.
 Integral derivatives from FoFJK, PRISM(SPDF).
 Do as many integral derivatives as possible in FoFJK.
 G2DrvN: MDV=    1073739834.
 G2DrvN: will do    19 centers at a time, making    1 passes.
 Calling FoFCou, ICntrl=  3107 FMM=F I1Cent=   0 AccDes= 0.00D+00.
 FoFJK:  IHMeth= 1 ICntrl=    3107 DoSepK=F KAlg= 0 I1Cent=           0 FoldK=F
 IRaf=         0 NMat=       1 IRICut=       1 DoRegI=T DoRafI=F ISym2E= 0 IDoP0=0 IntGTp=1.
 FoFCou: FMM=F IPFlag=           0 FMFlag=      100000 FMFlg1=           0
         NFxFlg=           0 DoJE=F BraDBF=F KetDBF=F FulRan=T
         wScrn=  0.000000 ICntrl=      3107 IOpCl=  1 I1Cent=           0 NGrid=           0
         NMat0=    1 NMatS0=      1 NMatT0=    0 NMatD0=    1 NMtDS0=    0 NMtDT0=    0
 Symmetry not used in FoFCou.
 End of G2Drv F.D. properties file   721 does not exist.
 End of G2Drv F.D. properties file   722 does not exist.
 End of G2Drv F.D. properties file   788 does not exist.
 Leave Link 1110 at Tue Apr 12 16:24:44 2022, MaxMem=  1073741824 cpu:            1261.1 elap:             157.7
 (Enter /home/saurabh/gaussian/g16/l1002.exe)
 Minotr:  UHF open shell wavefunction.
          IDoAtm=111111111111111111
          Direct CPHF calculation.
          Differentiating once with respect to nuclear coordinates.
          Requested convergence is 1.0D-08 RMS, and 1.0D-07 maximum.
          Secondary convergence is 1.0D-12 RMS, and 1.0D-12 maximum.
          NewPWx=T KeepS1=F KeepF1=F KeepIn=T MapXYZ=F SortEE=F KeepMc=T.
         5344 words used for storage of precomputed grid.
 Two-electron integrals replicated using symmetry.
          MDV=    1073741824 using IRadAn=       1.
          Solving linear equations simultaneously, MaxMat=     384.
 FoF2E skips out because all densities are zero.
 CalDSu exits because no D1Ps are significant.
 FoFJK:  IHMeth= 1 ICntrl=       0 DoSepK=F KAlg= 0 I1Cent=           0 FoldK=F
 IRaf= 970000000 NMat=      54 IRICut=     135 DoRegI=T DoRafI=T ISym2E= 2 IDoP0=3 IntGTp=3.
 FoFCou: FMM=F IPFlag=           0 FMFlag=      100000 FMFlg1=           0
         NFxFlg=           0 DoJE=F BraDBF=F KetDBF=F FulRan=T
         wScrn=  0.000000 ICntrl=         0 IOpCl=  1 I1Cent=           0 NGrid=           0
         NMat0=   54 NMatS0=     54 NMatT0=    0 NMatD0=   54 NMtDS0=    0 NMtDT0=    0
 Integrals replicated using symmetry in FoFCou.
 Raff kept on since  94.75% of shell-pairs survive, threshold=   0.20 IRatSp=95.
          There are    57 degrees of freedom in the 1st order CPHF.  IDoFFX=6 NUNeed=     0.
     51 vectors produced by pass  0 Test12= 3.35D-14 1.75D-09 XBig12= 1.73D-01 9.71D-02.
 AX will form    51 AO Fock derivatives at one time.
     51 vectors produced by pass  1 Test12= 3.35D-14 1.75D-09 XBig12= 8.42D-02 1.01D-01.
     51 vectors produced by pass  2 Test12= 3.35D-14 1.75D-09 XBig12= 2.01D-03 8.82D-03.
     51 vectors produced by pass  3 Test12= 3.35D-14 1.75D-09 XBig12= 1.60D-05 4.57D-04.
     51 vectors produced by pass  4 Test12= 3.35D-14 1.75D-09 XBig12= 7.32D-08 2.83D-05.
     51 vectors produced by pass  5 Test12= 3.35D-14 1.75D-09 XBig12= 2.71D-10 1.25D-06.
     25 vectors produced by pass  6 Test12= 3.35D-14 1.75D-09 XBig12= 1.15D-12 9.18D-08.
      4 vectors produced by pass  7 Test12= 3.35D-14 1.75D-09 XBig12= 6.01D-15 6.68D-09.
 InvSVY:  IOpt=1 It=  1 EMax= 4.44D-16
 Solved reduced A of dimension   335 with    57 vectors.
 End of Minotr F.D. properties file   721 does not exist.
 End of Minotr F.D. properties file   722 does not exist.
 End of Minotr F.D. properties file   788 does not exist.
 Leave Link 1002 at Tue Apr 12 16:31:07 2022, MaxMem=  1073741824 cpu:            3069.6 elap:             383.7
 (Enter /home/saurabh/gaussian/g16/l601.exe)
 Copying SCF densities to generalized density rwf, IOpCl= 1 IROHF=0.

 **********************************************************************

            Population analysis using the SCF Density.

 **********************************************************************

 Orbital symmetries:
 Alpha Orbitals:
       Occupied  (A) (A) (A) (A) (A) (A) (A) (A) (A) (A) (A) (A)
                 (A) (A) (A) (A) (A) (A) (A) (A) (A) (A) (A) (A)
                 (A) (A) (A) (A) (A)
       Virtual   (A) (A) (A) (A) (A) (A) (A) (A) (A) (A) (A) (A)
                 (A) (A) (A) (A) (A) (A) (A) (A) (A) (A) (A) (A)
                 (A) (A) (A) (A) (A) (A) (A) (A) (A) (A) (A) (A)
                 (A) (A) (A) (A) (A) (A) (A) (A) (A) (A) (A) (A)
                 (A) (A) (A) (A) (A) (A) (A) (A) (A) (A) (A) (A)
                 (A) (A) (A) (A) (A) (A) (A) (A) (A) (A) (A) (A)
                 (A) (A) (A) (A) (A) (A) (A) (A) (A) (A) (A) (A)
                 (A) (A) (A) (A) (A) (A) (A) (A) (A) (A) (A) (A)
                 (A) (A) (A) (A) (A) (A) (A) (A) (A) (A) (A) (A)
                 (A) (A) (A) (A) (A) (A) (A) (A) (A) (A) (A) (A)
                 (A) (A) (A) (A) (A) (A) (A) (A) (A) (A) (A) (A)
                 (A) (A) (A) (A) (A) (A) (A) (A) (A) (A) (A) (A)
                 (A) (A) (A) (A) (A) (A) (A) (A) (A) (A) (A) (A)
                 (A) (A) (A) (A) (A) (A) (A) (A) (A) (A) (A) (A)
                 (A) (A) (A) (A) (A) (A) (A) (A) (A) (A) (A) (A)
                 (A) (A) (A) (A) (A) (A) (A) (A) (A) (A) (A) (A)
                 (A) (A) (A) (A) (A) (A) (A) (A) (A) (A) (A) (A)
                 (A) (A) (A) (A) (A) (A) (A) (A) (A) (A) (A) (A)
                 (A) (A) (A) (A) (A) (A) (A) (A) (A) (A) (A) (A)
                 (A) (A) (A) (A) (A) (A) (A) (A) (A) (A) (A) (A)
                 (A) (A) (A) (A) (A) (A) (A) (A) (A) (A) (A) (A)
                 (A) (A) (A) (A) (A) (A) (A) (A) (A) (A) (A) (A)
                 (A) (A) (A) (A) (A) (A) (A) (A) (A) (A) (A) (A)
                 (A) (A) (A) (A) (A) (A) (A) (A) (A) (A) (A) (A)
                 (A) (A) (A) (A) (A) (A) (A) (A) (A) (A) (A) (A)
                 (A) (A) (A) (A) (A) (A) (A) (A) (A) (A) (A) (A)
                 (A) (A) (A) (A) (A) (A) (A) (A) (A) (A) (A) (A)
                 (A) (A) (A) (A) (A) (A) (A) (A) (A) (A) (A)
 Beta  Orbitals:
       Occupied  (A) (A) (A) (A) (A) (A) (A) (A) (A) (A) (A) (A)
                 (A) (A) (A) (A) (A) (A) (A) (A) (A) (A) (A) (A)
                 (A) (A) (A) (A)
       Virtual   (A) (A) (A) (A) (A) (A) (A) (A) (A) (A) (A) (A)
                 (A) (A) (A) (A) (A) (A) (A) (A) (A) (A) (A) (A)
                 (A) (A) (A) (A) (A) (A) (A) (A) (A) (A) (A) (A)
                 (A) (A) (A) (A) (A) (A) (A) (A) (A) (A) (A) (A)
                 (A) (A) (A) (A) (A) (A) (A) (A) (A) (A) (A) (A)
                 (A) (A) (A) (A) (A) (A) (A) (A) (A) (A) (A) (A)
                 (A) (A) (A) (A) (A) (A) (A) (A) (A) (A) (A) (A)
                 (A) (A) (A) (A) (A) (A) (A) (A) (A) (A) (A) (A)
                 (A) (A) (A) (A) (A) (A) (A) (A) (A) (A) (A) (A)
                 (A) (A) (A) (A) (A) (A) (A) (A) (A) (A) (A) (A)
                 (A) (A) (A) (A) (A) (A) (A) (A) (A) (A) (A) (A)
                 (A) (A) (A) (A) (A) (A) (A) (A) (A) (A) (A) (A)
                 (A) (A) (A) (A) (A) (A) (A) (A) (A) (A) (A) (A)
                 (A) (A) (A) (A) (A) (A) (A) (A) (A) (A) (A) (A)
                 (A) (A) (A) (A) (A) (A) (A) (A) (A) (A) (A) (A)
                 (A) (A) (A) (A) (A) (A) (A) (A) (A) (A) (A) (A)
                 (A) (A) (A) (A) (A) (A) (A) (A) (A) (A) (A) (A)
                 (A) (A) (A) (A) (A) (A) (A) (A) (A) (A) (A) (A)
                 (A) (A) (A) (A) (A) (A) (A) (A) (A) (A) (A) (A)
                 (A) (A) (A) (A) (A) (A) (A) (A) (A) (A) (A) (A)
                 (A) (A) (A) (A) (A) (A) (A) (A) (A) (A) (A) (A)
                 (A) (A) (A) (A) (A) (A) (A) (A) (A) (A) (A) (A)
                 (A) (A) (A) (A) (A) (A) (A) (A) (A) (A) (A) (A)
                 (A) (A) (A) (A) (A) (A) (A) (A) (A) (A) (A) (A)
                 (A) (A) (A) (A) (A) (A) (A) (A) (A) (A) (A) (A)
                 (A) (A) (A) (A) (A) (A) (A) (A) (A) (A) (A) (A)
                 (A) (A) (A) (A) (A) (A) (A) (A) (A) (A) (A) (A)
                 (A) (A) (A) (A) (A) (A) (A) (A) (A) (A) (A) (A)
 The electronic state is 2-A.
 Alpha  occ. eigenvalues --  -19.25331 -19.19618 -10.24038 -10.20654 -10.18144
 Alpha  occ. eigenvalues --  -10.17540 -10.17290  -1.20285  -0.89536  -0.82148
 Alpha  occ. eigenvalues --   -0.69525  -0.69041  -0.67994  -0.56262  -0.52921
 Alpha  occ. eigenvalues --   -0.51462  -0.50077  -0.45275  -0.44193  -0.43621
 Alpha  occ. eigenvalues --   -0.40248  -0.39505  -0.37650  -0.37195  -0.35626
 Alpha  occ. eigenvalues --   -0.33973  -0.33609  -0.28603  -0.28048
 Alpha virt. eigenvalues --    0.02217   0.06188   0.06429   0.06713   0.07857
 Alpha virt. eigenvalues --    0.08146   0.09904   0.10580   0.12117   0.12844
 Alpha virt. eigenvalues --    0.13733   0.14592   0.15434   0.15534   0.17120
 Alpha virt. eigenvalues --    0.18443   0.19011   0.24260   0.25324   0.28335
 Alpha virt. eigenvalues --    0.28965   0.28991   0.31876   0.32707   0.35225
 Alpha virt. eigenvalues --    0.37253   0.39644   0.40727   0.41039   0.43001
 Alpha virt. eigenvalues --    0.43302   0.43908   0.44550   0.44994   0.45156
 Alpha virt. eigenvalues --    0.45713   0.46536   0.47096   0.47401   0.48021
 Alpha virt. eigenvalues --    0.48380   0.49743   0.50302   0.53788   0.56688
 Alpha virt. eigenvalues --    0.58969   0.60527   0.65316   0.66473   0.67181
 Alpha virt. eigenvalues --    0.68932   0.73550   0.74869   0.75116   0.80151
 Alpha virt. eigenvalues --    0.80746   0.81802   0.84057   0.84351   0.85468
 Alpha virt. eigenvalues --    0.86327   0.90529   0.91022   0.92366   0.92879
 Alpha virt. eigenvalues --    0.93638   0.94646   0.96889   0.97674   1.00748
 Alpha virt. eigenvalues --    1.01629   1.02795   1.05477   1.07784   1.08088
 Alpha virt. eigenvalues --    1.11320   1.12560   1.14379   1.14749   1.15652
 Alpha virt. eigenvalues --    1.17227   1.18546   1.18984   1.20725   1.21984
 Alpha virt. eigenvalues --    1.23740   1.24061   1.26008   1.26378   1.28005
 Alpha virt. eigenvalues --    1.28040   1.29255   1.30900   1.31418   1.32468
 Alpha virt. eigenvalues --    1.36812   1.37692   1.39027   1.39990   1.42024
 Alpha virt. eigenvalues --    1.43137   1.45594   1.47129   1.48390   1.50167
 Alpha virt. eigenvalues --    1.50583   1.50738   1.51322   1.52186   1.55158
 Alpha virt. eigenvalues --    1.58413   1.62968   1.66517   1.70460   1.72418
 Alpha virt. eigenvalues --    1.74734   1.77119   1.89498   1.94092   2.00127
 Alpha virt. eigenvalues --    2.07655   2.11708   2.21069   2.22766   2.24215
 Alpha virt. eigenvalues --    2.26864   2.29820   2.30472   2.34090   2.34918
 Alpha virt. eigenvalues --    2.38342   2.39724   2.42283   2.45988   2.48927
 Alpha virt. eigenvalues --    2.53064   2.54543   2.55987   2.57962   2.58555
 Alpha virt. eigenvalues --    2.59662   2.60474   2.61988   2.65678   2.68556
 Alpha virt. eigenvalues --    2.73356   2.75038   2.76913   2.77540   2.78465
 Alpha virt. eigenvalues --    2.79466   2.82094   2.83963   2.85384   2.86223
 Alpha virt. eigenvalues --    2.87387   2.89956   2.93211   2.94284   2.95479
 Alpha virt. eigenvalues --    2.96979   2.97553   2.99439   3.00400   3.01793
 Alpha virt. eigenvalues --    3.03351   3.04507   3.04921   3.06399   3.07346
 Alpha virt. eigenvalues --    3.09640   3.10803   3.10835   3.11837   3.13528
 Alpha virt. eigenvalues --    3.14895   3.18432   3.19202   3.23357   3.24154
 Alpha virt. eigenvalues --    3.25193   3.28280   3.28583   3.31866   3.32018
 Alpha virt. eigenvalues --    3.32665   3.37609   3.39087   3.40401   3.40945
 Alpha virt. eigenvalues --    3.41256   3.42890   3.43356   3.44526   3.46116
 Alpha virt. eigenvalues --    3.47157   3.48962   3.50440   3.51133   3.54231
 Alpha virt. eigenvalues --    3.56345   3.58467   3.59163   3.63013   3.64617
 Alpha virt. eigenvalues --    3.64775   3.66554   3.66619   3.67833   3.68942
 Alpha virt. eigenvalues --    3.72370   3.73915   3.75795   3.76880   3.79122
 Alpha virt. eigenvalues --    3.79590   3.82029   3.86292   3.88674   3.90661
 Alpha virt. eigenvalues --    3.92192   3.92762   3.97402   3.98469   3.99286
 Alpha virt. eigenvalues --    4.00898   4.02631   4.04265   4.05884   4.06794
 Alpha virt. eigenvalues --    4.07642   4.08605   4.10229   4.11598   4.12947
 Alpha virt. eigenvalues --    4.13242   4.14409   4.16615   4.17240   4.18701
 Alpha virt. eigenvalues --    4.19611   4.20568   4.21189   4.23128   4.24840
 Alpha virt. eigenvalues --    4.25382   4.25897   4.28298   4.30965   4.36631
 Alpha virt. eigenvalues --    4.39622   4.40178   4.50677   4.52780   4.53534
 Alpha virt. eigenvalues --    4.57756   4.58235   4.59526   4.62979   4.64940
 Alpha virt. eigenvalues --    4.67118   4.69995   4.71125   4.73958   4.76268
 Alpha virt. eigenvalues --    4.77971   4.78320   4.78902   4.81098   4.84710
 Alpha virt. eigenvalues --    4.86968   4.88059   4.90199   4.91989   4.95495
 Alpha virt. eigenvalues --    5.03199   5.05292   5.06182   5.07436   5.08612
 Alpha virt. eigenvalues --    5.09544   5.11067   5.11872   5.14005   5.15595
 Alpha virt. eigenvalues --    5.16925   5.17288   5.18033   5.19475   5.20755
 Alpha virt. eigenvalues --    5.21840   5.24971   5.25603   5.28745   5.30235
 Alpha virt. eigenvalues --    5.30877   5.33542   5.33907   5.39100   5.40040
 Alpha virt. eigenvalues --    5.42449   5.48626   5.49431   5.51662   5.62878
 Alpha virt. eigenvalues --    5.69171   5.82103   5.88073   5.89035   5.90342
 Alpha virt. eigenvalues --    5.92109   5.94158   5.94899   5.97700   6.05888
 Alpha virt. eigenvalues --    6.14762   6.26061   6.28440   6.33399   6.41168
 Alpha virt. eigenvalues --    6.44168   6.67597   6.75808   6.80711   7.02726
 Alpha virt. eigenvalues --    7.09675   7.28372   7.38812   9.48873   9.54189
 Alpha virt. eigenvalues --   11.19343  12.53271  13.27035  13.29419  13.30686
  Beta  occ. eigenvalues --  -19.24352 -19.17686 -10.24069 -10.20617 -10.18140
  Beta  occ. eigenvalues --  -10.17540 -10.17290  -1.17716  -0.86903  -0.81200
  Beta  occ. eigenvalues --   -0.69479  -0.69025  -0.67089  -0.55660  -0.51103
  Beta  occ. eigenvalues --   -0.50292  -0.48330  -0.44881  -0.43583  -0.40850
  Beta  occ. eigenvalues --   -0.39967  -0.39225  -0.37455  -0.37138  -0.34263
  Beta  occ. eigenvalues --   -0.33570  -0.33198  -0.26878
  Beta virt. eigenvalues --   -0.11479   0.02251   0.06273   0.06533   0.06936
  Beta virt. eigenvalues --    0.07914   0.08327   0.10141   0.11295   0.12211
  Beta virt. eigenvalues --    0.13012   0.13836   0.14639   0.15527   0.15706
  Beta virt. eigenvalues --    0.17283   0.18513   0.19305   0.24408   0.25521
  Beta virt. eigenvalues --    0.28405   0.28988   0.29129   0.32127   0.32844
  Beta virt. eigenvalues --    0.35368   0.37422   0.39675   0.40784   0.41102
  Beta virt. eigenvalues --    0.43034   0.43352   0.43962   0.44617   0.45044
  Beta virt. eigenvalues --    0.45197   0.45777   0.46571   0.47243   0.47681
  Beta virt. eigenvalues --    0.48050   0.48524   0.49820   0.50453   0.53991
  Beta virt. eigenvalues --    0.57289   0.59197   0.61187   0.65448   0.66946
  Beta virt. eigenvalues --    0.69018   0.69292   0.74015   0.75103   0.75755
  Beta virt. eigenvalues --    0.80306   0.80910   0.81894   0.84249   0.84733
  Beta virt. eigenvalues --    0.85575   0.86394   0.90548   0.91141   0.92409
  Beta virt. eigenvalues --    0.92926   0.93700   0.94727   0.97095   0.97818
  Beta virt. eigenvalues --    1.01018   1.01729   1.02976   1.05588   1.07928
  Beta virt. eigenvalues --    1.08222   1.11494   1.12813   1.14605   1.14791
  Beta virt. eigenvalues --    1.15786   1.17413   1.18679   1.19147   1.20853
  Beta virt. eigenvalues --    1.22055   1.23905   1.24251   1.26145   1.26545
  Beta virt. eigenvalues --    1.28107   1.28289   1.29322   1.30960   1.31590
  Beta virt. eigenvalues --    1.32896   1.36930   1.38157   1.39309   1.40295
  Beta virt. eigenvalues --    1.42308   1.43527   1.45879   1.47459   1.49538
  Beta virt. eigenvalues --    1.50336   1.50763   1.50997   1.51472   1.52506
  Beta virt. eigenvalues --    1.55744   1.59128   1.63546   1.67759   1.70593
  Beta virt. eigenvalues --    1.72956   1.75109   1.77558   1.89879   1.95292
  Beta virt. eigenvalues --    2.01330   2.09077   2.13998   2.21229   2.23012
  Beta virt. eigenvalues --    2.24384   2.27271   2.29864   2.30539   2.34327
  Beta virt. eigenvalues --    2.35264   2.38526   2.39815   2.42359   2.46133
  Beta virt. eigenvalues --    2.49021   2.53098   2.54566   2.56034   2.57979
  Beta virt. eigenvalues --    2.58634   2.59683   2.60502   2.62094   2.65835
  Beta virt. eigenvalues --    2.68611   2.73497   2.75105   2.76918   2.77550
  Beta virt. eigenvalues --    2.78525   2.79495   2.82164   2.83999   2.85507
  Beta virt. eigenvalues --    2.86271   2.87437   2.90091   2.93298   2.94313
  Beta virt. eigenvalues --    2.95496   2.97027   2.97603   2.99468   3.00427
  Beta virt. eigenvalues --    3.01812   3.03398   3.04535   3.04951   3.06435
  Beta virt. eigenvalues --    3.07410   3.09673   3.10843   3.10958   3.11929
  Beta virt. eigenvalues --    3.13603   3.14959   3.18553   3.19289   3.23483
  Beta virt. eigenvalues --    3.24234   3.25351   3.28299   3.28684   3.31930
  Beta virt. eigenvalues --    3.32156   3.32772   3.37795   3.39277   3.40448
  Beta virt. eigenvalues --    3.40969   3.41309   3.43020   3.43394   3.44633
  Beta virt. eigenvalues --    3.46179   3.47194   3.49065   3.50565   3.51181
  Beta virt. eigenvalues --    3.54263   3.57177   3.58728   3.59269   3.63829
  Beta virt. eigenvalues --    3.64790   3.65407   3.66644   3.66724   3.68880
  Beta virt. eigenvalues --    3.70305   3.72858   3.75283   3.76208   3.77000
  Beta virt. eigenvalues --    3.79232   3.80535   3.82409   3.86875   3.89042
  Beta virt. eigenvalues --    3.90755   3.92364   3.93090   3.97625   3.98910
  Beta virt. eigenvalues --    3.99380   4.01584   4.02762   4.04385   4.05943
  Beta virt. eigenvalues --    4.06985   4.07717   4.08689   4.10321   4.11693
  Beta virt. eigenvalues --    4.13009   4.13301   4.14500   4.16665   4.17274
  Beta virt. eigenvalues --    4.18973   4.19752   4.20624   4.21298   4.23184
  Beta virt. eigenvalues --    4.24885   4.25417   4.25910   4.28463   4.31075
  Beta virt. eigenvalues --    4.36703   4.39690   4.40355   4.50816   4.53310
  Beta virt. eigenvalues --    4.53743   4.57948   4.58605   4.59580   4.63345
  Beta virt. eigenvalues --    4.65183   4.67708   4.70334   4.72504   4.74333
  Beta virt. eigenvalues --    4.76671   4.78039   4.78382   4.78990   4.82016
  Beta virt. eigenvalues --    4.85906   4.87114   4.88671   4.91278   4.92640
  Beta virt. eigenvalues --    4.96133   5.03798   5.05632   5.07988   5.08357
  Beta virt. eigenvalues --    5.09025   5.11183   5.11482   5.14016   5.14606
  Beta virt. eigenvalues --    5.16264   5.17324   5.17765   5.18982   5.20464
  Beta virt. eigenvalues --    5.20888   5.22294   5.25204   5.26196   5.28814
  Beta virt. eigenvalues --    5.30311   5.30945   5.34059   5.34586   5.39232
  Beta virt. eigenvalues --    5.40158   5.42523   5.48675   5.49523   5.51909
  Beta virt. eigenvalues --    5.64843   5.70547   5.83775   5.88144   5.89142
  Beta virt. eigenvalues --    5.90381   5.92207   5.94226   5.95210   5.98432
  Beta virt. eigenvalues --    6.07814   6.19808   6.27940   6.33393   6.38924
  Beta virt. eigenvalues --    6.45133   6.47166   6.68729   6.78831   6.83049
  Beta virt. eigenvalues --    7.05496   7.11557   7.28808   7.40080   9.49063
  Beta virt. eigenvalues --    9.57011  11.21032  12.53310  13.27040  13.29430
  Beta virt. eigenvalues --   13.30692
          Condensed to atoms (all electrons):
               1          2          3          4          5          6
     1  C    4.926356   0.343869  -0.052400  -0.063593  -0.050709   0.397933
     2  C    0.343869   5.008616   0.336218   0.341168   0.322218  -0.036311
     3  C   -0.052400   0.336218   4.916557  -0.054270  -0.041319  -0.006166
     4  C   -0.063593   0.341168  -0.054270   4.917819  -0.046288   0.008164
     5  C   -0.050709   0.322218  -0.041319  -0.046288   4.798291  -0.003237
     6  H    0.397933  -0.036311  -0.006166   0.008164  -0.003237   0.606070
     7  H    0.399195  -0.032098   0.008100  -0.003996  -0.007430  -0.027418
     8  H    0.397199  -0.032548  -0.006377  -0.004673   0.006783  -0.029201
     9  H    0.006934  -0.044561   0.002707  -0.010343   0.406759  -0.000193
    10  H   -0.009393  -0.045513  -0.004733   0.009396   0.403462   0.003978
    11  H   -0.004387  -0.031129   0.008676   0.395336  -0.002485  -0.000083
    12  H    0.008023  -0.033376  -0.005842   0.397188  -0.004909  -0.000539
    13  H   -0.006524  -0.032457  -0.008196   0.397116   0.007421  -0.000080
    14  H   -0.006140  -0.035989   0.397999   0.008545  -0.003820   0.004229
    15  H   -0.005230  -0.028349   0.399315  -0.006503   0.005221  -0.000278
    16  H    0.008654  -0.036012   0.398773  -0.005390  -0.002954  -0.000162
    17  O   -0.006871  -0.034867   0.001959  -0.002597   0.275079  -0.000105
    18  O   -0.000159  -0.010575  -0.000333   0.004941  -0.064576  -0.000001
               7          8          9         10         11         12
     1  C    0.399195   0.397199   0.006934  -0.009393  -0.004387   0.008023
     2  C   -0.032098  -0.032548  -0.044561  -0.045513  -0.031129  -0.033376
     3  C    0.008100  -0.006377   0.002707  -0.004733   0.008676  -0.005842
     4  C   -0.003996  -0.004673  -0.010343   0.009396   0.395336   0.397188
     5  C   -0.007430   0.006783   0.406759   0.403462  -0.002485  -0.004909
     6  H   -0.027418  -0.029201  -0.000193   0.003978  -0.000083  -0.000539
     7  H    0.579497  -0.028057   0.000501   0.000478   0.003778  -0.000034
     8  H   -0.028057   0.602974  -0.000262  -0.000029  -0.000868  -0.000019
     9  H    0.000501  -0.000262   0.593513  -0.031353   0.000019   0.003770
    10  H    0.000478  -0.000029  -0.031353   0.601000  -0.000344  -0.000008
    11  H    0.003778  -0.000868   0.000019  -0.000344   0.584282  -0.026624
    12  H   -0.000034  -0.000019   0.003770  -0.000008  -0.026624   0.597158
    13  H   -0.000419   0.003844   0.000052  -0.000350  -0.030161  -0.029275
    14  H   -0.000120  -0.000239  -0.000640   0.005053  -0.000515  -0.000130
    15  H   -0.000035   0.004183   0.000060  -0.000321  -0.000217  -0.000168
    16  H   -0.000519  -0.000159   0.003043  -0.000892   0.000021   0.003952
    17  O    0.009009  -0.000078  -0.033657  -0.022874   0.001759  -0.000254
    18  O   -0.000447  -0.000012   0.013559   0.006874   0.003691   0.002681
              13         14         15         16         17         18
     1  C   -0.006524  -0.006140  -0.005230   0.008654  -0.006871  -0.000159
     2  C   -0.032457  -0.035989  -0.028349  -0.036012  -0.034867  -0.010575
     3  C   -0.008196   0.397999   0.399315   0.398773   0.001959  -0.000333
     4  C    0.397116   0.008545  -0.006503  -0.005390  -0.002597   0.004941
     5  C    0.007421  -0.003820   0.005221  -0.002954   0.275079  -0.064576
     6  H   -0.000080   0.004229  -0.000278  -0.000162  -0.000105  -0.000001
     7  H   -0.000419  -0.000120  -0.000035  -0.000519   0.009009  -0.000447
     8  H    0.003844  -0.000239   0.004183  -0.000159  -0.000078  -0.000012
     9  H    0.000052  -0.000640   0.000060   0.003043  -0.033657   0.013559
    10  H   -0.000350   0.005053  -0.000321  -0.000892  -0.022874   0.006874
    11  H   -0.030161  -0.000515  -0.000217   0.000021   0.001759   0.003691
    12  H   -0.029275  -0.000130  -0.000168   0.003952  -0.000254   0.002681
    13  H    0.608847  -0.000071   0.004100  -0.000484  -0.000362   0.000414
    14  H   -0.000071   0.603859  -0.028742  -0.029732   0.000062   0.000017
    15  H    0.004100  -0.028742   0.592373  -0.028850  -0.000240   0.000017
    16  H   -0.000484  -0.029732  -0.028850   0.602514   0.000231  -0.000284
    17  O   -0.000362   0.000062  -0.000240   0.000231   7.739418   0.117536
    18  O    0.000414   0.000017   0.000017  -0.000284   0.117536   8.101410
          Atomic-Atomic Spin Densities.
               1          2          3          4          5          6
     1  C   -0.000960  -0.001981   0.000465  -0.000059   0.001629  -0.000053
     2  C   -0.001981  -0.008698  -0.004254   0.002277   0.025070  -0.000150
     3  C    0.000465  -0.004254   0.007094   0.001365  -0.003273   0.000141
     4  C   -0.000059   0.002277   0.001365  -0.002262  -0.001079   0.000019
     5  C    0.001629   0.025070  -0.003273  -0.001079  -0.027308  -0.000233
     6  H   -0.000053  -0.000150   0.000141   0.000019  -0.000233   0.000078
     7  H    0.000210   0.000266   0.000261   0.000292  -0.000926   0.000115
     8  H    0.000276   0.000122  -0.000005  -0.000090   0.000064   0.000053
     9  H    0.000135  -0.000656   0.000898   0.000213  -0.000360   0.000028
    10  H    0.000528  -0.001911   0.001398  -0.000146  -0.002906   0.000129
    11  H    0.000271   0.001806  -0.000176   0.000219  -0.000371  -0.000014
    12  H    0.000042   0.000201   0.000238   0.000496  -0.000159  -0.000000
    13  H    0.000205   0.000296  -0.001413  -0.003137   0.000479  -0.000025
    14  H    0.000088  -0.000261   0.000513   0.000019  -0.000378   0.000035
    15  H   -0.000126   0.000860  -0.001200  -0.000212   0.000376  -0.000024
    16  H   -0.000035   0.000398   0.000064  -0.000127  -0.000277  -0.000002
    17  O    0.000084   0.001959   0.000863   0.000772  -0.012779   0.000118
    18  O    0.000187   0.003154  -0.000189  -0.000912   0.002364  -0.000009
               7          8          9         10         11         12
     1  C    0.000210   0.000276   0.000135   0.000528   0.000271   0.000042
     2  C    0.000266   0.000122  -0.000656  -0.001911   0.001806   0.000201
     3  C    0.000261  -0.000005   0.000898   0.001398  -0.000176   0.000238
     4  C    0.000292  -0.000090   0.000213  -0.000146   0.000219   0.000496
     5  C   -0.000926   0.000064  -0.000360  -0.002906  -0.000371  -0.000159
     6  H    0.000115   0.000053   0.000028   0.000129  -0.000014  -0.000000
     7  H   -0.000270   0.000011   0.000019   0.000161  -0.000144  -0.000005
     8  H    0.000011  -0.000733  -0.000013   0.000011   0.000099  -0.000003
     9  H    0.000019  -0.000013   0.000715   0.001565  -0.000038  -0.000086
    10  H    0.000161   0.000011   0.001565   0.012242  -0.000094  -0.000023
    11  H   -0.000144   0.000099  -0.000038  -0.000094  -0.001026   0.000009
    12  H   -0.000005  -0.000003  -0.000086  -0.000023   0.000009   0.000557
    13  H   -0.000231   0.000002  -0.000154  -0.000072   0.000483  -0.000558
    14  H    0.000019   0.000001   0.000104   0.000291  -0.000007   0.000002
    15  H   -0.000029  -0.000092  -0.000092  -0.000070   0.000075  -0.000024
    16  H    0.000001   0.000012   0.000139   0.000004  -0.000022   0.000039
    17  O    0.000727   0.000035   0.000079  -0.003191  -0.002349   0.000057
    18  O   -0.000430   0.000005  -0.001444   0.000495   0.000141  -0.000369
              13         14         15         16         17         18
     1  C    0.000205   0.000088  -0.000126  -0.000035   0.000084   0.000187
     2  C    0.000296  -0.000261   0.000860   0.000398   0.001959   0.003154
     3  C   -0.001413   0.000513  -0.001200   0.000064   0.000863  -0.000189
     4  C   -0.003137   0.000019  -0.000212  -0.000127   0.000772  -0.000912
     5  C    0.000479  -0.000378   0.000376  -0.000277  -0.012779   0.002364
     6  H   -0.000025   0.000035  -0.000024  -0.000002   0.000118  -0.000009
     7  H   -0.000231   0.000019  -0.000029   0.000001   0.000727  -0.000430
     8  H    0.000002   0.000001  -0.000092   0.000012   0.000035   0.000005
     9  H   -0.000154   0.000104  -0.000092   0.000139   0.000079  -0.001444
    10  H   -0.000072   0.000291  -0.000070   0.000004  -0.003191   0.000495
    11  H    0.000483  -0.000007   0.000075  -0.000022  -0.002349   0.000141
    12  H   -0.000558   0.000002  -0.000024   0.000039   0.000057  -0.000369
    13  H    0.007476  -0.000053   0.000468   0.000013  -0.000464   0.000305
    14  H   -0.000053  -0.000093  -0.000201  -0.000046   0.000025  -0.000006
    15  H    0.000468  -0.000201   0.000878   0.000142  -0.000021   0.000009
    16  H    0.000013  -0.000046   0.000142  -0.000411  -0.000021   0.000021
    17  O   -0.000464   0.000025  -0.000021  -0.000021   0.436880  -0.132340
    18  O    0.000305  -0.000006   0.000009   0.000021  -0.132340   0.825787
 Mulliken charges and spin densities:
               1          2
     1  C   -0.282754   0.000905
     2  C    0.081697   0.018499
     3  C   -0.290666   0.002791
     4  C   -0.282021  -0.002352
     5  C    0.002494  -0.020067
     6  H    0.083401   0.000205
     7  H    0.100014   0.000047
     8  H    0.087542  -0.000245
     9  H    0.090091   0.001051
    10  H    0.085568   0.008412
    11  H    0.099253  -0.001140
    12  H    0.088408   0.000413
    13  H    0.086585   0.003620
    14  H    0.086376   0.000049
    15  H    0.093664   0.000717
    16  H    0.088251  -0.000109
    17  O   -0.043148   0.290436
    18  O   -0.174753   0.696768
 Sum of Mulliken charges =  -0.00000   1.00000
 Mulliken charges and spin densities with hydrogens summed into heavy atoms:
               1          2
     1  C   -0.011798   0.000912
     2  C    0.081697   0.018499
     3  C   -0.022375   0.003447
     4  C   -0.007775   0.000541
     5  C    0.178153  -0.010604
    17  O   -0.043148   0.290436
    18  O   -0.174753   0.696768
 APT charges:
               1
     1  C   -1.031746
     2  C    0.142966
     3  C   -1.090303
     4  C   -0.992631
     5  C   -0.655683
     6  H    0.337240
     7  H    0.265936
     8  H    0.412985
     9  H    0.307014
    10  H    0.347366
    11  H    0.256758
    12  H    0.305344
    13  H    0.413190
    14  H    0.342775
    15  H    0.425182
    16  H    0.311010
    17  O    0.011681
    18  O   -0.109084
 Sum of APT charges =  -0.00000
 APT charges with hydrogens summed into heavy atoms:
               1
     1  C   -0.015585
     2  C    0.142966
     3  C   -0.011337
     4  C   -0.017339
     5  C   -0.001303
    17  O    0.011681
    18  O   -0.109084
 Electronic spatial extent (au):  <R**2>=            847.4646
 Charge=              0.0000 electrons
 Dipole moment (field-independent basis, Debye):
    X=             -2.3745    Y=             -0.3234    Z=              0.8930  Tot=              2.5574
 Quadrupole moment (field-independent basis, Debye-Ang):
   XX=            -50.6403   YY=            -45.0776   ZZ=            -43.5104
   XY=             -0.7569   XZ=              1.2274   YZ=             -0.6151
 Traceless Quadrupole moment (field-independent basis, Debye-Ang):
   XX=             -4.2309   YY=              1.3318   ZZ=              2.8990
   XY=             -0.7569   XZ=              1.2274   YZ=             -0.6151
 Octapole moment (field-independent basis, Debye-Ang**2):
  XXX=              1.1334  YYY=             -1.8056  ZZZ=              1.5348  XYY=              5.2081
  XXY=             -1.4833  XXZ=              0.0438  XZZ=              7.3764  YZZ=             -0.5467
  YYZ=              2.6355  XYZ=              0.3607
 Hexadecapole moment (field-independent basis, Debye-Ang**3):
 XXXX=           -648.9697 YYYY=           -256.8091 ZZZZ=           -239.4015 XXXY=             -7.8438
 XXXZ=             11.8969 YYYX=              1.1367 YYYZ=             -1.2113 ZZZX=              1.5521
 ZZZY=             -0.0145 XXYY=           -147.8953 XXZZ=           -141.3270 YYZZ=            -81.0316
 XXYZ=             -3.2067 YYXZ=             -1.2340 ZZXY=             -0.7780
 N-N= 3.328892736547D+02 E-N=-1.476470173083D+03  KE= 3.450452142493D+02
  Exact polarizability:       0.000       0.000       0.000       0.000       0.000       0.000
 Approx polarizability:     105.029       8.976     102.235      -2.105      -0.982      93.933
                          Isotropic Fermi Contact Couplings
        Atom                 a.u.       MegaHertz       Gauss      10(-4) cm-1
     1  C(13)              0.00020       0.21946       0.07831       0.07320
     2  C(13)              0.00997      11.20354       3.99770       3.73710
     3  C(13)              0.00040       0.44798       0.15985       0.14943
     4  C(13)              0.00053       0.59248       0.21141       0.19763
     5  C(13)             -0.01094     -12.30408      -4.39040      -4.10420
     6  H(1)               0.00006       0.25363       0.09050       0.08460
     7  H(1)               0.00002       0.09992       0.03565       0.03333
     8  H(1)              -0.00005      -0.22429      -0.08003      -0.07482
     9  H(1)               0.00038       1.69177       0.60367       0.56432
    10  H(1)               0.00352      15.73568       5.61488       5.24886
    11  H(1)               0.00034       1.53697       0.54843       0.51268
    12  H(1)               0.00026       1.14482       0.40850       0.38187
    13  H(1)               0.00109       4.86323       1.73532       1.62220
    14  H(1)              -0.00004      -0.19963      -0.07123      -0.06659
    15  H(1)               0.00024       1.05292       0.37571       0.35122
    16  H(1)              -0.00002      -0.09756      -0.03481      -0.03254
    17  O(17)              0.03839     -23.27050      -8.30349      -7.76220
    18  O(17)              0.04056     -24.58832      -8.77372      -8.20178
 --------------------------------------------------------
       Center         ----  Spin Dipole Couplings  ----
                      3XX-RR        3YY-RR        3ZZ-RR
 --------------------------------------------------------
     1   Atom        0.005943     -0.003193     -0.002750
     2   Atom        0.025160     -0.013336     -0.011824
     3   Atom        0.005080     -0.003791     -0.001289
     4   Atom        0.007361     -0.002411     -0.004950
     5   Atom        0.012852     -0.008605     -0.004247
     6   Atom        0.002777     -0.000345     -0.002432
     7   Atom        0.002861     -0.002690     -0.000171
     8   Atom        0.002455     -0.001518     -0.000936
     9   Atom        0.003205     -0.008205      0.005000
    10   Atom        0.002742     -0.003929      0.001187
    11   Atom        0.003965     -0.003525     -0.000440
    12   Atom        0.003276      0.001291     -0.004567
    13   Atom        0.002463     -0.001080     -0.001383
    14   Atom        0.002374     -0.001421     -0.000953
    15   Atom        0.002413     -0.001352     -0.001061
    16   Atom        0.002141     -0.001373     -0.000767
    17   Atom       -0.156788     -0.446095      0.602882
    18   Atom       -0.312760     -0.780441      1.093201
 --------------------------------------------------------
                        XY            XZ            YZ
 --------------------------------------------------------
     1   Atom        0.002750      0.002175      0.000793
     2   Atom       -0.010675      0.012804     -0.004490
     3   Atom       -0.000585     -0.004387      0.000312
     4   Atom       -0.005372      0.003898     -0.001467
     5   Atom       -0.003172     -0.015058     -0.003062
     6   Atom        0.003162      0.000656      0.000418
     7   Atom        0.003991      0.005694      0.003155
     8   Atom        0.000887      0.001699      0.000407
     9   Atom       -0.003089     -0.014047      0.003938
    10   Atom        0.006485     -0.009506     -0.004976
    11   Atom       -0.005232      0.008941     -0.005338
    12   Atom       -0.005893      0.000034     -0.000017
    13   Atom       -0.002006      0.001874     -0.000934
    14   Atom        0.000476     -0.001669     -0.000432
    15   Atom       -0.000528     -0.000270     -0.000066
    16   Atom       -0.001213     -0.001932      0.000846
    17   Atom       -0.510730      0.927887     -0.751366
    18   Atom       -0.971144      1.796474     -1.400733
 --------------------------------------------------------


 ---------------------------------------------------------------------------------
              Anisotropic Spin Dipole Couplings in Principal Axis System
 ---------------------------------------------------------------------------------

       Atom             a.u.   MegaHertz   Gauss  10(-4) cm-1        Axes

              Baa    -0.0040    -0.537    -0.192    -0.179 -0.2111  0.9489 -0.2347
     1 C(13)  Bbb    -0.0032    -0.435    -0.155    -0.145 -0.2756  0.1725  0.9457
              Bcc     0.0072     0.972     0.347     0.324  0.9378  0.2643  0.2251
 
              Baa    -0.0171    -2.299    -0.820    -0.767 -0.0099  0.7517  0.6594
     2 C(13)  Bbb    -0.0150    -2.007    -0.716    -0.669 -0.3836 -0.6118  0.6917
              Bcc     0.0321     4.306     1.536     1.436  0.9234 -0.2461  0.2944
 
              Baa    -0.0038    -0.514    -0.183    -0.171  0.0351  0.9975 -0.0617
     3 C(13)  Bbb    -0.0035    -0.473    -0.169    -0.158  0.4559  0.0390  0.8892
              Bcc     0.0074     0.987     0.352     0.329  0.8893 -0.0593 -0.4534
 
              Baa    -0.0061    -0.817    -0.291    -0.272 -0.2986 -0.0561  0.9527
     4 C(13)  Bbb    -0.0047    -0.637    -0.227    -0.212  0.3550  0.9201  0.1654
              Bcc     0.0108     1.454     0.519     0.485  0.8859 -0.3876  0.2548
 
              Baa    -0.0156    -2.093    -0.747    -0.698  0.4440  0.5206  0.7293
     5 C(13)  Bbb    -0.0061    -0.814    -0.290    -0.272 -0.2301  0.8528 -0.4687
              Bcc     0.0217     2.907     1.037     0.970  0.8660 -0.0403 -0.4984
 
              Baa    -0.0025    -1.342    -0.479    -0.448 -0.0695 -0.0899  0.9935
     6 H(1)   Bbb    -0.0023    -1.233    -0.440    -0.411 -0.5311  0.8464  0.0394
              Bcc     0.0048     2.575     0.919     0.859  0.8444  0.5249  0.1066
 
              Baa    -0.0048    -2.586    -0.923    -0.863 -0.1736  0.9013 -0.3968
     7 H(1)   Bbb    -0.0045    -2.419    -0.863    -0.807 -0.6617  0.1917  0.7249
              Bcc     0.0094     5.005     1.786     1.670  0.7294  0.3884  0.5631
 
[...]
 0.1075855,0.0557928,-0.0339366,0.1123564,-0.0154497,-0.050696,-0.04425
 68,-0.101164,-0.0089389,0.0400214,-0.0250753,-0.0794174,-0.0336671,0.0
 06473,-0.0581611,-0.006685,0.1179129,-0.0451738,0.0390712,0.0331593,0.
 1022652,-0.0037913,-0.0316561,-0.0142557,0.0522703,0.0389489,-0.003980
 4,-0.0141824,-0.1002713,-0.0283435,-0.0346213,-0.0007906,-0.0041537,0.
 0145523,-0.02563,-0.001905,-0.0627587,0.1096837,-0.0495767,0.0680065,0
 .0112639,-0.0551864,0.0052239,-0.1037275,-0.0227364,0.0357804,-0.01485
 53,-0.0822769,0.0008164,0.0157309,0.063111,0.0266251,0.0049251,0.02328
 95,-0.0878841,-0.0626324,0.0112913,-0.1117204,-0.0272404,-0.0567036,-0
 .0481379,0.1217329,-0.0166344,0.0443367,0.0269779,0.0953141,0.0453588,
 -0.0274168,0.0360533,0.0124272,-0.0323697,0.0577137,-0.0858173,0.11296
 74,-0.0546826,0.0806444,-0.0108888,-0.0845698,-0.0246555,0.0562269,-0.
 037176,0.0601298,0.0171026,0.1070042,0.0310158,-0.0274357,0.0433419,0.
 036624,0.0181342,-0.0028023,-0.0691063,-0.1194836,-0.0197578,-0.099523
 3,-0.0293373,-0.3607924,0.1090262,0.0178144,0.0986106,-0.3085985,-0.02
 44184,-0.0107418,0.0204027,-0.1531892,-0.1643817,-0.173716,-0.025169,-
 0.1102698,0.0331356,0.0311708,-0.0076034,-0.0214994,-0.176257\Polar=77
 .4177628,-4.7605313,67.8641485,1.049032,-0.4029445,64.8189896\Quadrupo
 le=-3.5788849,1.1107609,2.468124,0.3683284,-0.1547133,-0.4285113\PG=C0
 1 [X(C5H11O2)]\NImag=0\\0.57239175,0.01346250,0.49640231,0.01098934,-0
 .05704718,0.52816582,-0.07851214,0.00707197,0.00554221,0.46477113,0.00
 857663,-0.13180932,-0.04193117,-0.00296375,0.48180482,0.00730757,-0.04
 198666,-0.11032684,0.00203016,-0.00080200,0.48585083,0.00142353,-0.003
 65564,-0.00274868,-0.13792099,-0.01161111,-0.03881654,0.48404902,-0.02
 402336,-0.00858031,-0.01779857,-0.01160831,-0.07765153,-0.00727565,-0.
 01577458,0.56718336,-0.02036925,-0.00925036,-0.01620047,-0.03451149,-0
 .00646969,-0.09787738,-0.05406321,-0.00966625,0.53460267,-0.00084444,0
 .00565519,-0.00163381,-0.08150460,0.01560449,-0.01000329,-0.01126048,0
 .02526862,-0.02023858,0.56971116,0.00879012,-0.03312579,0.01128097,0.0
 1770934,-0.13682911,0.03803145,0.00370055,0.00192003,0.00193731,0.0193
 0028,0.49108558,0.00423291,-0.01511443,0.01125040,-0.01127115,0.037743
 31,-0.10184425,-0.00982725,0.01635595,-0.01446601,-0.01081562,0.054441
 55,0.53864816,-0.00612183,0.00493935,0.00905228,-0.09821681,-0.0065616
 1,0.04015335,-0.03350896,-0.00769625,0.01117143,0.00460529,-0.00480274
 ,0.00105746,0.37607182,0.02103097,0.00422615,-0.01933568,-0.00627388,-
 0.08091929,0.00872889,-0.00713523,-0.00165284,0.00231561,-0.02126535,-
 0.01010755,0.02271667,-0.07097642,0.63835368,0.02083108,-0.00058472,-0
 .02103839,0.04347958,0.01022395,-0.12162002,-0.01002038,-0.00264046,0.
 01073548,0.01552584,0.01025575,-0.01805235,-0.01309939,0.01775373,0.49
 544871,-0.06218007,0.05005575,-0.03231952,-0.00290559,0.00313415,-0.00
 212248,0.00023608,-0.00081419,0.00026662,0.00004832,0.00042523,0.00098
 245,0.00010707,0.00094646,-0.00097927,0.06265654,0.04975039,-0.2170348
 4,0.10905096,0.00566998,-0.02170404,0.01440428,0.00068330,0.00072601,0
 .00158525,0.00034402,-0.00324647,-0.00513386,-0.00048322,0.00040547,0.
 00162454,-0.05618720,0.23911313,-0.03253202,0.11069197,-0.11905358,0.0
 0480745,-0.01653803,0.01007375,0.00060415,-0.00021189,0.00107437,0.000
 47635,-0.00289504,-0.00208448,0.00000404,-0.00036745,0.00134318,0.0354
 1623,-0.11948687,0.12778445,-0.23312815,-0.04017660,-0.11370874,0.0046
 0369,0.00091755,0.00254379,0.00055867,0.00030193,0.00044109,0.00030753
 ,0.00000749,0.00027506,0.00000959,-0.00067930,-0.00026809,-0.00559271,
 -0.00083088,-0.00255606,0.25228711,-0.03866236,-0.05651632,-0.02329113
 ,-0.02250328,-0.00497497,-0.01212433,0.00173005,-0.00413032,-0.0029314
 3,-0.00120137,0.00145746,-0.00027140,-0.00069759,0.00070858,0.00037379
 ,0.02310638,0.00567666,0.01314134,0.04309708,0.05978274,-0.11169094,-0
 .02389825,-0.11559448,-0.01688873,-0.00267722,-0.01130373,0.00184369,-
 0.00351285,-0.00224316,0.00008322,0.00117155,0.00043346,-0.00166136,0.
 00013400,-0.00023080,-0.01404845,-0.00334990,-0.00899142,0.12399922,0.
 02892705,0.12444866,-0.18795907,-0.03590073,0.12425199,-0.00394063,-0.
 00077912,0.00239454,0.00072991,-0.00012119,-0.00089884,-0.00008878,-0.
 00061435,0.00002704,0.00058678,0.00094883,-0.00058694,0.00660804,0.000
 97067,-0.00602719,-0.01927903,-0.00517128,0.01822807,0.20232954,-0.037
 11076,-0.05605244,0.03318917,0.01973043,0.00378879,-0.01743539,0.00093
 299,0.00105947,0.00065281,0.00055934,0.00149306,-0.00060304,-0.0000709
 6,-0.00469517,-0.00308145,-0.02031640,-0.00469797,0.01634713,-0.003465
 10,-0.00193662,0.00379011,0.03986486,0.06036445,0.12360780,0.03183539,
 -0.15548397,0.01483712,0.00410879,-0.01486510,0.00102555,0.00122065,0.
 00060338,-0.00032337,0.00121153,0.00046139,-0.00063102,-0.00436720,-0.
 00231015,0.01225886,0.00286256,-0.01114503,-0.01217162,-0.00327368,0.0
 1229350,-0.13768731,-0.03276987,0.16914364,-0.00367138,-0.00221788,0.0
 0291726,-0.00283465,0.01748790,0.01297568,0.00110140,0.00101423,0.0008
 8598,0.00072393,0.00072115,-0.00098806,-0.05334823,0.04459088,0.033758
 70,0.00009586,-0.00027156,-0.00026346,0.00009129,-0.00007648,-0.000008
 56,-0.00011370,0.00115322,0.00118556,0.06656719,-0.00110420,0.00038430
 ,0.00121633,-0.00120785,0.00538211,0.00499362,0.00034436,0.00029025,0.
 00012660,-0.00022181,0.00119596,0.00042457,0.03405290,-0.21179302,-0.1
 2504179,-0.00015879,0.00023776,0.00005741,0.00000631,-0.00008573,-0.00
 000368,-0.00013596,0.00054806,0.00013603,-0.03431434,0.22541732,0.0030
 3129,0.00218070,-0.00163143,0.00498649,-0.01718704,-0.01349432,-0.0011
 3508,-0.00022921,0.00057328,-0.00066469,-0.00143563,0.00067668,0.02739
 126,-0.11917529,-0.14444267,0.00007978,-0.00021237,0.00015858,-0.00017
 036,0.00009339,0.00013199,0.00022368,-0.00110088,-0.00066598,-0.027362
 12,0.13719303,0.15621681,0.00093778,-0.00064954,-0.00066486,0.00494947
 ,-0.01853341,0.01292579,0.00150063,-0.00066661,0.00070945,-0.00396054,
 -0.00016951,0.00301845,-0.05314379,0.03910568,-0.02698404,-0.00006799,
 0.00047061,-0.00005366,-0.00004238,0.00013820,0.00006180,0.00003973,-0
 .00007880,-0.00030428,0.00051930,0.00373335,-0.00164268,0.07271382,0.0
 0034324,0.00083273,-0.00098275,0.00204573,-0.00605840,0.00288159,0.000
 52607,-0.00005615,0.00015357,-0.00191787,0.00110268,0.00064736,0.04683
 176,-0.23226897,0.11020684,-0.00011438,0.00058880,0.00020024,-0.000025
 33,-0.00004542,0.00001505,-0.00011305,0.00013958,-0.00009202,0.0038144
 3,-0.01656372,0.01322756,-0.04851726,0.24275267,-0.00123441,0.00121328
 ,0.00077529,-0.00288457,0.01997606,-0.01258063,-0.00119404,-0.00030069
 ,0.00057197,0.00373921,-0.00047506,-0.00187778,-0.02606833,0.10552307,
 -0.11899826,0.00041669,-0.00082871,-0.00006361,-0.00000536,-0.00004294
 ,-0.00006239,-0.00002393,-0.00022340,0.00040644,0.00457758,-0.01488425
 ,0.01254003,0.03325679,-0.12195568,0.12722420,0.00009668,-0.00064834,0
 .00005361,-0.00557093,-0.00043828,-0.00320819,0.00056580,0.00188230,-0
 .00039112,-0.23527716,-0.02889936,-0.11622570,-0.00068834,-0.00008399,
 0.00034533,0.00026116,0.00004097,0.00016675,0.00027993,0.00056012,0.00
 021368,-0.00012298,0.00002889,-0.00007676,0.00002725,0.00009604,-0.000
 01521,0.00006507,0.00006801,-0.00008735,0.25538856,0.00051925,0.001755
 24,0.00044023,0.02381825,0.00403224,0.01303617,0.00040641,-0.00463088,
 0.00264893,-0.03005699,-0.05291950,-0.01873432,0.00039426,0.00086265,-
 0.00010020,-0.00028415,0.00025028,-0.00003388,-0.00024748,-0.00037134,
 -0.00029807,-0.00000230,-0.00010654,-0.00006198,-0.00011530,-0.0000946
 9,0.00005983,0.00016429,0.00002307,-0.00016062,0.03194890,0.05608295,0
 .00057272,-0.00086910,0.00037480,-0.01430795,-0.00318702,-0.01015538,0
 .00029515,0.00367093,-0.00164818,-0.11437477,-0.01736374,-0.11756903,-
 0.00190014,-0.00060020,-0.00027796,0.00020049,0.00000997,-0.00007750,0
 .00003801,0.00030125,0.00057643,0.00011520,0.00006408,0.00002729,0.000
 07304,0.00007716,-0.00002234,0.00007319,0.00001925,0.00017651,0.127526
 22,0.01719054,0.12606382,-0.00020276,0.00101496,-0.00106971,-0.0027160
 1,0.00499836,0.00458206,0.00024949,0.00049338,0.00097047,-0.05051273,0
 .02336987,0.01754770,0.00055860,-0.00080679,-0.00043746,0.00053467,0.0
 0052026,0.00020232,0.00018259,0.00024512,0.00019939,0.00020933,-0.0002
 3352,-0.00031799,0.00017073,-0.00008299,0.00004200,-0.00009523,0.00003
 117,-0.00002441,0.00430309,-0.02223909,-0.01647046,0.04997013,0.001205
 01,-0.00359879,0.00477731,0.00282373,-0.02174232,-0.01699066,-0.000935
 77,0.00074648,-0.00127197,0.02318787,-0.20805658,-0.12194845,0.0005737
 4,0.00042946,-0.00180968,0.00037232,-0.00153346,-0.00102098,-0.0000887
 0,0.00030262,0.00011004,0.00008815,0.00029325,0.00001240,-0.00064606,0
 .00014771,0.00084270,0.00014984,0.00036861,0.00016980,0.00012121,-0.00
 313175,-0.00228268,-0.02701457,0.22891620,-0.00070967,0.00274365,-0.00
 142283,-0.00215793,0.01420420,0.01039360,0.00040618,0.00039081,0.00095
 932,0.01766732,-0.12380058,-0.14222514,-0.00002101,0.00029938,0.001170
 35,-0.00019193,0.00084298,0.00081585,0.00011453,0.00012422,-0.00007662
 ,-0.00027815,0.00010827,0.00006731,-0.00002600,-0.00021998,-0.00003339
 ,-0.00021668,-0.00019635,0.00013561,0.00292227,-0.01242034,-0.01028238
 ,-0.01905803,0.13386928,0.15279354,0.00013406,0.00003665,-0.00020124,0
 .00443450,0.00169950,-0.00513643,0.00103433,0.00023205,-0.00058157,-0.
 19010375,-0.03699262,0.12398175,-0.00027491,0.00131942,-0.00152442,0.0
 0017362,-0.00012766,-0.00021891,-0.00010424,0.00000483,0.00013643,0.00
 031825,-0.00023301,-0.00014614,0.00001008,0.00007522,-0.00006422,0.000
 45320,0.00009822,-0.00019627,-0.01948984,-0.00457018,0.01816078,-0.002
 47898,-0.00012372,0.00114607,0.20545559,-0.00115494,0.00127867,0.00065
 082,-0.02042680,-0.00671660,0.01790916,-0.00106988,0.00081225,-0.00084
 685,-0.03573960,-0.05566366,0.02996290,0.00214169,-0.00454894,0.002185
 23,0.00020355,0.00038289,-0.00019635,-0.00002475,-0.00011063,-0.000023
 28,0.00055347,-0.00039758,-0.00041518,0.00004421,0.00012358,0.00008612
 ,-0.00127354,-0.00029095,0.00120996,-0.00330520,-0.00169652,0.00273493
 ,0.01979276,0.00590117,-0.01582346,0.03876872,0.06023381,0.00005509,-0
 .00116423,0.00039094,0.01317495,0.00355474,-0.01348624,0.00135655,-0.0
 0061534,0.00044767,0.12303915,0.03071405,-0.15247121,-0.00242870,0.003
 29672,-0.00149966,-0.00027022,-0.00010696,0.00005106,-0.00009450,-0.00
 000274,0.00003336,-0.00023802,0.00021173,0.00064405,-0.00026369,-0.000
 06311,0.00039645,0.00099044,0.00058993,-0.00059962,-0.01240196,-0.0033
 1249,0.01225746,0.01409253,0.00414004,-0.01244129,-0.13598436,-0.03690
 852,0.16542665,0.00084187,0.00106976,0.00096336,-0.00665221,0.02295860
 ,-0.01403547,-0.06118476,0.04741370,-0.03205238,-0.00488091,-0.0020339
 4,-0.00230569,0.00037021,0.00186875,-0.00122661,0.00028084,-0.00063341
 ,-0.00003560,-0.00004895,-0.00004626,0.00033234,-0.00000533,-0.0001643
 5,0.00001741,-0.00006227,-0.00002200,0.00007027,-0.00039701,-0.0005974
 7,0.00047311,-0.00017692,0.00141189,-0.00127007,0.00004893,-0.00022809
 ,0.00022898,0.00020642,-0.00002490,-0.00023662,0.06611126,-0.00031638,
 0.00089877,-0.00040226,-0.00065496,0.00334850,-0.00329951,0.04840367,-
 0.21586443,0.11181338,-0.00012532,0.00082317,-0.00043515,-0.00040476,-
 0.00005796,0.00004526,-0.00010373,0.00034064,0.00013770,0.00006495,0.0
 0022567,0.00004577,0.00004320,-0.00006136,-0.00005005,-0.00001484,-0.0
 0010103,0.00011805,0.00027243,0.00036436,-0.00023703,-0.00016137,0.000
 32630,0.00010802,-0.00027944,0.00031497,-0.00003527,-0.00011255,-0.000
 02044,-0.00016172,-0.05280860,0.23356364,0.00050799,0.00140233,0.00046
 218,-0.00291670,0.01359402,-0.01024993,-0.03216189,0.11087463,-0.12184
 832,-0.00347289,-0.00182819,-0.00153251,0.00101497,0.00029285,0.000152
 73,-0.00011707,-0.00084188,0.00000686,0.00012366,-0.00026542,0.0002921
 7,-0.00005437,0.00002389,-0.00010497,-0.00000377,-0.00010631,0.0000330
 6,-0.00018771,-0.00024538,0.00064990,-0.00044956,0.00119697,-0.0003093
 6,-0.00000780,0.00022503,0.00019233,0.00007435,-0.00033227,0.00037218,
 0.03805329,-0.12382314,0.13065470,0.00107646,0.00078831,0.00131579,-0.
 02363100,-0.00558106,0.01727723,-0.19327110,-0.03741292,0.12384775,0.0
 0103902,-0.00058041,0.00161111,-0.00252941,-0.00023945,-0.00474843,-0.
 00001165,-0.00002882,-0.00011074,0.00032069,0.00031879,-0.00016468,0.0
 0049617,-0.00043561,-0.00080400,0.00016756,0.00021126,-0.00017040,0.00
 027118,-0.00019262,-0.00003635,0.00042553,-0.00009167,-0.00017441,-0.0
 0008376,0.00002438,-0.00006857,0.00026409,0.00059315,-0.00089103,0.006
 59697,0.00096670,-0.00531629,0.21299378,-0.00037103,0.00011920,0.00091
 519,-0.00402349,-0.00250339,0.00316847,-0.03749358,-0.05575908,0.03145
 495,0.00080259,0.00017778,-0.00036482,-0.00040565,-0.00075727,-0.00095
 356,-0.00010872,-0.00008375,0.00006509,0.00026949,0.00001996,-0.000059
 61,-0.00002663,0.00006358,-0.00047298,-0.00015675,0.00015148,0.0003173
 0,0.00018609,0.00021945,-0.00038121,-0.00007017,-0.00012933,-0.0000502
 1,0.00010836,-0.00002055,-0.00009868,0.00010584,0.00029275,0.00012455,
 -0.02057178,-0.00487873,0.01650202,0.04217687,0.05671098,-0.00037285,0
 .00029050,0.00122050,-0.01441095,-0.00359176,0.00978779,0.12508350,0.0
 3169190,-0.14934668,-0.00019522,-0.00053129,0.00108306,-0.00142048,-0.
 00032616,-0.00179152,0.00008211,-0.00005200,-0.00010090,0.00005207,0.0
 0019646,0.00019831,0.00016602,0.00012740,-0.00001487,-0.00024070,0.000
 18806,0.00003634,-0.00008961,-0.00025174,-0.00000810,0.00010023,-0.000
 18714,0.00020141,0.00005689,0.00008497,-0.00010996,0.00016909,-0.00002
 280,0.00002522,0.01249948,0.00245090,-0.01103518,-0.13412547,-0.034295
 91,0.16182528,-0.00490152,-0.00025987,-0.00230848,0.00317599,-0.021927
 09,-0.01654730,-0.05059435,0.02277140,0.01743266,0.00115206,-0.0010376
 0,0.00060002,0.00092258,-0.00126384,-0.00119569,-0.00009917,0.00001262
 ,0.00020478,0.00035169,-0.00132637,-0.00126320,0.00009829,0.00012105,-
 0.00025179,-0.00036108,0.00021618,0.00034435,-0.00008708,0.00002500,0.
 00009788,0.00002098,-0.00006617,0.00030898,-0.00000703,0.00051714,0.00
 005140,-0.00005989,0.00015955,0.00001194,-0.00167818,0.00502105,0.0048
 3003,-0.00237072,0.02002879,0.01415093,0.05398134,-0.00194992,0.000643
 35,-0.00029953,0.00026999,-0.00515577,-0.00227575,0.02173379,-0.204392
 32,-0.12341676,0.00033298,0.00062966,0.00078951,0.00069854,-0.00046145
 ,-0.00064585,0.00007717,0.00046336,0.00014643,0.00017625,-0.00004992,-
 0.00058659,0.00017427,0.00002890,0.00000695,-0.00056237,0.00027890,0.0
 0033776,0.00002926,-0.00007408,-0.00011123,-0.00016141,0.00013138,0.00
 008245,0.00001168,0.00053301,-0.00009963,-0.00004104,-0.00000885,0.000
 06018,0.00286197,-0.01954890,-0.01628576,-0.00007671,0.00560590,0.0044
 5504,-0.02346198,0.22097847,-0.00403582,0.00043258,-0.00138274,0.00268
 371,-0.01276616,-0.01138055,0.01675518,-0.12254736,-0.14441785,0.00104
 784,-0.00099873,0.00041197,0.00109594,0.00015829,0.00011650,0.00010009
 ,-0.00018190,0.00018164,0.00008051,-0.00123129,-0.00045687,-0.00003428
 ,0.00029432,0.00040343,-0.00030380,0.00005695,0.00063034,-0.00005813,0
 .00008366,0.00001451,-0.00000867,0.00028489,0.00031865,-0.00046400,0.0
 0075915,0.00007216,-0.00004590,-0.00004383,-0.00010874,-0.00172140,0.0
 1391089,0.01227330,0.00173405,-0.01609849,-0.01251862,-0.01671046,0.13
 747344,0.15575578,0.00116503,-0.00046363,0.00010806,-0.03806252,-0.008
 12882,-0.00939107,-0.00331796,-0.00114862,0.00667259,0.00161792,0.0018
 6063,-0.00288301,-0.09163141,-0.04548628,-0.04435672,-0.00024028,0.000
 17289,-0.00013081,-0.00082376,0.00026768,0.00018678,-0.00005633,-0.000
 29167,-0.00045029,-0.01455507,-0.00418616,-0.00882441,-0.01698568,-0.0
 0164564,-0.00985617,0.00039015,-0.00005033,0.00084275,-0.00049429,-0.0
 0043667,-0.00025457,0.00044871,0.00047713,-0.00013567,0.00041767,0.000
 29381,-0.00006772,-0.00153130,-0.00008807,-0.00147933,0.00043545,-0.00
 006548,-0.00008988,0.32869546,0.00094887,0.00038135,-0.00032945,-0.007
 99446,-0.00144287,-0.00245952,-0.00088801,-0.00001396,0.00141645,-0.00
 014884,-0.00004952,-0.00027547,-0.01956128,-0.10190592,-0.02998817,-0.
 00006566,0.00001110,0.00003838,0.00053065,0.00030559,0.00027148,0.0001
 7619,0.00004820,0.00009200,-0.02642551,-0.00847986,-0.01475833,0.02523
 607,0.00731685,0.01229432,-0.00057290,-0.00056907,0.00034231,0.0001040
 9,0.00003588,0.00008693,0.00010854,0.00027911,-0.00032381,-0.00034299,
 0.00023460,-0.00028600,-0.00058846,0.00066741,-0.00008387,0.00046831,0
 .00043535,0.00044281,-0.12168711,0.38057238,0.00018203,-0.00071569,-0.
 00050578,0.00680989,0.00023943,0.01385320,0.00254110,0.00056063,-0.001
 76751,-0.00028867,0.00024062,-0.00023941,-0.02899781,-0.03928309,-0.07
 636533,0.00023624,-0.00007622,0.00007272,0.00117763,0.00027260,0.00038
 946,0.00041745,0.00028844,0.00031860,-0.02905666,-0.00704339,-0.013135
 18,-0.01561905,-0.00443969,-0.00668644,0.00101433,0.00008686,0.0000226
 7,0.00032117,0.00045954,0.00013226,0.00001940,0.00008482,0.00048207,0.
 00011592,-0.00009253,-0.00009565,0.00088450,0.00032313,0.00054096,0.00
 023480,0.00036787,0.00013148,0.08833598,0.05356255,0.09595083,-0.00054
 579,-0.00012222,-0.00053885,0.00053331,0.00114707,-0.00292940,-0.00039
 026,-0.00011157,0.00070840,-0.00077186,-0.00075412,0.00098254,-0.04376
 825,0.04439954,-0.00851310,0.00009527,-0.00007296,0.00004641,0.0000264
 5,0.00021675,0.00044129,0.00014982,0.00000938,0.00023227,0.00547179,0.
 00269847,0.00388004,-0.00667047,-0.00066000,-0.00095005,-0.00049802,-0
 .00093959,0.00029127,0.00036323,0.00041020,0.00044577,-0.00042123,0.00
 028538,0.00022411,0.00021236,-0.00008386,0.00015149,-0.00022251,-0.000
 36218,-0.00002570,0.00002063,-0.00004700,-0.00002498,-0.16547178,0.150
 70247,-0.02832827,0.21188730,0.00006597,-0.00020426,-0.00010327,-0.001
 48265,-0.00084887,0.00149586,0.00010260,-0.00000603,-0.00025155,-0.000
 37821,0.00011280,-0.00020086,0.02202824,0.00418237,0.01217681,-0.00016
 779,0.00010442,-0.00007522,0.00016644,-0.00025803,-0.00005558,0.000044
 95,0.00012033,0.00001665,-0.00402494,0.00296060,-0.00035769,0.00040284
 ,0.00164889,-0.00078568,-0.00040541,0.00018551,-0.00024796,-0.00003361
 ,0.00009409,0.00002459,-0.00024819,0.00014994,-0.00003303,-0.00011089,
 0.00009222,-0.00009740,0.00014827,0.00010362,-0.00014255,0.00000181,-0
 .00003699,-0.00002922,0.18060635,-0.27782662,-0.00483587,-0.19671578,0
 .26942601,-0.00037288,-0.00015976,0.00000057,0.00099793,0.00150561,-0.
 00077479,0.00005602,0.00003276,0.00024742,0.00043200,0.00004345,-0.000
 60296,-0.01471249,0.02223587,-0.00233984,0.00000940,-0.00010985,-0.000
 04595,0.00012917,0.00000427,0.00016214,0.00000502,0.00011667,0.0002210
 4,0.00214302,0.00289276,0.00203175,-0.00521522,0.00013856,-0.00161763,
 0.00052208,0.00036461,0.00032310,-0.00016464,-0.00012583,-0.00014073,0
 .00041158,-0.00021140,0.00007964,0.00012967,-0.00009331,0.00008650,-0.
 00006008,-0.00009522,0.00000696,0.00000916,0.00000147,-0.00004438,-0.0
 1822651,-0.02004262,-0.01309894,0.03390678,-0.00649805,0.01550610\\-0.
 00000134,-0.00000039,-0.00000034,0.00000034,-0.00000032,0.00000058,0.0
 0000151,0.00000006,-0.00000160,-0.00000011,-0.00000010,-0.00000036,-0.
 00000398,0.00000529,0.00000148,-0.00000111,-0.00000068,0.00000049,-0.0
 0000140,-0.00000049,0.00000110,-0.00000179,-0.00000121,-0.00000025,0.0
 0000256,-0.00000184,-0.00000178,0.00000142,-0.00000038,0.00000170,-0.0
 0000046,-0.00000011,0.00000014,0.00000067,-0.00000001,-0.00000077,-0.0
 0000087,-0.00000104,-0.00000106,0.00000076,-0.00000012,-0.00000112,-0.
 00000016,-0.00000093,-0.00000167,0.00000146,0.00000014,-0.00000156,0.0
 0000167,0.00000025,0.00000288,0.00000082,0.00000186,0.00000215\\\@
 The archive entry for this job was punched.


 Everything starts as somebody's daydream.
                           -- Larry Niven
 Job cpu time:       0 days  1 hours 58 minutes  5.8 seconds.
 Elapsed time:       0 days  0 hours 14 minutes 46.2 seconds.
 File lengths (MBytes):  RWF=    345 Int=      0 D2E=      0 Chk=     16 Scr=      1
 Normal termination of Gaussian 16 at Tue Apr 12 17:00:51 2022.
