 Entering Gaussian System, Link 0=g16
 Initial command:
 /apps/chpc/chem/gaussian16/B01/g16/l1.exe "/mnt/lustre/users/kharejane/Tebello/4099692.sched01/Gau-173696.inp" -scrdir="/mnt/lustre/users/kharejane/Tebello/4099692.sched01/"
 Entering Link 1 = /apps/chpc/chem/gaussian16/B01/g16/l1.exe PID=    173699.
  
 Copyright (c) 1988-2017, Gaussian, Inc.  All Rights Reserved.
  
 This is part of the Gaussian(R) 16 program.  It is based on
 the Gaussian(R) 09 system (copyright 2009, Gaussian, Inc.),
 the Gaussian(R) 03 system (copyright 2003, Gaussian, Inc.),
 the Gaussian(R) 98 system (copyright 1998, Gaussian, Inc.),
 the Gaussian(R) 94 system (copyright 1995, Gaussian, Inc.),
 the Gaussian 92(TM) system (copyright 1992, Gaussian, Inc.),
 the Gaussian 90(TM) system (copyright 1990, Gaussian, Inc.),
 the Gaussian 88(TM) system (copyright 1988, Gaussian, Inc.),
 the Gaussian 86(TM) system (copyright 1986, Carnegie Mellon
 University), and the Gaussian 82(TM) system (copyright 1983,
 Carnegie Mellon University). Gaussian is a federally registered
 trademark of Gaussian, Inc.
  
 This software contains proprietary and confidential information,
 including trade secrets, belonging to Gaussian, Inc.
  
 This software is provided under written license and may be
 used, copied, transmitted, or stored only in accord with that
 written license.
  
 The following legend is applicable only to US Government
 contracts under FAR:
  
                    RESTRICTED RIGHTS LEGEND
  
 Use, reproduction and disclosure by the US Government is
 subject to restrictions as set forth in subparagraphs (a)
 and (c) of the Commercial Computer Software - Restricted
 Rights clause in FAR 52.227-19.
  
 Gaussian, Inc.
 340 Quinnipiac St., Bldg. 40, Wallingford CT 06492
  
  
 ---------------------------------------------------------------
 Warning -- This program may not be used in any manner that
 competes with the business of Gaussian, Inc. or will provide
 assistance to any competitor of Gaussian, Inc.  The licensee
 of this program is prohibited from giving any competitor of
 Gaussian, Inc. access to this program.  By using this program,
 the user acknowledges that Gaussian, Inc. is engaged in the
 business of creating and licensing software in the field of
 computational chemistry and represents and warrants to the
 licensee that it is not a competitor of Gaussian, Inc. and that
 it will not use this program in any manner prohibited above.
 ---------------------------------------------------------------
  

 Cite this work as:
 Gaussian 16, Revision B.01,
 M. J. Frisch, G. W. Trucks, H. B. Schlegel, G. E. Scuseria, 
 M. A. Robb, J. R. Cheeseman, G. Scalmani, V. Barone, 
 G. A. Petersson, H. Nakatsuji, X. Li, M. Caricato, A. V. Marenich, 
 J. Bloino, B. G. Janesko, R. Gomperts, B. Mennucci, H. P. Hratchian, 
 J. V. Ortiz, A. F. Izmaylov, J. L. Sonnenberg, D. Williams-Young, 
 F. Ding, F. Lipparini, F. Egidi, J. Goings, B. Peng, A. Petrone, 
 T. Henderson, D. Ranasinghe, V. G. Zakrzewski, J. Gao, N. Rega, 
 G. Zheng, W. Liang, M. Hada, M. Ehara, K. Toyota, R. Fukuda, 
 J. Hasegawa, M. Ishida, T. Nakajima, Y. Honda, O. Kitao, H. Nakai, 
 T. Vreven, K. Throssell, J. A. Montgomery, Jr., J. E. Peralta, 
 F. Ogliaro, M. J. Bearpark, J. J. Heyd, E. N. Brothers, K. N. Kudin, 
 V. N. Staroverov, T. A. Keith, R. Kobayashi, J. Normand, 
 K. Raghavachari, A. P. Rendell, J. C. Burant, S. S. Iyengar, 
 J. Tomasi, M. Cossi, J. M. Millam, M. Klene, C. Adamo, R. Cammi, 
 J. W. Ochterski, R. L. Martin, K. Morokuma, O. Farkas, 
 J. B. Foresman, and D. J. Fox, Gaussian, Inc., Wallingford CT, 2016.
 
 ******************************************
 Gaussian 16:  ES64L-G16RevB.01 20-Dec-2017
                30-Mar-2022 
 ******************************************
 %nprocshared=24
 Will use up to   24 processors via shared memory.
 %lindaworkers=cnode1008.cm.cluster,cnode1268.cm.cluster
 %mem=20GB
 %chk=QOOHneop-OOH-Elim-TS4-b3lyp-c-A.chk
 SetLPE:    new flags="-opt 'Tsnet.Node.lindarsharg: ssh'  -nodelist 'cnode1008.cm.cluster cnode1268.cm.cluster' -env GAUSS_MDEF=2684354560 -env GAUSS_EXEDIR="/apps/chpc/chem/gaussian16/B01/g16/bsd:/apps/chpc/chem/gaussian16/B01/g16""
 Will use up to    2 processors via Linda.
 ---------------------------------------------------
 # opt=(calcfc,ts,noeigentest) freq ub3lyp cc-pvtz+d
 ---------------------------------------------------
 1/5=1,10=4,11=1,18=20,26=3,38=1/1,3;
 2/9=110,12=2,17=6,18=5,40=1/2;
 3/5=16,6=1,7=9,11=2,25=1,30=1,71=2,74=-5,116=2,140=1/1,2,3;
 4//1;
 5/5=2,38=5/2;
 8/6=4,10=90,11=11/1;
 11/6=1,8=1,9=11,15=111,16=1/1,2,10;
 10/6=1,13=1/2;
 6/7=2,8=2,9=2,10=2,28=1/1;
 7/10=1,18=20,25=1/1,2,3,16;
 1/5=1,10=4,11=1,18=20,26=3/3(2);
 2/9=110/2;
 99//99;
 2/9=110/2;
 3/5=16,6=1,7=9,11=2,25=1,30=1,71=1,74=-5,116=2/1,2,3;
 4/5=5,16=3,69=1/1;
 5/5=2,38=5/2;
 7//1,2,3,16;
 1/5=1,11=1,18=20,26=3/3(-5);
 2/9=110/2;
 6/7=2,8=2,9=2,10=2,19=2,28=1/1;
 99/9=1/99;
 -------------------------------
 QOOHneop-OOH-Elim-TS4-b3lyp-c-A
 -------------------------------
 Symbolic Z-matrix:
 Charge =  0 Multiplicity = 2
 C                     0.64083   0.03577   0.07046 
 C                     0.1281    1.43929   0.00184 
 H                     0.7623    2.258     0.31223 
 H                    -0.90152   1.63491  -0.2562 
 H                    -2.30782   0.80366   0.75558 
 C                     0.54228  -0.51752   1.51535 
 H                    -0.5      -0.56643   1.82338 
 H                     0.96289  -1.52426   1.56763 
 H                     1.09492   0.12079   2.20433 
 C                     2.14182   0.00029  -0.37447 
 H                     2.54791  -1.00906  -0.31179 
 H                     2.26206   0.36815  -1.39229 
 H                     2.71557   0.64482   0.29461 
 C                    -0.04964  -0.79886  -0.81646 
 H                    -0.38247  -0.42977  -1.77509 
 H                    -0.06727  -1.86827  -0.66211 
 O                    -2.42905   0.54018  -0.1687 
 O                    -1.95055  -0.76281  -0.19581 
 
 Add virtual bond connecting atoms H5         and H4         Dist= 3.63D+00.
 Add virtual bond connecting atoms O17        and H4         Dist= 3.56D+00.
 Add virtual bond connecting atoms O18        and C14        Dist= 3.78D+00.

 GradGradGradGradGradGradGradGradGradGradGradGradGradGradGradGradGradGrad
 Berny optimization.
 Initialization pass.
                           ----------------------------
                           !    Initial Parameters    !
                           ! (Angstroms and Degrees)  !
 --------------------------                            --------------------------
 ! Name  Definition              Value          Derivative Info.                !
 --------------------------------------------------------------------------------
 ! R1    R(1,2)                  1.4958         calculate D2E/DX2 analytically  !
 ! R2    R(1,6)                  1.5503         calculate D2E/DX2 analytically  !
 ! R3    R(1,10)                 1.5659         calculate D2E/DX2 analytically  !
 ! R4    R(1,14)                 1.4            calculate D2E/DX2 analytically  !
 ! R5    R(2,3)                  1.0811         calculate D2E/DX2 analytically  !
 ! R6    R(2,4)                  1.0793         calculate D2E/DX2 analytically  !
 ! R7    R(4,5)                  1.9215         calculate D2E/DX2 analytically  !
 ! R8    R(4,17)                 1.8813         calculate D2E/DX2 analytically  !
 ! R9    R(5,17)                 0.9687         calculate D2E/DX2 analytically  !
 ! R10   R(6,7)                  1.0879         calculate D2E/DX2 analytically  !
 ! R11   R(6,8)                  1.0923         calculate D2E/DX2 analytically  !
 ! R12   R(6,9)                  1.0897         calculate D2E/DX2 analytically  !
 ! R13   R(10,11)                1.0898         calculate D2E/DX2 analytically  !
 ! R14   R(10,12)                1.0889         calculate D2E/DX2 analytically  !
 ! R15   R(10,13)                1.0919         calculate D2E/DX2 analytically  !
 ! R16   R(14,15)                1.0798         calculate D2E/DX2 analytically  !
 ! R17   R(14,16)                1.0806         calculate D2E/DX2 analytically  !
 ! R18   R(14,18)                2.0            calculate D2E/DX2 analytically  !
 ! R19   R(17,18)                1.3883         calculate D2E/DX2 analytically  !
 ! A1    A(2,1,6)              110.8443         calculate D2E/DX2 analytically  !
 ! A2    A(2,1,10)             109.6809         calculate D2E/DX2 analytically  !
 ! A3    A(2,1,14)             111.1779         calculate D2E/DX2 analytically  !
 ! A4    A(6,1,10)             108.5207         calculate D2E/DX2 analytically  !
 ! A5    A(6,1,14)             110.262          calculate D2E/DX2 analytically  !
 ! A6    A(10,1,14)            106.2141         calculate D2E/DX2 analytically  !
 ! A7    A(1,2,3)              119.7559         calculate D2E/DX2 analytically  !
 ! A8    A(1,2,4)              120.5315         calculate D2E/DX2 analytically  !
 ! A9    A(3,2,4)              119.4045         calculate D2E/DX2 analytically  !
 ! A10   A(2,4,5)              119.5942         calculate D2E/DX2 analytically  !
 ! A11   A(2,4,17)             131.1439         calculate D2E/DX2 analytically  !
 ! A12   A(1,6,7)              109.9263         calculate D2E/DX2 analytically  !
 ! A13   A(1,6,8)              110.4291         calculate D2E/DX2 analytically  !
 ! A14   A(1,6,9)              110.3622         calculate D2E/DX2 analytically  !
 ! A15   A(7,6,8)              108.2956         calculate D2E/DX2 analytically  !
 ! A16   A(7,6,9)              109.4612         calculate D2E/DX2 analytically  !
 ! A17   A(8,6,9)              108.3199         calculate D2E/DX2 analytically  !
 ! A18   A(1,10,11)            111.2119         calculate D2E/DX2 analytically  !
 ! A19   A(1,10,12)            111.3314         calculate D2E/DX2 analytically  !
 ! A20   A(1,10,13)            108.4323         calculate D2E/DX2 analytically  !
 ! A21   A(11,10,12)           108.996          calculate D2E/DX2 analytically  !
 ! A22   A(11,10,13)           108.4011         calculate D2E/DX2 analytically  !
 ! A23   A(12,10,13)           108.3803         calculate D2E/DX2 analytically  !
 ! A24   A(1,14,15)            120.7082         calculate D2E/DX2 analytically  !
 ! A25   A(1,14,16)            120.4997         calculate D2E/DX2 analytically  !
 ! A26   A(1,14,18)            105.1541         calculate D2E/DX2 analytically  !
 ! A27   A(15,14,16)           117.3897         calculate D2E/DX2 analytically  !
 ! A28   A(15,14,18)            88.6461         calculate D2E/DX2 analytically  !
 ! A29   A(16,14,18)            87.5928         calculate D2E/DX2 analytically  !
 ! A30   A(4,17,18)            105.3893         calculate D2E/DX2 analytically  !
 ! A31   A(5,17,18)            103.3423         calculate D2E/DX2 analytically  !
 ! A32   A(14,18,17)           110.5213         calculate D2E/DX2 analytically  !
 ! D1    D(6,1,2,3)             80.3061         calculate D2E/DX2 analytically  !
 ! D2    D(6,1,2,4)            -93.2826         calculate D2E/DX2 analytically  !
 ! D3    D(10,1,2,3)           -39.5065         calculate D2E/DX2 analytically  !
 ! D4    D(10,1,2,4)           146.9048         calculate D2E/DX2 analytically  !
 ! D5    D(14,1,2,3)          -156.6747         calculate D2E/DX2 analytically  !
 ! D6    D(14,1,2,4)            29.7366         calculate D2E/DX2 analytically  !
 ! D7    D(2,1,6,7)             63.3204         calculate D2E/DX2 analytically  !
 ! D8    D(2,1,6,8)           -177.2504         calculate D2E/DX2 analytically  !
 ! D9    D(2,1,6,9)            -57.5135         calculate D2E/DX2 analytically  !
 ! D10   D(10,1,6,7)          -176.1756         calculate D2E/DX2 analytically  !
 ! D11   D(10,1,6,8)           -56.7463         calculate D2E/DX2 analytically  !
 ! D12   D(10,1,6,9)            62.9905         calculate D2E/DX2 analytically  !
 ! D13   D(14,1,6,7)           -60.2266         calculate D2E/DX2 analytically  !
 ! D14   D(14,1,6,8)            59.2027         calculate D2E/DX2 analytically  !
 ! D15   D(14,1,6,9)           178.9395         calculate D2E/DX2 analytically  !
 ! D16   D(2,1,10,11)          178.6891         calculate D2E/DX2 analytically  !
 ! D17   D(2,1,10,12)          -59.5482         calculate D2E/DX2 analytically  !
 ! D18   D(2,1,10,13)           59.5934         calculate D2E/DX2 analytically  !
 ! D19   D(6,1,10,11)           57.4664         calculate D2E/DX2 analytically  !
 ! D20   D(6,1,10,12)          179.229          calculate D2E/DX2 analytically  !
 ! D21   D(6,1,10,13)          -61.6293         calculate D2E/DX2 analytically  !
 ! D22   D(14,1,10,11)         -61.0737         calculate D2E/DX2 analytically  !
 ! D23   D(14,1,10,12)          60.689          calculate D2E/DX2 analytically  !
 ! D24   D(14,1,10,13)         179.8306         calculate D2E/DX2 analytically  !
 ! D25   D(2,1,14,15)           35.6343         calculate D2E/DX2 analytically  !
 ! D26   D(2,1,14,16)         -158.2327         calculate D2E/DX2 analytically  !
 ! D27   D(2,1,14,18)          -61.9734         calculate D2E/DX2 analytically  !
 ! D28   D(6,1,14,15)          158.9873         calculate D2E/DX2 analytically  !
 ! D29   D(6,1,14,16)          -34.8797         calculate D2E/DX2 analytically  !
 ! D30   D(6,1,14,18)           61.3796         calculate D2E/DX2 analytically  !
 ! D31   D(10,1,14,15)         -83.6272         calculate D2E/DX2 analytically  !
 ! D32   D(10,1,14,16)          82.5058         calculate D2E/DX2 analytically  !
 ! D33   D(10,1,14,18)         178.7651         calculate D2E/DX2 analytically  !
 ! D34   D(1,2,4,5)             54.9552         calculate D2E/DX2 analytically  !
 ! D35   D(1,2,4,17)            21.369          calculate D2E/DX2 analytically  !
 ! D36   D(3,2,4,5)           -118.6559         calculate D2E/DX2 analytically  !
 ! D37   D(3,2,4,17)          -152.2421         calculate D2E/DX2 analytically  !
 ! D38   D(2,4,17,18)          -22.9043         calculate D2E/DX2 analytically  !
 ! D39   D(1,14,18,17)          56.9086         calculate D2E/DX2 analytically  !
 ! D40   D(15,14,18,17)        -64.6123         calculate D2E/DX2 analytically  !
 ! D41   D(16,14,18,17)        177.8993         calculate D2E/DX2 analytically  !
 ! D42   D(4,17,18,14)         -15.8376         calculate D2E/DX2 analytically  !
 ! D43   D(5,17,18,14)         -96.3729         calculate D2E/DX2 analytically  !
 --------------------------------------------------------------------------------
 Trust Radius=3.00D-01 FncErr=1.00D-07 GrdErr=1.00D-06 EigMax=2.50D+02 EigMin=1.00D-04
 Number of steps in this run=    104 maximum allowed number of steps=    108.
 Search for a saddle point of order  1.
 GradGradGradGradGradGradGradGradGradGradGradGradGradGradGradGradGradGrad

                          Input orientation:                          
 ---------------------------------------------------------------------
 Center     Atomic      Atomic             Coordinates (Angstroms)
 Number     Number       Type             X           Y           Z
 ---------------------------------------------------------------------
      1          6           0        0.640834    0.035770    0.070463
      2          6           0        0.128105    1.439289    0.001844
      3          1           0        0.762299    2.257999    0.312227
      4          1           0       -0.901519    1.634911   -0.256203
      5          1           0       -2.307816    0.803658    0.755577
      6          6           0        0.542282   -0.517525    1.515354
      7          1           0       -0.499998   -0.566430    1.823378
      8          1           0        0.962890   -1.524258    1.567628
      9          1           0        1.094917    0.120786    2.204329
     10          6           0        2.141820    0.000292   -0.374465
     11          1           0        2.547909   -1.009058   -0.311786
     12          1           0        2.262057    0.368153   -1.392294
     13          1           0        2.715571    0.644824    0.294612
     14          6           0       -0.049636   -0.798863   -0.816463
     15          1           0       -0.382475   -0.429767   -1.775093
     16          1           0       -0.067274   -1.868271   -0.662110
     17          8           0       -2.429048    0.540176   -0.168702
     18          8           0       -1.950554   -0.762813   -0.195810
 ---------------------------------------------------------------------
                    Distance matrix (angstroms):
                    1          2          3          4          5
     1  C    0.000000
     2  C    1.495816   0.000000
     3  H    2.238639   1.081122   0.000000
     4  H    2.245621   1.079343   1.865380   0.000000
     5  H    3.123070   2.627899   3.425970   1.921549   0.000000
     6  C    1.550341   2.508262   3.033060   3.139420   3.232003
     7  H    2.176431   2.781260   3.443018   3.054796   2.507099
     8  H    2.186072   3.454151   3.990205   4.096673   4.095868
     9  H    2.183301   2.743012   2.873737   3.511773   3.760822
    10  C    1.565943   2.503471   2.733471   3.456570   4.660649
    11  H    2.207876   3.456619   3.775110   4.346518   5.291811
    12  H    2.208733   2.764906   2.954011   3.592157   5.068210
    13  H    2.173873   2.722475   2.533360   3.790384   5.046992
    14  C    1.400000   2.389675   3.358212   2.638722   3.184142
    15  H    2.161010   2.628987   3.590474   2.615212   3.410655
    16  H    2.159503   3.379196   4.320143   3.623950   3.764183
    17  O    3.120224   2.715975   3.656078   1.881342   0.968716
    18  O    2.724688   3.034657   4.091819   2.617862   1.867245
                    6          7          8          9         10
     6  C    0.000000
     7  H    1.087942   0.000000
     8  H    1.092316   1.767168   0.000000
     9  H    1.089740   1.777960   1.768895   0.000000
    10  C    2.529441   3.482943   2.736029   2.785804   0.000000
    11  H    2.757279   3.747610   2.511954   3.117462   1.089782
    12  H    3.492344   4.340845   3.745690   3.789341   1.088924
    13  H    2.750355   3.760870   3.065514   2.558936   1.091914
    14  C    2.422166   2.688050   2.689851   3.358711   2.374129
    15  H    3.419053   3.602983   3.765860   4.280374   2.918694
    16  H    2.633899   2.838960   2.480185   3.677433   2.907639
    17  O    3.575413   2.985664   4.333817   4.269132   4.607238
    18  O    3.033559   2.493952   3.489651   3.976972   4.166746
                   11         12         13         14         15
    11  H    0.000000
    12  H    1.773674   0.000000
    13  H    1.769507   1.768580   0.000000
    14  C    2.654453   2.652816   3.311358   0.000000
    15  H    3.326258   2.788684   3.877669   1.079808   0.000000
    16  H    2.774915   3.310671   3.869779   1.080634   1.845908
    17  O    5.214470   4.851106   5.166499   2.806105   2.776643
    18  O    4.506690   4.522914   4.898436   2.000000   2.250317
                   16         17         18
    16  H    0.000000
    17  O    3.409112   0.000000
    18  O    2.232984   1.388334   0.000000
 Stoichiometry    C5H11O2(2)
 Framework group  C1[X(C5H11O2)]
 Deg. of freedom    48
 Full point group                 C1      NOp   1
 Largest Abelian subgroup         C1      NOp   1
 Largest concise Abelian subgroup C1      NOp   1
                         Standard orientation:                         
 ---------------------------------------------------------------------
 Center     Atomic      Atomic             Coordinates (Angstroms)
 Number     Number       Type             X           Y           Z
 ---------------------------------------------------------------------
      1          6           0        0.788705    0.054158   -0.011977
      2          6           0        0.254452    1.448660    0.074059
      3          1           0        0.896895    2.249430    0.412969
      4          1           0       -0.792268    1.646526   -0.099745
      5          1           0       -2.118633    0.705860    0.924098
      6          6           0        0.791857   -0.622432    1.382933
      7          1           0       -0.227372   -0.716809    1.751557
      8          1           0        1.227986   -1.621980    1.320880
      9          1           0        1.379972   -0.035263    2.087835
     10          6           0        2.257780    0.084685   -0.553333
     11          1           0        2.680135   -0.918628   -0.604341
     12          1           0        2.306544    0.540425   -1.541097
     13          1           0        2.865584    0.680144    0.130975
     14          6           0        0.052682   -0.714202   -0.921864
     15          1           0       -0.346776   -0.270691   -1.821706
     16          1           0        0.059012   -1.793036   -0.859844
     17          8           0       -2.296517    0.520203   -0.009872
     18          8           0       -1.803974   -0.766601   -0.180190
 ---------------------------------------------------------------------
 Rotational constants (GHZ):           4.1858089           1.6970588           1.6329577
 Standard basis: CC-pVTZ+d (5D, 7F)
 There are   410 symmetry adapted cartesian basis functions of A   symmetry.
 There are   364 symmetry adapted basis functions of A   symmetry.
   364 basis functions,   551 primitive gaussians,   410 cartesian basis functions
    29 alpha electrons       28 beta electrons
       nuclear repulsion energy       328.2643380251 Hartrees.
 NAtoms=   18 NActive=   18 NUniq=   18 SFac= 1.00D+00 NAtFMM=   60 NAOKFM=F Big=F
 Integral buffers will be    131072 words long.
 Raffenetti 2 integral format.
 Two-electron integral symmetry is turned on.
 One-electron integrals computed using PRISM.
 NBasis=   364 RedAO= T EigKep=  3.25D-04  NBF=   364
 NBsUse=   364 1.00D-06 EigRej= -1.00D+00 NBFU=   364
 ExpMin= 1.03D-01 ExpMax= 1.53D+04 ExpMxC= 5.22D+02 IAcc=3 IRadAn=         5 AccDes= 0.00D+00
 Harris functional with IExCor=  402 and IRadAn=       5 diagonalized for initial guess.
 HarFok:  IExCor=  402 AccDes= 0.00D+00 IRadAn=         5 IDoV= 1 UseB2=F ITyADJ=14
 ICtDFT=  3500011 ScaDFX=  1.000000  1.000000  1.000000  1.000000
 FoFCou: FMM=F IPFlag=           0 FMFlag=      100000 FMFlg1=           0
         NFxFlg=           0 DoJE=T BraDBF=F KetDBF=T FulRan=T
         wScrn=  0.000000 ICntrl=       500 IOpCl=  0 I1Cent=   200000004 NGrid=           0
         NMat0=    1 NMatS0=      1 NMatT0=    0 NMatD0=    1 NMtDS0=    0 NMtDT0=    0
 Petite list used in FoFCou.
 Initial guess <Sx>= 0.0000 <Sy>= 0.0000 <Sz>= 0.5000 <S**2>= 0.7500 S= 0.5000
 Requested convergence on RMS density matrix=1.00D-08 within 128 cycles.
 Requested convergence on MAX density matrix=1.00D-06.
 Requested convergence on             energy=1.00D-06.
 No special actions if energy rises.
 Integral accuracy reduced to 1.0D-05 until final iterations.
 Initial convergence to 1.0D-05 achieved.  Increase integral accuracy.
 SCF Done:  E(UB3LYP) =  -347.499233229     A.U. after   20 cycles
            NFock= 20  Conv=0.70D-08     -V/T= 2.0061
 <Sx>= 0.0000 <Sy>= 0.0000 <Sz>= 0.5000 <S**2>= 0.7539 S= 0.5020
 <L.S>= 0.000000000000E+00
 Annihilation of the first spin contaminant:
 S**2 before annihilation     0.7539,   after     0.7500
 DoSCS=F DFT=T ScalE2(SS,OS)=  1.000000  1.000000
 Range of M.O.s used for correlation:     1   364
 NBasis=   364 NAE=    29 NBE=    28 NFC=     0 NFV=     0
 NROrb=    364 NOA=    29 NOB=    28 NVA=   335 NVB=   336

 **** Warning!!: The largest alpha MO coefficient is  0.10876222D+02


 **** Warning!!: The largest beta MO coefficient is  0.10831241D+02

 Symmetrizing basis deriv contribution to polar:
 IMax=3 JMax=2 DiffMx= 0.00D+00
 G2DrvN: will do    19 centers at a time, making    1 passes.
 Calling FoFCou, ICntrl=  3107 FMM=F I1Cent=   0 AccDes= 0.00D+00.
 End of G2Drv F.D. properties file   721 does not exist.
 End of G2Drv F.D. properties file   722 does not exist.
 End of G2Drv F.D. properties file   788 does not exist.
          IDoAtm=111111111111111111
          Differentiating once with respect to nuclear coordinates.
 CalDSu exits because no D1Ps are significant.
          There are    57 degrees of freedom in the 1st order CPHF.  IDoFFX=6 NUNeed=     0.
     51 vectors produced by pass  0 Test12= 3.35D-14 1.75D-09 XBig12= 2.50D-01 1.67D-01.
 AX will form    51 AO Fock derivatives at one time.
     51 vectors produced by pass  1 Test12= 3.35D-14 1.75D-09 XBig12= 3.51D-02 3.14D-02.
     51 vectors produced by pass  2 Test12= 3.35D-14 1.75D-09 XBig12= 5.84D-04 4.58D-03.
     51 vectors produced by pass  3 Test12= 3.35D-14 1.75D-09 XBig12= 7.73D-06 3.24D-04.
     51 vectors produced by pass  4 Test12= 3.35D-14 1.75D-09 XBig12= 6.35D-08 2.28D-05.
     51 vectors produced by pass  5 Test12= 3.35D-14 1.75D-09 XBig12= 4.73D-10 2.21D-06.
     35 vectors produced by pass  6 Test12= 3.35D-14 1.75D-09 XBig12= 2.46D-12 1.45D-07.
      5 vectors produced by pass  7 Test12= 3.35D-14 1.75D-09 XBig12= 9.15D-15 7.92D-09.
 InvSVY:  IOpt=1 It=  1 EMax= 6.11D-16
 Solved reduced A of dimension   346 with    57 vectors.
 End of Minotr F.D. properties file   721 does not exist.
 End of Minotr F.D. properties file   722 does not exist.
 End of Minotr F.D. properties file   788 does not exist.

 **********************************************************************

            Population analysis using the SCF Density.

 **********************************************************************

 Orbital symmetries:
 Alpha Orbitals:
       Occupied  (A) (A) (A) (A) (A) (A) (A) (A) (A) (A) (A) (A)
                 (A) (A) (A) (A) (A) (A) (A) (A) (A) (A) (A) (A)
                 (A) (A) (A) (A) (A)
       Virtual   (A) (A) (A) (A) (A) (A) (A) (A) (A) (A) (A) (A)
                 (A) (A) (A) (A) (A) (A) (A) (A) (A) (A) (A) (A)
                 (A) (A) (A) (A) (A) (A) (A) (A) (A) (A) (A) (A)
                 (A) (A) (A) (A) (A) (A) (A) (A) (A) (A) (A) (A)
                 (A) (A) (A) (A) (A) (A) (A) (A) (A) (A) (A) (A)
                 (A) (A) (A) (A) (A) (A) (A) (A) (A) (A) (A) (A)
                 (A) (A) (A) (A) (A) (A) (A) (A) (A) (A) (A) (A)
                 (A) (A) (A) (A) (A) (A) (A) (A) (A) (A) (A) (A)
                 (A) (A) (A) (A) (A) (A) (A) (A) (A) (A) (A) (A)
                 (A) (A) (A) (A) (A) (A) (A) (A) (A) (A) (A) (A)
                 (A) (A) (A) (A) (A) (A) (A) (A) (A) (A) (A) (A)
                 (A) (A) (A) (A) (A) (A) (A) (A) (A) (A) (A) (A)
                 (A) (A) (A) (A) (A) (A) (A) (A) (A) (A) (A) (A)
                 (A) (A) (A) (A) (A) (A) (A) (A) (A) (A) (A) (A)
                 (A) (A) (A) (A) (A) (A) (A) (A) (A) (A) (A) (A)
                 (A) (A) (A) (A) (A) (A) (A) (A) (A) (A) (A) (A)
                 (A) (A) (A) (A) (A) (A) (A) (A) (A) (A) (A) (A)
                 (A) (A) (A) (A) (A) (A) (A) (A) (A) (A) (A) (A)
                 (A) (A) (A) (A) (A) (A) (A) (A) (A) (A) (A) (A)
                 (A) (A) (A) (A) (A) (A) (A) (A) (A) (A) (A) (A)
                 (A) (A) (A) (A) (A) (A) (A) (A) (A) (A) (A) (A)
                 (A) (A) (A) (A) (A) (A) (A) (A) (A) (A) (A) (A)
                 (A) (A) (A) (A) (A) (A) (A) (A) (A) (A) (A) (A)
                 (A) (A) (A) (A) (A) (A) (A) (A) (A) (A) (A) (A)
                 (A) (A) (A) (A) (A) (A) (A) (A) (A) (A) (A) (A)
                 (A) (A) (A) (A) (A) (A) (A) (A) (A) (A) (A) (A)
                 (A) (A) (A) (A) (A) (A) (A) (A) (A) (A) (A) (A)
                 (A) (A) (A) (A) (A) (A) (A) (A) (A) (A) (A)
 Beta  Orbitals:
       Occupied  (A) (A) (A) (A) (A) (A) (A) (A) (A) (A) (A) (A)
                 (A) (A) (A) (A) (A) (A) (A) (A) (A) (A) (A) (A)
                 (A) (A) (A) (A)
       Virtual   (A) (A) (A) (A) (A) (A) (A) (A) (A) (A) (A) (A)
                 (A) (A) (A) (A) (A) (A) (A) (A) (A) (A) (A) (A)
                 (A) (A) (A) (A) (A) (A) (A) (A) (A) (A) (A) (A)
                 (A) (A) (A) (A) (A) (A) (A) (A) (A) (A) (A) (A)
                 (A) (A) (A) (A) (A) (A) (A) (A) (A) (A) (A) (A)
                 (A) (A) (A) (A) (A) (A) (A) (A) (A) (A) (A) (A)
                 (A) (A) (A) (A) (A) (A) (A) (A) (A) (A) (A) (A)
                 (A) (A) (A) (A) (A) (A) (A) (A) (A) (A) (A) (A)
                 (A) (A) (A) (A) (A) (A) (A) (A) (A) (A) (A) (A)
                 (A) (A) (A) (A) (A) (A) (A) (A) (A) (A) (A) (A)
                 (A) (A) (A) (A) (A) (A) (A) (A) (A) (A) (A) (A)
                 (A) (A) (A) (A) (A) (A) (A) (A) (A) (A) (A) (A)
                 (A) (A) (A) (A) (A) (A) (A) (A) (A) (A) (A) (A)
                 (A) (A) (A) (A) (A) (A) (A) (A) (A) (A) (A) (A)
                 (A) (A) (A) (A) (A) (A) (A) (A) (A) (A) (A) (A)
                 (A) (A) (A) (A) (A) (A) (A) (A) (A) (A) (A) (A)
                 (A) (A) (A) (A) (A) (A) (A) (A) (A) (A) (A) (A)
                 (A) (A) (A) (A) (A) (A) (A) (A) (A) (A) (A) (A)
                 (A) (A) (A) (A) (A) (A) (A) (A) (A) (A) (A) (A)
                 (A) (A) (A) (A) (A) (A) (A) (A) (A) (A) (A) (A)
                 (A) (A) (A) (A) (A) (A) (A) (A) (A) (A) (A) (A)
                 (A) (A) (A) (A) (A) (A) (A) (A) (A) (A) (A) (A)
                 (A) (A) (A) (A) (A) (A) (A) (A) (A) (A) (A) (A)
                 (A) (A) (A) (A) (A) (A) (A) (A) (A) (A) (A) (A)
                 (A) (A) (A) (A) (A) (A) (A) (A) (A) (A) (A) (A)
                 (A) (A) (A) (A) (A) (A) (A) (A) (A) (A) (A) (A)
                 (A) (A) (A) (A) (A) (A) (A) (A) (A) (A) (A) (A)
                 (A) (A) (A) (A) (A) (A) (A) (A) (A) (A) (A) (A)
 The electronic state is 2-A.
 Alpha  occ. eigenvalues --  -19.16961 -19.15055 -10.23177 -10.20732 -10.18593
 Alpha  occ. eigenvalues --  -10.17887 -10.17550  -1.10211  -0.86364  -0.81932
 Alpha  occ. eigenvalues --   -0.70517  -0.70139  -0.68761  -0.55936  -0.50639
 Alpha  occ. eigenvalues --   -0.48614  -0.48026  -0.45301  -0.43702  -0.41730
 Alpha  occ. eigenvalues --   -0.40708  -0.39760  -0.37814  -0.37283  -0.36245
 Alpha  occ. eigenvalues --   -0.35493  -0.25235  -0.23924  -0.21429
 Alpha virt. eigenvalues --   -0.05395   0.02532   0.04732   0.06760   0.07782
 Alpha virt. eigenvalues --    0.08164   0.08688   0.09761   0.11304   0.12751
 Alpha virt. eigenvalues --    0.12969   0.14084   0.14920   0.16661   0.17274
 Alpha virt. eigenvalues --    0.18558   0.22098   0.24483   0.26665   0.27210
 Alpha virt. eigenvalues --    0.29424   0.31260   0.32698   0.34961   0.35251
 Alpha virt. eigenvalues --    0.35946   0.38058   0.39719   0.40831   0.42780
 Alpha virt. eigenvalues --    0.43278   0.43516   0.45080   0.45319   0.45491
 Alpha virt. eigenvalues --    0.46413   0.46779   0.47716   0.48368   0.49313
 Alpha virt. eigenvalues --    0.50287   0.52033   0.54002   0.55837   0.58278
 Alpha virt. eigenvalues --    0.60729   0.61125   0.63903   0.66946   0.67814
 Alpha virt. eigenvalues --    0.70424   0.72192   0.73320   0.74042   0.77110
 Alpha virt. eigenvalues --    0.79026   0.80249   0.81863   0.84475   0.85198
 Alpha virt. eigenvalues --    0.86505   0.88653   0.88840   0.90788   0.92166
 Alpha virt. eigenvalues --    0.93077   0.95265   0.96127   0.96946   0.98621
 Alpha virt. eigenvalues --    1.00587   1.01692   1.03478   1.05783   1.07706
 Alpha virt. eigenvalues --    1.08939   1.11226   1.11548   1.13357   1.14189
 Alpha virt. eigenvalues --    1.16806   1.17190   1.19259   1.20641   1.21847
 Alpha virt. eigenvalues --    1.22700   1.24249   1.26034   1.27070   1.27790
 Alpha virt. eigenvalues --    1.29195   1.29656   1.31538   1.32481   1.33217
 Alpha virt. eigenvalues --    1.35270   1.36952   1.38812   1.42202   1.43388
 Alpha virt. eigenvalues --    1.44486   1.45686   1.46367   1.49758   1.51637
 Alpha virt. eigenvalues --    1.52851   1.53878   1.55311   1.56010   1.58467
 Alpha virt. eigenvalues --    1.61550   1.65011   1.67273   1.69808   1.74276
 Alpha virt. eigenvalues --    1.78421   1.82557   1.87876   1.88761   1.97094
 Alpha virt. eigenvalues --    2.01137   2.11494   2.14968   2.19382   2.21123
 Alpha virt. eigenvalues --    2.23813   2.27666   2.28912   2.32685   2.34690
 Alpha virt. eigenvalues --    2.37711   2.39965   2.43856   2.44967   2.48192
 Alpha virt. eigenvalues --    2.50824   2.51445   2.53445   2.54694   2.56104
 Alpha virt. eigenvalues --    2.58428   2.59220   2.61145   2.62646   2.64207
 Alpha virt. eigenvalues --    2.66097   2.67583   2.70683   2.72144   2.77261
 Alpha virt. eigenvalues --    2.79060   2.79465   2.79982   2.80900   2.82109
 Alpha virt. eigenvalues --    2.85177   2.86115   2.88249   2.88976   2.92671
 Alpha virt. eigenvalues --    2.95617   2.96925   2.99194   2.99804   3.00049
 Alpha virt. eigenvalues --    3.02333   3.02626   3.04897   3.06791   3.07866
 Alpha virt. eigenvalues --    3.09179   3.10592   3.12188   3.12821   3.14354
 Alpha virt. eigenvalues --    3.16069   3.16405   3.17905   3.19580   3.22119
 Alpha virt. eigenvalues --    3.24505   3.26133   3.26663   3.29556   3.29860
 Alpha virt. eigenvalues --    3.32216   3.33368   3.34297   3.35456   3.37382
 Alpha virt. eigenvalues --    3.38369   3.39116   3.40948   3.44436   3.45752
 Alpha virt. eigenvalues --    3.48708   3.51510   3.51853   3.54959   3.55194
 Alpha virt. eigenvalues --    3.57207   3.58306   3.58907   3.62333   3.63779
 Alpha virt. eigenvalues --    3.64679   3.65843   3.68872   3.70850   3.71200
 Alpha virt. eigenvalues --    3.71405   3.73547   3.74823   3.77140   3.77299
 Alpha virt. eigenvalues --    3.79380   3.82480   3.83104   3.86341   3.88187
 Alpha virt. eigenvalues --    3.89884   3.90354   3.90655   3.96207   3.97040
 Alpha virt. eigenvalues --    3.98024   3.99291   4.01146   4.02583   4.04152
 Alpha virt. eigenvalues --    4.05036   4.06585   4.07342   4.09002   4.11314
 Alpha virt. eigenvalues --    4.12188   4.13030   4.13609   4.15940   4.16870
 Alpha virt. eigenvalues --    4.17346   4.19413   4.20444   4.22039   4.24860
 Alpha virt. eigenvalues --    4.26327   4.28170   4.30225   4.31219   4.32830
 Alpha virt. eigenvalues --    4.37194   4.37593   4.39160   4.39433   4.42705
 Alpha virt. eigenvalues --    4.43654   4.52973   4.54933   4.60749   4.62161
 Alpha virt. eigenvalues --    4.64311   4.68028   4.71945   4.73880   4.76603
 Alpha virt. eigenvalues --    4.78820   4.80069   4.82421   4.84436   4.85879
 Alpha virt. eigenvalues --    4.86969   4.88792   4.89018   4.92856   4.95129
 Alpha virt. eigenvalues --    4.97875   5.02092   5.02600   5.05617   5.08183
 Alpha virt. eigenvalues --    5.09845   5.11235   5.13886   5.15425   5.16714
 Alpha virt. eigenvalues --    5.18856   5.22432   5.23643   5.24967   5.25586
 Alpha virt. eigenvalues --    5.27832   5.29619   5.32788   5.33542   5.34193
 Alpha virt. eigenvalues --    5.35830   5.39505   5.42355   5.43628   5.47653
 Alpha virt. eigenvalues --    5.48753   5.52854   5.61478   5.62672   5.75052
 Alpha virt. eigenvalues --    5.78036   5.87658   5.93123   5.94122   5.96019
 Alpha virt. eigenvalues --    5.96783   5.98708   6.02496   6.08173   6.35057
 Alpha virt. eigenvalues --    6.38448   6.40327   6.47302   6.52805   6.61545
 Alpha virt. eigenvalues --    6.66902   6.71273   6.80931   7.00903   7.12763
 Alpha virt. eigenvalues --    7.17965   7.38575   7.61163   9.71255  10.75058
 Alpha virt. eigenvalues --   11.61988  12.49132  13.48096  13.59536  13.88520
  Beta  occ. eigenvalues --  -19.16930 -19.15034 -10.23163 -10.20806 -10.18553
  Beta  occ. eigenvalues --  -10.17436 -10.16519  -1.10150  -0.85954  -0.81773
  Beta  occ. eigenvalues --   -0.70317  -0.69976  -0.66138  -0.55431  -0.50550
  Beta  occ. eigenvalues --   -0.48321  -0.47703  -0.44819  -0.43551  -0.41578
  Beta  occ. eigenvalues --   -0.40494  -0.39592  -0.37570  -0.36827  -0.36044
  Beta  occ. eigenvalues --   -0.34856  -0.25199  -0.23339
  Beta virt. eigenvalues --   -0.07239  -0.05082   0.02628   0.04911   0.06851
  Beta virt. eigenvalues --    0.08011   0.08415   0.08929   0.09830   0.11456
  Beta virt. eigenvalues --    0.12973   0.13002   0.14159   0.15046   0.16876
  Beta virt. eigenvalues --    0.17510   0.18642   0.22331   0.24963   0.27165
  Beta virt. eigenvalues --    0.27580   0.29809   0.31706   0.33649   0.35454
  Beta virt. eigenvalues --    0.36256   0.37382   0.38289   0.40299   0.41591
  Beta virt. eigenvalues --    0.42854   0.43422   0.43990   0.45299   0.45510
  Beta virt. eigenvalues --    0.45840   0.46770   0.47161   0.48068   0.48677
  Beta virt. eigenvalues --    0.49500   0.50538   0.52227   0.54662   0.56437
  Beta virt. eigenvalues --    0.58617   0.61013   0.61380   0.64475   0.67115
  Beta virt. eigenvalues --    0.68044   0.70536   0.72343   0.73738   0.74336
  Beta virt. eigenvalues --    0.77283   0.79143   0.80596   0.82210   0.84784
  Beta virt. eigenvalues --    0.85525   0.86901   0.88888   0.89210   0.90968
  Beta virt. eigenvalues --    0.92506   0.93293   0.95428   0.96295   0.97147
  Beta virt. eigenvalues --    0.98982   1.00854   1.02116   1.03831   1.06139
  Beta virt. eigenvalues --    1.07879   1.09364   1.11381   1.12249   1.13849
  Beta virt. eigenvalues --    1.14465   1.17280   1.17444   1.19561   1.21033
  Beta virt. eigenvalues --    1.22160   1.23202   1.24400   1.26216   1.27525
  Beta virt. eigenvalues --    1.28401   1.29397   1.29924   1.31819   1.32671
  Beta virt. eigenvalues --    1.33692   1.35519   1.37733   1.39016   1.42387
  Beta virt. eigenvalues --    1.43662   1.44806   1.46022   1.46646   1.49924
  Beta virt. eigenvalues --    1.51895   1.52963   1.54162   1.55450   1.56334
  Beta virt. eigenvalues --    1.59010   1.61925   1.65420   1.67396   1.69961
  Beta virt. eigenvalues --    1.74562   1.78975   1.82752   1.87997   1.88837
  Beta virt. eigenvalues --    1.97500   2.01599   2.11704   2.17663   2.20059
  Beta virt. eigenvalues --    2.21466   2.24520   2.28001   2.29246   2.33497
  Beta virt. eigenvalues --    2.34906   2.38130   2.40568   2.44442   2.45543
  Beta virt. eigenvalues --    2.48634   2.51346   2.52008   2.54519   2.55050
  Beta virt. eigenvalues --    2.56634   2.59201   2.59653   2.61870   2.63648
  Beta virt. eigenvalues --    2.64745   2.66326   2.68393   2.71247   2.72981
  Beta virt. eigenvalues --    2.77328   2.79317   2.79806   2.80218   2.81619
  Beta virt. eigenvalues --    2.83449   2.85909   2.86627   2.88634   2.89824
  Beta virt. eigenvalues --    2.94103   2.96076   2.97364   2.99635   3.00202
  Beta virt. eigenvalues --    3.00945   3.03102   3.03664   3.05474   3.07088
  Beta virt. eigenvalues --    3.08417   3.10170   3.11039   3.12872   3.14250
  Beta virt. eigenvalues --    3.15424   3.16356   3.16707   3.18340   3.19829
  Beta virt. eigenvalues --    3.22808   3.24695   3.26489   3.27254   3.29824
  Beta virt. eigenvalues --    3.31028   3.32482   3.33560   3.34525   3.35658
  Beta virt. eigenvalues --    3.37619   3.38849   3.39481   3.41518   3.44618
  Beta virt. eigenvalues --    3.45965   3.49012   3.51957   3.52060   3.55171
  Beta virt. eigenvalues --    3.55466   3.57359   3.58528   3.59240   3.62525
  Beta virt. eigenvalues --    3.64091   3.64892   3.66098   3.69157   3.71166
  Beta virt. eigenvalues --    3.71398   3.71596   3.74026   3.75228   3.77306
  Beta virt. eigenvalues --    3.77738   3.79743   3.82857   3.83285   3.86460
  Beta virt. eigenvalues --    3.88283   3.90307   3.90592   3.90737   3.96295
  Beta virt. eigenvalues --    3.97173   3.98176   3.99467   4.01258   4.02686
  Beta virt. eigenvalues --    4.04333   4.05224   4.06660   4.07510   4.09251
  Beta virt. eigenvalues --    4.11609   4.12357   4.13075   4.13688   4.16040
  Beta virt. eigenvalues --    4.16933   4.17576   4.19544   4.20572   4.22223
  Beta virt. eigenvalues --    4.25047   4.26491   4.28414   4.30353   4.31467
  Beta virt. eigenvalues --    4.33142   4.37318   4.37761   4.39323   4.39510
  Beta virt. eigenvalues --    4.42787   4.43777   4.53151   4.55140   4.60796
  Beta virt. eigenvalues --    4.62518   4.64844   4.68121   4.72047   4.74062
  Beta virt. eigenvalues --    4.76726   4.78935   4.80495   4.82577   4.84649
  Beta virt. eigenvalues --    4.86118   4.87689   4.89126   4.89772   4.93312
  Beta virt. eigenvalues --    4.95244   4.97988   5.02245   5.03195   5.06035
  Beta virt. eigenvalues --    5.08251   5.10290   5.11441   5.13983   5.15556
  Beta virt. eigenvalues --    5.16792   5.19076   5.22706   5.23787   5.25096
  Beta virt. eigenvalues --    5.25772   5.27942   5.29749   5.32980   5.33649
  Beta virt. eigenvalues --    5.34280   5.35918   5.39641   5.42504   5.43836
  Beta virt. eigenvalues --    5.47841   5.48892   5.53022   5.61530   5.62815
  Beta virt. eigenvalues --    5.75224   5.78156   5.87796   5.93171   5.94205
  Beta virt. eigenvalues --    5.96164   5.96824   5.99001   6.02532   6.08246
  Beta virt. eigenvalues --    6.35114   6.38488   6.40398   6.47358   6.52889
  Beta virt. eigenvalues --    6.61640   6.66943   6.71331   6.80970   7.00978
  Beta virt. eigenvalues --    7.12832   7.17992   7.38615   7.61193   9.71291
  Beta virt. eigenvalues --   10.75133  11.62053  12.50888  13.48266  13.59652
  Beta virt. eigenvalues --   13.88615
          Condensed to atoms (all electrons):
               1          2          3          4          5          6
     1  C    4.929913   0.323340  -0.048573  -0.031846  -0.000177   0.338606
     2  C    0.323340   5.483850   0.408905   0.366954   0.018143  -0.063459
     3  H   -0.048573   0.408905   0.551330  -0.027266  -0.000248   0.000106
     4  H   -0.031846   0.366954  -0.027266   0.503479  -0.018309   0.001321
     5  H   -0.000177   0.018143  -0.000248  -0.018309   0.510743   0.003050
     6  C    0.338606  -0.063459   0.000106   0.001321   0.003050   4.943120
     7  H   -0.030576  -0.005944   0.000047   0.001952  -0.001935   0.395186
     8  H   -0.025986   0.011293  -0.000249  -0.000525   0.000157   0.387611
     9  H   -0.035764  -0.003622   0.001558   0.000439  -0.000257   0.392021
    10  C    0.333494  -0.065020  -0.007653   0.003355   0.000153  -0.051540
    11  H   -0.033705   0.009569   0.000024  -0.000242  -0.000015  -0.004311
    12  H   -0.034646   0.001527  -0.000093   0.000423  -0.000030   0.009046
    13  H   -0.030018  -0.004669   0.004886   0.000337  -0.000006  -0.005444
    14  C    0.283595  -0.074125   0.005859  -0.003015  -0.000711  -0.050466
    15  H   -0.043141  -0.003939   0.000293   0.002493  -0.000523   0.009390
    16  H   -0.038410   0.009148  -0.000370   0.000565  -0.000520  -0.007632
    17  O    0.005162  -0.050250   0.001447   0.053781   0.317159   0.001152
    18  O   -0.011092  -0.002818   0.000197  -0.009418  -0.041020  -0.014760
               7          8          9         10         11         12
     1  C   -0.030576  -0.025986  -0.035764   0.333494  -0.033705  -0.034646
     2  C   -0.005944   0.011293  -0.003622  -0.065020   0.009569   0.001527
     3  H    0.000047  -0.000249   0.001558  -0.007653   0.000024  -0.000093
     4  H    0.001952  -0.000525   0.000439   0.003355  -0.000242   0.000423
     5  H   -0.001935   0.000157  -0.000257   0.000153  -0.000015  -0.000030
     6  C    0.395186   0.387611   0.392021  -0.051540  -0.004311   0.009046
     7  H    0.561108  -0.025594  -0.025254   0.006869  -0.000030  -0.000394
     8  H   -0.025594   0.606654  -0.030206  -0.006592   0.002691  -0.000432
     9  H   -0.025254  -0.030206   0.597214  -0.003909  -0.000575  -0.000161
    10  C    0.006869  -0.006592  -0.003909   4.931853   0.398843   0.398335
    11  H   -0.000030   0.002691  -0.000575   0.398843   0.589146  -0.027390
    12  H   -0.000394  -0.000432  -0.000161   0.398335  -0.027390   0.578844
    13  H    0.000211   0.000114   0.003312   0.389270  -0.028141  -0.028848
    14  C   -0.007914  -0.009351   0.011064  -0.031781  -0.005711  -0.003452
    15  H    0.000405  -0.000633  -0.000463  -0.004328   0.000340   0.002767
    16  H    0.000383   0.003942  -0.000182  -0.006101   0.002415   0.000187
    17  O   -0.001120   0.000136  -0.000234  -0.000593   0.000035   0.000023
    18  O    0.020610  -0.000993   0.001079   0.003543  -0.000098  -0.000084
              13         14         15         16         17         18
     1  C   -0.030018   0.283595  -0.043141  -0.038410   0.005162  -0.011092
     2  C   -0.004669  -0.074125  -0.003939   0.009148  -0.050250  -0.002818
     3  H    0.004886   0.005859   0.000293  -0.000370   0.001447   0.000197
     4  H    0.000337  -0.003015   0.002493   0.000565   0.053781  -0.009418
     5  H   -0.000006  -0.000711  -0.000523  -0.000520   0.317159  -0.041020
     6  C   -0.005444  -0.050466   0.009390  -0.007632   0.001152  -0.014760
     7  H    0.000211  -0.007914   0.000405   0.000383  -0.001120   0.020610
     8  H    0.000114  -0.009351  -0.000633   0.003942   0.000136  -0.000993
     9  H    0.003312   0.011064  -0.000463  -0.000182  -0.000234   0.001079
    10  C    0.389270  -0.031781  -0.004328  -0.006101  -0.000593   0.003543
    11  H   -0.028141  -0.005711   0.000340   0.002415   0.000035  -0.000098
    12  H   -0.028848  -0.003452   0.002767   0.000187   0.000023  -0.000084
    13  H    0.593879   0.007182  -0.000148  -0.000009   0.000075  -0.000211
    14  C    0.007182   5.036160   0.407273   0.404900  -0.048443   0.171815
    15  H   -0.000148   0.407273   0.492060  -0.018384   0.003330  -0.008729
    16  H   -0.000009   0.404900  -0.018384   0.516412   0.001428  -0.008061
    17  O    0.000075  -0.048443   0.003330   0.001428   7.843501   0.066190
    18  O   -0.000211   0.171815  -0.008729  -0.008061   0.066190   8.143491
          Atomic-Atomic Spin Densities.
               1          2          3          4          5          6
     1  C   -0.020445  -0.052242  -0.000158  -0.000762  -0.000705   0.014992
     2  C   -0.052242   1.102552   0.013497   0.004052   0.005173  -0.033855
     3  H   -0.000158   0.013497  -0.051246   0.005559   0.000040  -0.000528
     4  H   -0.000762   0.004052   0.005559  -0.042040  -0.000401   0.000549
     5  H   -0.000705   0.005173   0.000040  -0.000401  -0.000857  -0.000860
     6  C    0.014992  -0.033855  -0.000528   0.000549  -0.000860   0.067687
     7  H   -0.000048   0.001179   0.000037  -0.000028   0.000042  -0.001407
     8  H   -0.004382   0.004114   0.000060  -0.000096   0.000139  -0.009655
     9  H   -0.000628   0.004184  -0.000013  -0.000056   0.000086  -0.003828
    10  C    0.013645  -0.016927   0.000586  -0.000722   0.000077  -0.006154
    11  H   -0.003165   0.001362  -0.000063   0.000068  -0.000009   0.002969
    12  H   -0.003956   0.008538  -0.000002   0.000157  -0.000016   0.001225
    13  H    0.001450  -0.000853  -0.000027   0.000003   0.000002  -0.001157
    14  C    0.010302  -0.012470  -0.000170  -0.000868   0.000579  -0.002002
    15  H   -0.002115   0.007363  -0.000059   0.000568  -0.000225   0.001175
    16  H   -0.000288   0.000019   0.000024   0.000103  -0.000086   0.001883
    17  O    0.000851  -0.008336  -0.000071   0.003688  -0.001344   0.000573
    18  O    0.000131   0.001654  -0.000005  -0.000287   0.000380  -0.000939
               7          8          9         10         11         12
     1  C   -0.000048  -0.004382  -0.000628   0.013645  -0.003165  -0.003956
     2  C    0.001179   0.004114   0.004184  -0.016927   0.001362   0.008538
     3  H    0.000037   0.000060  -0.000013   0.000586  -0.000063  -0.000002
     4  H   -0.000028  -0.000096  -0.000056  -0.000722   0.000068   0.000157
     5  H    0.000042   0.000139   0.000086   0.000077  -0.000009  -0.000016
     6  C   -0.001407  -0.009655  -0.003828  -0.006154   0.002969   0.001225
     7  H   -0.002308   0.000694   0.000735   0.000071  -0.000038  -0.000012
     8  H    0.000694   0.024635   0.002257   0.001548  -0.002266  -0.000372
     9  H    0.000735   0.002257  -0.002134   0.000686  -0.000323  -0.000126
    10  C    0.000071   0.001548   0.000686   0.023046  -0.003843  -0.006327
    11  H   -0.000038  -0.002266  -0.000323  -0.003843   0.008079   0.002861
    12  H   -0.000012  -0.000372  -0.000126  -0.006327   0.002861   0.001463
    13  H    0.000008   0.000273   0.000134   0.001431  -0.000932  -0.000352
    14  C    0.000262   0.000374   0.000076   0.004596  -0.001155  -0.001495
    15  H   -0.000045  -0.000356  -0.000059  -0.001814   0.000465   0.000699
    16  H   -0.000082  -0.001609  -0.000084  -0.000904   0.000431   0.000292
    17  O   -0.000103  -0.000091  -0.000060  -0.000042   0.000007   0.000019
    18  O    0.000073   0.000282   0.000057   0.000080  -0.000025  -0.000033
              13         14         15         16         17         18
     1  C    0.001450   0.010302  -0.002115  -0.000288   0.000851   0.000131
     2  C   -0.000853  -0.012470   0.007363   0.000019  -0.008336   0.001654
     3  H   -0.000027  -0.000170  -0.000059   0.000024  -0.000071  -0.000005
     4  H    0.000003  -0.000868   0.000568   0.000103   0.003688  -0.000287
     5  H    0.000002   0.000579  -0.000225  -0.000086  -0.001344   0.000380
     6  C   -0.001157  -0.002002   0.001175   0.001883   0.000573  -0.000939
     7  H    0.000008   0.000262  -0.000045  -0.000082  -0.000103   0.000073
     8  H    0.000273   0.000374  -0.000356  -0.001609  -0.000091   0.000282
     9  H    0.000134   0.000076  -0.000059  -0.000084  -0.000060   0.000057
    10  C    0.001431   0.004596  -0.001814  -0.000904  -0.000042   0.000080
    11  H   -0.000932  -0.001155   0.000465   0.000431   0.000007  -0.000025
    12  H   -0.000352  -0.001495   0.000699   0.000292   0.000019  -0.000033
    13  H   -0.000338   0.000132  -0.000053  -0.000021  -0.000004   0.000005
    14  C    0.000132   0.006873  -0.006956  -0.001665   0.000100   0.000531
    15  H   -0.000053  -0.006956   0.002956   0.001865   0.000431  -0.000850
    16  H   -0.000021  -0.001665   0.001865   0.002045   0.000126  -0.000463
    17  O   -0.000004   0.000100   0.000431   0.000126   0.015307  -0.002697
    18  O    0.000005   0.000531  -0.000850  -0.000463  -0.002697   0.009824
 Mulliken charges and spin densities:
               1          2
     1  C    0.149825  -0.047524
     2  C   -0.358882   1.029004
     3  H    0.109800  -0.032541
     4  H    0.155526  -0.030513
     5  H    0.214345   0.002017
     6  C   -0.282998   0.030669
     7  H    0.111991  -0.000970
     8  H    0.087962   0.015549
     9  H    0.093941   0.000905
    10  C   -0.288197   0.009032
    11  H    0.097153   0.004422
    12  H    0.104377   0.002563
    13  H    0.098228  -0.000298
    14  C   -0.092879  -0.002955
    15  H    0.161937   0.002989
    16  H    0.140292   0.001585
    17  O   -0.192780   0.008353
    18  O   -0.309641   0.007715
 Sum of Mulliken charges =  -0.00000   1.00000
 Mulliken charges and spin densities with hydrogens summed into heavy atoms:
               1          2
     1  C    0.149825  -0.047524
     2  C   -0.093557   0.965950
     6  C    0.010896   0.046152
    10  C    0.011562   0.015719
    14  C    0.209350   0.001619
    17  O    0.021565   0.010369
    18  O   -0.309641   0.007715
 APT charges:
               1
     1  C    0.134819
     2  C   -0.792670
     3  H    0.464404
     4  H    0.275288
     5  H    0.280243
     6  C   -0.988524
     7  H    0.241388
     8  H    0.357480
     9  H    0.395297
    10  C   -1.114528
    11  H    0.380268
    12  H    0.363357
    13  H    0.388784
    14  C   -0.587139
    15  H    0.371236
    16  H    0.387998
    17  O   -0.307182
    18  O   -0.250520
 Sum of APT charges =  -0.00000
 APT charges with hydrogens summed into heavy atoms:
               1
     1  C    0.134819
     2  C   -0.052978
     6  C    0.005642
    10  C    0.017881
    14  C    0.172095
    17  O   -0.026940
    18  O   -0.250520
 Electronic spatial extent (au):  <R**2>=            865.7786
 Charge=              0.0000 electrons
 Dipole moment (field-independent basis, Debye):
    X=              3.0906    Y=              0.2922    Z=              0.6921  Tot=              3.1806
 Quadrupole moment (field-independent basis, Debye-Ang):
   XX=            -50.1304   YY=            -44.4897   ZZ=            -42.6333
   XY=             -2.5428   XZ=             -3.0596   YZ=              1.8635
 Traceless Quadrupole moment (field-independent basis, Debye-Ang):
   XX=             -4.3793   YY=              1.2615   ZZ=              3.1178
   XY=             -2.5428   XZ=             -3.0596   YZ=              1.8635
 Octapole moment (field-independent basis, Debye-Ang**2):
  XXX=              0.2649  YYY=             -4.2809  ZZZ=             -2.1865  XYY=             -2.6690
  XXY=              4.9833  XXZ=              8.2806  XZZ=             -9.0299  YZZ=              0.1968
  YYZ=              0.8792  XYZ=             -1.2206
 Hexadecapole moment (field-independent basis, Debye-Ang**3):
 XXXX=           -702.8641 YYYY=           -236.7813 ZZZZ=           -216.5879 XXXY=             -6.0358
 XXXZ=            -15.1022 YYYX=             -4.8808 YYYZ=              7.2387 ZZZX=             -2.5377
 ZZZY=              2.0407 XXYY=           -150.8381 XXZZ=           -139.5107 YYZZ=            -79.9028
 XXYZ=              6.3718 YYXZ=             -0.7039 ZZXY=             -0.9381
 N-N= 3.282643380251D+02 E-N=-1.468112069582D+03  KE= 3.453903109389D+02
  Exact polarizability:   0.000   0.000   0.000   0.000   0.000   0.000
 Approx polarizability: 154.895  -5.611 104.003 -17.280   3.971  96.208
                          Isotropic Fermi Contact Couplings
        Atom                 a.u.       MegaHertz       Gauss      10(-4) cm-1
     1  C(13)             -0.02178     -24.48748      -8.73774      -8.16814
     2  C(13)              0.03951      44.41991      15.85013      14.81689
     3  H(1)              -0.01260     -56.31040     -20.09295     -18.78313
     4  H(1)              -0.01320     -59.01330     -21.05741     -19.68472
     5  H(1)              -0.00039      -1.73051      -0.61749      -0.57724
     6  C(13)              0.05320      59.80878      21.34126      19.95006
     7  H(1)              -0.00040      -1.79700      -0.64121      -0.59941
     8  H(1)               0.00590      26.38380       9.41440       8.80069
     9  H(1)              -0.00007      -0.29757      -0.10618      -0.09926
    10  C(13)              0.01817      20.42668       7.28875       6.81361
    11  H(1)               0.00172       7.70028       2.74765       2.56854
    12  H(1)              -0.00020      -0.88390      -0.31540      -0.29484
    13  H(1)              -0.00030      -1.33144      -0.47509      -0.44412
    14  C(13)              0.01184      13.31206       4.75007       4.44043
    15  H(1)              -0.00023      -1.04227      -0.37191      -0.34766
    16  H(1)               0.00081       3.62951       1.29510       1.21067
    17  O(17)             -0.00262       1.58688       0.56624       0.52933
    18  O(17)             -0.00148       0.89868       0.32067       0.29977
 --------------------------------------------------------
       Center         ----  Spin Dipole Couplings  ----
                      3XX-RR        3YY-RR        3ZZ-RR
 --------------------------------------------------------
     1   Atom       -0.010808      0.010485      0.000323
     2   Atom       -0.465750     -0.507894      0.973643
     3   Atom       -0.017986      0.006711      0.011275
     4   Atom        0.062727     -0.066167      0.003440
     5   Atom        0.009828     -0.007701     -0.002127
     6   Atom       -0.030718      0.015613      0.015106
     7   Atom       -0.003334      0.004071     -0.000737
     8   Atom       -0.003842      0.006439     -0.002598
     9   Atom       -0.003635     -0.002430      0.006065
    10   Atom        0.023388     -0.008444     -0.014945
    11   Atom        0.001151      0.002267     -0.003417
    12   Atom        0.004313     -0.003900     -0.000413
    13   Atom        0.010416     -0.004883     -0.005533
    14   Atom       -0.010493      0.017586     -0.007092
    15   Atom       -0.005712      0.004155      0.001556
    16   Atom       -0.003501      0.005521     -0.002020
    17   Atom        0.050513     -0.035598     -0.014915
    18   Atom        0.030372     -0.006972     -0.023399
 --------------------------------------------------------
                        XY            XZ            YZ
 --------------------------------------------------------
     1   Atom       -0.009963     -0.002246     -0.003474
     2   Atom        0.079952     -0.393157     -0.302566
     3   Atom        0.066685      0.009437      0.019673
     4   Atom       -0.022179      0.012421     -0.018353
     5   Atom        0.005914     -0.003988      0.000355
     6   Atom       -0.009122      0.010009     -0.048272
     7   Atom        0.003483     -0.005748     -0.009531
     8   Atom       -0.004856     -0.000223     -0.001566
     9   Atom       -0.003979      0.009510     -0.004716
    10   Atom       -0.016796     -0.003336      0.001674
    11   Atom       -0.004601     -0.001478      0.001051
    12   Atom       -0.005426     -0.008832      0.002016
    13   Atom       -0.003822      0.001618     -0.000112
    14   Atom        0.010832      0.003765      0.004038
    15   Atom        0.003873      0.004443      0.009315
    16   Atom        0.000716      0.000548      0.002815
    17   Atom        0.011633      0.037746      0.009861
    18   Atom        0.029605     -0.001216      0.001587
 --------------------------------------------------------


 ---------------------------------------------------------------------------------
              Anisotropic Spin Dipole Couplings in Principal Axis System
 ---------------------------------------------------------------------------------

       Atom             a.u.   MegaHertz   Gauss  10(-4) cm-1        Axes

              Baa    -0.0155    -2.076    -0.741    -0.692  0.9028  0.3748  0.2109
     1 C(13)  Bbb     0.0006     0.086     0.031     0.029 -0.2577  0.0790  0.9630
              Bcc     0.0148     1.990     0.710     0.664 -0.3443  0.9237 -0.1679
 
              Baa    -0.5695   -76.422   -27.269   -25.492 -0.6239  0.7815 -0.0057
     2 C(13)  Bbb    -0.5642   -75.708   -27.014   -25.253  0.7427  0.5952  0.3070
              Bcc     1.1337   152.130    54.284    50.745 -0.2433 -0.1873  0.9517
 
              Baa    -0.0738   -39.378   -14.051   -13.135  0.7607 -0.6459  0.0650
     3 H(1)   Bbb     0.0040     2.109     0.753     0.704 -0.2676 -0.2207  0.9379
              Bcc     0.0699    37.269    13.298    12.432  0.5914  0.7308  0.3407
 
              Baa    -0.0733   -39.114   -13.957   -13.047  0.1387  0.9680  0.2090
     4 H(1)   Bbb     0.0033     1.743     0.622     0.581 -0.2612 -0.1678  0.9506
              Bcc     0.0700    37.371    13.335    12.466  0.9553 -0.1865  0.2295
 
              Baa    -0.0098    -5.245    -1.872    -1.750 -0.3203  0.9241 -0.2083
     5 H(1)   Bbb    -0.0027    -1.467    -0.523    -0.489  0.1718  0.2729  0.9466
              Bcc     0.0126     6.711     2.395     2.239  0.9316  0.2674 -0.2462
 
              Baa    -0.0334    -4.487    -1.601    -1.497  0.6189 -0.4895 -0.6143
     6 C(13)  Bbb    -0.0321    -4.307    -1.537    -1.437  0.7731  0.5181  0.3660
              Bcc     0.0655     8.794     3.138     2.933 -0.1392  0.7014 -0.6990
 
              Baa    -0.0095    -5.068    -1.809    -1.691  0.4825  0.4171  0.7702
     7 H(1)   Bbb    -0.0043    -2.311    -0.824    -0.771  0.8038 -0.5602 -0.2001
              Bcc     0.0138     7.379     2.633     2.461  0.3480  0.7157 -0.6056
 
              Baa    -0.0060    -3.182    -1.135    -1.061  0.8944  0.3800  0.2359
     8 H(1)   Bbb    -0.0026    -1.375    -0.491    -0.459 -0.2648  0.0248  0.9640
              Bcc     0.0085     4.557     1.626     1.520 -0.3605  0.9247 -0.1228
 
              Baa    -0.0096    -5.132    -1.831    -1.712  0.8645  0.1677 -0.4738
     9 H(1)   Bbb    -0.0045    -2.413    -0.861    -0.805  0.0310  0.9231  0.3834
              Bcc     0.0141     7.545     2.692     2.517  0.5016 -0.3461  0.7928
 
              Baa    -0.0158    -2.115    -0.755    -0.705  0.3345  0.8573 -0.3914
    10 C(13)  Bbb    -0.0152    -2.033    -0.726    -0.678  0.2237  0.3312  0.9167
              Bcc     0.0309     4.148     1.480     1.384  0.9155 -0.3941 -0.0810
 
              Baa    -0.0039    -2.078    -0.742    -0.693  0.3919  0.1375  0.9097
    11 H(1)   Bbb    -0.0028    -1.472    -0.525    -0.491  0.6423  0.6670 -0.3775
              Bcc     0.0067     3.550     1.267     1.184 -0.6587  0.7322  0.1731
 
              Baa    -0.0082    -4.399    -1.570    -1.467  0.6303  0.5193  0.5771
    12 H(1)   Bbb    -0.0047    -2.498    -0.891    -0.833 -0.1075  0.7946 -0.5976
              Bcc     0.0129     6.897     2.461     2.301  0.7689 -0.3146 -0.5566
 
              Baa    -0.0060    -3.201    -1.142    -1.068  0.2341  0.7371 -0.6339
    13 H(1)   Bbb    -0.0055    -2.918    -1.041    -0.973  0.0749  0.6364  0.7677
              Bcc     0.0115     6.119     2.183     2.041  0.9693 -0.2272  0.0938
 
              Baa    -0.0149    -2.000    -0.714    -0.667  0.9148 -0.2674 -0.3027
    14 C(13)  Bbb    -0.0072    -0.972    -0.347    -0.324  0.2356 -0.2553  0.9377
              Bcc     0.0222     2.972     1.061     0.991  0.3280  0.9292  0.1705
 
              Baa    -0.0079    -4.211    -1.502    -1.404  0.8311  0.1475 -0.5362
    15 H(1)   Bbb    -0.0061    -3.256    -1.162    -1.086 -0.4779  0.6826 -0.5529
              Bcc     0.0140     7.466     2.664     2.490  0.2845  0.7158  0.6377
 
              Baa    -0.0037    -1.969    -0.702    -0.657  0.9256  0.0430 -0.3760
    16 H(1)   Bbb    -0.0028    -1.514    -0.540    -0.505  0.3688 -0.3249  0.8709
              Bcc     0.0065     3.483     1.243     1.162  0.0847  0.9448  0.3166
 
              Baa    -0.0398     2.882     1.028     0.961  0.0871  0.8741 -0.4779
    17 O(17)  Bbb    -0.0300     2.168     0.774     0.723 -0.4301  0.4658  0.7734
              Bcc     0.0698    -5.050    -1.802    -1.685  0.8986  0.1381  0.4165
 
              Baa    -0.0253     1.833     0.654     0.611  0.3398 -0.6100  0.7159
    18 O(17)  Bbb    -0.0214     1.547     0.552     0.516 -0.3431  0.6283  0.6982
              Bcc     0.0467    -3.379    -1.206    -1.127  0.8757  0.4829 -0.0043
 

 ---------------------------------------------------------------------------------

 Calling FoFJK, ICntrl=    100147 FMM=F ISym2X=0 I1Cent= 0 IOpClX= 1 NMat=1 NMatS=1 NMatT=0.
 ***** Axes restored to original set *****
 -------------------------------------------------------------------
 Center     Atomic                   Forces (Hartrees/Bohr)
 Number     Number              X              Y              Z
 -------------------------------------------------------------------
      1        6           0.036543257    0.030263241    0.032063864
      2        6           0.006705452    0.010102172    0.001848433
      3        1           0.001961630   -0.000801087    0.000928601
      4        1           0.010420402    0.002531000   -0.003510670
      5        1          -0.002487332   -0.000975046   -0.000019008
      6        6           0.002362030    0.002210656    0.002063455
      7        1           0.000987179   -0.000534668    0.000458648
      8        1          -0.000103247   -0.000222945    0.000134055
      9        1          -0.000087135   -0.000297122    0.000226917
     10        6           0.000503860    0.002573134    0.003337962
     11        1           0.000114302   -0.000505289   -0.000027336
     12        1          -0.000196386    0.000101184   -0.000256905
     13        1           0.000528982   -0.000402385   -0.000818874
     14        6          -0.101667209   -0.027635297   -0.013215789
     15        1           0.010708001   -0.003250543   -0.004976871
     16        1           0.007681269   -0.001563184   -0.005585425
     17        8          -0.019947290    0.009004498    0.001430330
     18        8           0.045972234   -0.020598319   -0.014081388
 -------------------------------------------------------------------
 Cartesian Forces:  Max     0.101667209 RMS     0.018428947
 FormGI is forming the generalized inverse of G from B-inverse, IUseBI=4.

 GradGradGradGradGradGradGradGradGradGradGradGradGradGradGradGradGradGrad
 Berny optimization.
 Internal  Forces:  Max     0.064168907 RMS     0.008632991
 Search for a saddle point.
 Step number   1 out of a maximum of  104
 All quantities printed in internal units (Hartrees-Bohrs-Radians)
 Swapping is turned off.
 Second derivative matrix not updated -- analytic derivatives used.
 ITU=  0
     Eigenvalues ---   -0.00942   0.00095   0.00193   0.00239   0.00319
     Eigenvalues ---    0.00391   0.00809   0.00885   0.01548   0.02919
     Eigenvalues ---    0.03779   0.03992   0.04507   0.04551   0.04589
     Eigenvalues ---    0.04623   0.04721   0.05207   0.05763   0.07716
     Eigenvalues ---    0.08016   0.09379   0.10027   0.11570   0.12052
     Eigenvalues ---    0.12600   0.13535   0.14198   0.14817   0.15584
     Eigenvalues ---    0.16464   0.17243   0.24498   0.25595   0.29113
     Eigenvalues ---    0.33002   0.33117   0.33531   0.33721   0.34030
     Eigenvalues ---    0.34346   0.34532   0.35424   0.35856   0.36075
     Eigenvalues ---    0.36276   0.42723   0.45938
 Eigenvectors required to have negative eigenvalues:
                          R18       D29       D26       D32       D31
   1                    0.78336   0.20888   0.20460   0.20459  -0.16747
                          D25       D28       A28       A11       D34
   1                   -0.16746  -0.16318  -0.15473   0.13002   0.10989
 RFO step:  Lambda0=3.978516815D-02 Lambda=-1.82762307D-02.
 Linear search not attempted -- option 19 set.
 Maximum step size (   0.300) exceeded in Quadratic search.
    -- Step size scaled by   0.407
 Iteration  1 RMS(Cart)=  0.04091537 RMS(Int)=  0.00413878
 Iteration  2 RMS(Cart)=  0.00434615 RMS(Int)=  0.00088598
 Iteration  3 RMS(Cart)=  0.00001088 RMS(Int)=  0.00088590
 Iteration  4 RMS(Cart)=  0.00000002 RMS(Int)=  0.00088590
 Variable       Old X    -DE/DX   Delta X   Delta X   Delta X     New X
                                 (Linear)    (Quad)   (Total)
    R1        2.82668   0.00061   0.00000  -0.00219  -0.00202   2.82466
    R2        2.92972   0.00207   0.00000   0.00075   0.00075   2.93047
    R3        2.95920   0.00024   0.00000   0.00192   0.00192   2.96112
    R4        2.64562   0.06417   0.00000   0.04632   0.04581   2.69143
    R5        2.04303   0.00081   0.00000  -0.00067  -0.00067   2.04235
    R6        2.03966   0.00481   0.00000   0.00146   0.00231   2.04197
    R7        3.63120   0.00270   0.00000   0.06812   0.06758   3.69878
    R8        3.55522   0.01454   0.00000   0.02257   0.02397   3.57919
    R9        1.83061   0.00098   0.00000   0.00067   0.00070   1.83131
   R10        2.05591  -0.00079   0.00000  -0.00020  -0.00020   2.05572
   R11        2.06418   0.00017   0.00000   0.00005   0.00005   2.06423
   R12        2.05931  -0.00007   0.00000  -0.00024  -0.00024   2.05907
   R13        2.05939   0.00051   0.00000   0.00018   0.00018   2.05957
   R14        2.05777   0.00025   0.00000   0.00004   0.00004   2.05781
   R15        2.06342  -0.00046   0.00000  -0.00011  -0.00011   2.06331
   R16        2.04054   0.00001   0.00000  -0.00241  -0.00241   2.03813
   R17        2.04210   0.00062   0.00000  -0.00151  -0.00151   2.04059
   R18        3.77945  -0.04006   0.00000   0.23626   0.23538   4.01484
   R19        2.62357   0.01943   0.00000   0.00721   0.00705   2.63063
    A1        1.93460   0.00215   0.00000   0.00710   0.00682   1.94142
    A2        1.91429  -0.00083   0.00000   0.00271   0.00313   1.91742
    A3        1.94042  -0.00276   0.00000  -0.00994  -0.01018   1.93024
    A4        1.89404  -0.00286   0.00000  -0.00315  -0.00323   1.89082
    A5        1.92444   0.00040   0.00000  -0.00464  -0.00400   1.92044
    A6        1.85379   0.00391   0.00000   0.00808   0.00762   1.86140
    A7        2.09014   0.00100   0.00000   0.00842   0.00814   2.09827
    A8        2.10367  -0.00737   0.00000  -0.02653  -0.02589   2.07778
    A9        2.08400   0.00644   0.00000   0.01933   0.01888   2.10288
   A10        2.08731   0.00362   0.00000   0.05793   0.05780   2.14511
   A11        2.28889   0.00581   0.00000   0.09506   0.09501   2.38390
   A12        1.91858   0.00118   0.00000  -0.00217  -0.00217   1.91640
   A13        1.92735  -0.00012   0.00000  -0.00079  -0.00079   1.92656
   A14        1.92618   0.00035   0.00000   0.00066   0.00066   1.92684
   A15        1.89012  -0.00065   0.00000  -0.00019  -0.00020   1.88992
   A16        1.91046  -0.00057   0.00000   0.00249   0.00249   1.91295
   A17        1.89054  -0.00023   0.00000   0.00006   0.00006   1.89060
   A18        1.94101  -0.00024   0.00000   0.00156   0.00156   1.94257
   A19        1.94310  -0.00058   0.00000  -0.00081  -0.00081   1.94229
   A20        1.89250   0.00151   0.00000  -0.00239  -0.00239   1.89011
   A21        1.90234   0.00016   0.00000   0.00103   0.00103   1.90337
   A22        1.89196  -0.00043   0.00000   0.00033   0.00033   1.89228
   A23        1.89159  -0.00042   0.00000   0.00027   0.00026   1.89186
   A24        2.10676  -0.00177   0.00000   0.01862   0.01475   2.12151
   A25        2.10312   0.00060   0.00000   0.01596   0.01307   2.11619
   A26        1.83528   0.00314   0.00000  -0.01900  -0.01802   1.81727
   A27        2.04884  -0.00103   0.00000  -0.00187  -0.00616   2.04268
   A28        1.54717   0.00552   0.00000  -0.06233  -0.06231   1.48486
   A29        1.52878   0.00053   0.00000  -0.05888  -0.05804   1.47074
   A30        1.83939  -0.00079   0.00000  -0.05702  -0.05648   1.78291
   A31        1.80366   0.00220   0.00000   0.00857   0.00826   1.81193
   A32        1.92896   0.00209   0.00000   0.02408   0.02243   1.95139
    D1        1.40161  -0.00389   0.00000   0.04334   0.04371   1.44531
    D2       -1.62809  -0.00507   0.00000   0.02941   0.03026  -1.59783
    D3       -0.68952  -0.00116   0.00000   0.04103   0.04136  -0.64816
    D4        2.56397  -0.00234   0.00000   0.02710   0.02791   2.59188
    D5       -2.73449  -0.00380   0.00000   0.03540   0.03621  -2.69828
    D6        0.51900  -0.00498   0.00000   0.02146   0.02276   0.54176
    D7        1.10515   0.00008   0.00000   0.00020   0.00008   1.10523
    D8       -3.09360  -0.00006   0.00000  -0.00190  -0.00202  -3.09563
    D9       -1.00380  -0.00020   0.00000  -0.00191  -0.00204  -1.00584
   D10       -3.07484  -0.00145   0.00000   0.00588   0.00606  -3.06878
   D11       -0.99041  -0.00159   0.00000   0.00378   0.00396  -0.98645
   D12        1.09939  -0.00173   0.00000   0.00377   0.00395   1.10334
   D13       -1.05115   0.00183   0.00000   0.01121   0.01115  -1.04000
   D14        1.03328   0.00169   0.00000   0.00911   0.00905   1.04233
   D15        3.12308   0.00155   0.00000   0.00910   0.00904   3.13212
   D16        3.11871   0.00081   0.00000   0.00565   0.00572   3.12443
   D17       -1.03931   0.00044   0.00000   0.00749   0.00756  -1.03176
   D18        1.04010   0.00054   0.00000   0.00582   0.00589   1.04599
   D19        1.00298   0.00046   0.00000  -0.00273  -0.00254   1.00044
   D20        3.12814   0.00009   0.00000  -0.00089  -0.00070   3.12744
   D21       -1.07563   0.00018   0.00000  -0.00256  -0.00237  -1.07800
   D22       -1.06594  -0.00065   0.00000  -0.00003  -0.00028  -1.06622
   D23        1.05922  -0.00103   0.00000   0.00181   0.00156   1.06078
   D24        3.13864  -0.00093   0.00000   0.00014  -0.00011   3.13852
   D25        0.62194   0.00500   0.00000  -0.05496  -0.05502   0.56691
   D26       -2.76168  -0.00588   0.00000   0.10391   0.10417  -2.65751
   D27       -1.08164  -0.00309   0.00000   0.02630   0.02710  -1.05453
   D28        2.77485   0.00610   0.00000  -0.05609  -0.05615   2.71870
   D29       -0.60877  -0.00477   0.00000   0.10278   0.10304  -0.50573
   D30        1.07128  -0.00198   0.00000   0.02517   0.02598   1.09725
   D31       -1.45957   0.00514   0.00000  -0.05766  -0.05776  -1.51733
   D32        1.44000  -0.00574   0.00000   0.10121   0.10143   1.54143
   D33        3.12004  -0.00294   0.00000   0.02360   0.02437  -3.13878
   D34        0.95915  -0.00321   0.00000   0.06156   0.06160   1.02075
   D35        0.37296  -0.00300   0.00000   0.05655   0.05716   0.43012
   D36       -2.07094  -0.00404   0.00000   0.04836   0.04881  -2.02213
   D37       -2.65713  -0.00383   0.00000   0.04335   0.04436  -2.61276
   D38       -0.39975  -0.00508   0.00000  -0.08540  -0.08654  -0.48629
   D39        0.99324  -0.00174   0.00000  -0.04242  -0.04333   0.94992
   D40       -1.12770  -0.00200   0.00000  -0.04036  -0.03995  -1.16764
   D41        3.10493  -0.00061   0.00000  -0.04507  -0.04629   3.05863
   D42       -0.27642  -0.00484   0.00000   0.04906   0.04610  -0.23031
   D43       -1.68203   0.00095   0.00000   0.02899   0.02803  -1.65399
         Item               Value     Threshold  Converged?
 Maximum Force            0.064169     0.000450     NO 
 RMS     Force            0.008633     0.000300     NO 
 Maximum Displacement     0.174442     0.001800     NO 
 RMS     Displacement     0.043423     0.001200     NO 
 Predicted change in Energy= 9.345853D-03
 GradGradGradGradGradGradGradGradGradGradGradGradGradGradGradGradGradGrad

                          Input orientation:                          
 ---------------------------------------------------------------------
 Center     Atomic      Atomic             Coordinates (Angstroms)
 Number     Number       Type             X           Y           Z
 ---------------------------------------------------------------------
      1          6           0        0.671086    0.032893    0.065596
      2          6           0        0.139443    1.427638   -0.013858
      3          1           0        0.763817    2.264539    0.265082
      4          1           0       -0.900759    1.579160   -0.264132
      5          1           0       -2.368542    0.828305    0.790808
      6          6           0        0.561282   -0.528802    1.506857
      7          1           0       -0.484815   -0.595024    1.797869
      8          1           0        0.995594   -1.529721    1.559234
      9          1           0        1.095428    0.113419    2.206496
     10          6           0        2.179723    0.013346   -0.357472
     11          1           0        2.596458   -0.991545   -0.291412
     12          1           0        2.310603    0.386503   -1.372081
     13          1           0        2.734870    0.662464    0.322682
     14          6           0       -0.018853   -0.818799   -0.843840
     15          1           0       -0.397045   -0.451532   -1.784750
     16          1           0       -0.119065   -1.877081   -0.653993
     17          8           0       -2.505998    0.582059   -0.136336
     18          8           0       -2.042865   -0.728950   -0.204264
 ---------------------------------------------------------------------
                    Distance matrix (angstroms):
                    1          2          3          4          5
     1  C    0.000000
     2  C    1.494748   0.000000
     3  H    2.242463   1.080766   0.000000
     4  H    2.229430   1.080563   1.876334   0.000000
     5  H    3.224585   2.701236   3.485804   1.957311   0.000000
     6  C    1.550738   2.513599   3.063622   3.117285   3.307315
     7  H    2.175122   2.786255   3.476438   3.025216   2.566800
     8  H    2.185869   3.457396   4.015590   4.072586   4.179495
     9  H    2.184034   2.751554   2.916569   3.498165   3.809766
    10  C    1.566957   2.506199   2.731343   3.456857   4.761242
    11  H    2.209974   3.459249   3.777611   4.340483   5.397618
    12  H    2.209066   2.764537   2.932553   3.600393   5.173749
    13  H    2.172938   2.726718   2.540672   3.795061   5.127520
    14  C    1.424243   2.400085   3.368866   2.619929   3.302433
    15  H    2.190743   2.637263   3.595338   2.586448   3.486873
    16  H    2.188640   3.376057   4.333266   3.564917   3.803513
    17  O    3.230515   2.779994   3.699131   1.894026   0.969086
    18  O    2.831741   3.074019   4.130221   2.575919   1.876507
                    6          7          8          9         10
     6  C    0.000000
     7  H    1.087839   0.000000
     8  H    1.092342   1.766979   0.000000
     9  H    1.089612   1.779336   1.768848   0.000000
    10  C    2.527647   3.480715   2.730748   2.785614   0.000000
    11  H    2.754967   3.743871   2.505452   3.116662   1.089879
    12  H    3.490872   4.338933   3.740825   3.789121   1.088947
    13  H    2.746975   3.758168   3.059382   2.556947   1.091857
    14  C    2.438530   2.691806   2.703567   3.378639   2.400574
    15  H    3.429146   3.586566   3.779440   4.298452   2.982109
    16  H    2.636285   2.790890   2.502298   3.690458   2.990997
    17  O    3.652712   3.035104   4.426705   4.321892   4.725286
    18  O    3.122431   2.540471   3.603247   4.046014   4.290073
                   11         12         13         14         15
    11  H    0.000000
    12  H    1.774422   0.000000
    13  H    1.769750   1.768721   0.000000
    14  C    2.678594   2.675473   3.337350   0.000000
    15  H    3.388618   2.864255   3.935880   1.078530   0.000000
    16  H    2.879184   3.397462   3.943111   1.079835   1.840673
    17  O    5.341848   4.976440   5.261546   2.940894   2.869366
    18  O    4.647565   4.643351   5.004044   2.124559   2.298612
                   16         17         18
    16  H    0.000000
    17  O    3.465947   0.000000
    18  O    2.285053   1.392067   0.000000
 Stoichiometry    C5H11O2(2)
 Framework group  C1[X(C5H11O2)]
 Deg. of freedom    48
 Full point group                 C1      NOp   1
 Largest Abelian subgroup         C1      NOp   1
 Largest concise Abelian subgroup C1      NOp   1
                         Standard orientation:                         
 ---------------------------------------------------------------------
 Center     Atomic      Atomic             Coordinates (Angstroms)
 Number     Number       Type             X           Y           Z
 ---------------------------------------------------------------------
      1          6           0        0.827869    0.052378   -0.015049
      2          6           0        0.262863    1.434783    0.048162
      3          1           0        0.884906    2.263151    0.356259
      4          1           0       -0.793473    1.578412   -0.128310
      5          1           0       -2.178988    0.709259    0.946858
      6          6           0        0.816738   -0.623310    1.380699
      7          1           0       -0.208362   -0.739296    1.725823
      8          1           0        1.274606   -1.613639    1.327648
      9          1           0        1.378126   -0.024302    2.097140
     10          6           0        2.308470    0.105256   -0.525325
     11          1           0        2.749703   -0.890561   -0.564055
     12          1           0        2.370252    0.560129   -1.512786
     13          1           0        2.889500    0.713211    0.171055
     14          6           0        0.102869   -0.742972   -0.947928
     15          1           0       -0.338839   -0.312967   -1.832924
     16          1           0        0.036770   -1.815129   -0.837683
     17          8           0       -2.366571    0.533019    0.012578
     18          8           0       -1.880561   -0.756153   -0.186625
 ---------------------------------------------------------------------
 Rotational constants (GHZ):           4.1849204           1.6155119           1.5571954
 Standard basis: CC-pVTZ+d (5D, 7F)
 There are   410 symmetry adapted cartesian basis functions of A   symmetry.
 There are   364 symmetry adapted basis functions of A   symmetry.
[...]
 4,-0.0243731,0.0675613,0.0216279,0.040753,0.0036373,0.1564122,0.032813
 5,-0.0647643,0.056012,0.0210642,-0.0054109,0.0199705,0.0053335,0.11441
 14,-0.1249063,-0.0078349,0.0207441,0.0137793,0.0662383,0.0490361,0.012
 4592,-0.0328495,-0.003618,0.0336342,0.0691024,0.0249779,0.0573982,-0.1
 285498,-0.0825008,-0.0200508,-0.0364168,-0.1144659,0.002356,-0.0617669
 ,-0.0781919,-0.0748657,0.0062125,-0.1332553,0.2408978,-0.0293654,-0.05
 46976,0.3081089,0.014669,-0.1309007,0.1455443,0.1180722,0.0351611,0.02
 26897,0.0251889,0.008956,0.0443257,-0.0200001,0.0104408,-0.0366063,-0.
 052523,-0.0177866,-0.0790935,0.0376584,-0.0482777,0.0050518,0.0104253,
 0.0396758,0.0596053,0.0167862,-0.9294728,0.1337042,-0.1073798,-0.05390
 85,-0.1242435,0.0700735,0.6334754,-0.0148816,-0.1568368,0.6275404,-0.3
 246031,0.016859,-0.0884179,-0.11432,-0.0636043,-0.6252406,-0.0464772,-
 0.3570768\Polar=104.1211445,-0.493021,71.4157574,8.2871464,0.546614,70
 .201996\Quadrupole=0.2575464,0.5479665,-0.8055129,3.6680091,-1.5751493
 ,0.5662574\PG=C01 [X(C5H11O2)]\NImag=1\\0.50304261,-0.04379169,0.41398
 057,-0.00759648,-0.04785614,0.48835099,-0.07946501,0.07003922,0.015256
 91,0.35004531,0.13726423,-0.19348503,0.05707017,-0.18560968,0.35414474
 ,0.02907996,0.02002025,-0.05952631,-0.23593599,-0.17890823,0.47535391,
 0.00466927,0.00709838,-0.01461557,-0.04459035,-0.01243199,0.05484534,0
 .04199685,-0.00402047,-0.00987846,0.01619161,-0.01765074,-0.13943078,0
 .14212686,0.01821462,0.14617589,0.00174091,-0.00254341,-0.00255467,0.0
 5778821,0.15011371,-0.23722734,-0.05581360,-0.15414465,0.24406465,-0.0
 0870724,-0.00128449,0.00902464,-0.19569556,0.07325483,0.15661012,-0.00
 025078,0.00224719,-0.00069011,0.20255055,0.01466839,-0.00454549,-0.013
 84712,0.06411449,-0.06305830,-0.03638599,-0.01185280,0.00832255,0.0106
 8715,-0.07197179,0.06481934,-0.00649917,0.00133711,0.00605577,0.150033
 04,-0.03590578,-0.16389573,0.01435641,-0.00681171,-0.00884744,-0.15889
 484,0.04305747,0.16773152,-0.00045036,0.00130822,-0.00001921,0.0010790
 1,0.00031406,0.00106123,-0.00022823,-0.00001705,-0.00020371,-0.0000374
 4,-0.00000500,-0.00011568,0.14017479,0.00026698,-0.00178169,0.00000516
 ,-0.00079326,-0.00051847,-0.00085000,0.00016272,0.00009014,0.00015557,
 0.00019269,-0.00000184,0.00011392,0.19239542,0.37471947,-0.00058574,0.
 00085360,-0.00004812,0.00098971,0.00108916,0.00082575,-0.00025126,-0.0
 0013308,-0.00000103,0.00027660,0.00013857,0.00031429,0.01159804,0.0803
 0130,0.04929572,-0.08026662,0.00259787,-0.00095462,0.00055677,0.008478
 91,-0.00817098,-0.00117674,0.00090206,-0.00041371,0.00052858,0.0004422
 8,-0.00086611,-0.00012440,0.00029309,-0.00019158,0.57517751,0.00267155
 ,-0.08213860,0.03451246,0.00230310,-0.01784304,0.03601659,0.00335245,-
 0.00354230,0.00114885,-0.00153263,0.00162258,-0.00060849,-0.00000353,0
 .00016167,-0.00004452,0.00017446,0.55240222,0.00010119,0.03407224,-0.1
 6576728,-0.00409780,0.00606239,-0.00298009,0.00015792,-0.00217921,0.00
 039330,0.00112307,-0.00089968,0.00138780,0.00000093,-0.00008798,0.0000
 6192,-0.00645273,0.03389992,0.46947946,0.00067436,-0.00010351,-0.00147
 485,0.00016320,-0.00041340,-0.00069065,0.00017142,-0.00016369,-0.00010
 450,0.00042693,-0.00033958,0.00019714,0.00002914,-0.00004172,0.0000431
 9,-0.26126202,0.01356358,0.10077049,0.28279906,-0.01059068,-0.00135428
 ,0.00458341,-0.00129279,0.00055565,0.00024335,0.00011250,0.00006291,-0
 .00021598,0.00031056,-0.00029767,0.00009000,-0.00003848,0.00003191,-0.
 00006561,0.01470306,-0.04815602,-0.00676199,-0.01533865,0.04842342,0.0
 2859889,-0.00191694,-0.01467764,0.00073189,-0.00167866,0.00103173,-0.0
 0010663,0.00007424,0.00025670,-0.00055708,0.00057894,0.00024293,-0.000
 10341,0.00001924,-0.00005540,0.09746200,-0.00616627,-0.09286776,-0.109
 55739,0.00522030,0.10298040,-0.00175919,0.00087411,-0.00000812,0.00062
 653,0.00020875,-0.00063965,0.00011444,0.00011231,-0.00019981,0.0002199
 3,-0.00031975,0.00004483,-0.00002178,0.00003139,-0.00002237,-0.0714715
 0,0.07427030,-0.00064669,-0.00789305,0.02829853,-0.00103158,0.07266444
 ,0.00342978,-0.01075974,-0.00010081,-0.00112073,0.00040352,0.00256323,
 0.00072290,-0.00002983,0.00034836,-0.00027183,0.00003040,-0.00023100,-
 0.00002043,-0.00004614,0.00000171,0.07413382,-0.28037540,0.00227193,0.
 00028156,-0.00061451,-0.00048077,-0.08286013,0.30583727,-0.01067644,0.
 03057446,-0.00156047,0.00146394,0.00159409,-0.00624750,-0.00114780,0.0
 0135830,-0.00016798,-0.00011468,-0.00005177,0.00001548,-0.00001815,0.0
 0001786,-0.00000503,-0.00025952,0.00067913,-0.04738101,0.00299946,-0.0
 1333983,-0.00036900,0.00095006,-0.00449156,0.05130644,-0.00193813,-0.0
 0032465,-0.00031501,0.00014926,0.00036921,0.00025789,-0.00006843,0.000
 02281,0.00001472,-0.00023706,0.00001526,-0.00017708,0.00008381,-0.0000
 1815,0.00005335,-0.15373162,-0.09130474,-0.08835359,-0.01777645,-0.016
 30862,-0.01605146,0.00711701,0.00556403,0.00656508,0.16424865,0.008226
 80,0.00548908,0.00640273,-0.00026362,0.00165806,-0.00106867,-0.0001089
 8,0.00015253,-0.00001408,0.00013852,-0.00000748,-0.00008517,0.00002636
 ,0.00000946,0.00002040,-0.09205300,-0.12634254,-0.07651850,0.00180222,
 0.00089880,0.00209117,-0.02038997,-0.01606101,-0.01606573,0.10135821,0
 .13354882,-0.02139083,-0.01623238,-0.01845669,0.00126510,0.00042578,0.
 00306948,-0.00002596,-0.00006128,-0.00003615,-0.00022943,0.00022583,-0
 .00012624,-0.00000453,0.00009722,-0.00006998,-0.08772622,-0.07547118,-
 0.11971196,0.00841941,0.00855261,0.00799626,0.00113424,0.00013529,0.00
 005516,0.09823582,0.08250606,0.13244408,-0.15580582,0.00577267,0.04169
 057,-0.01503889,0.00906449,0.00604013,0.00167981,-0.00086206,0.0007856
 2,-0.00037895,-0.00061013,-0.00114142,-0.00001742,-0.00001326,-0.00004
 591,-0.00033043,-0.00168199,0.00517314,0.00109313,0.00045279,-0.001977
 25,0.00027275,0.00022761,-0.00096731,0.00044377,0.00032157,-0.00122086
 ,0.47769234,0.00475799,-0.07069450,0.00200572,0.03380196,-0.00502782,-
 0.01800751,-0.00073966,0.00136251,-0.00069827,0.00328882,-0.00406116,0
 .00142250,0.00003592,0.00000365,0.00007378,-0.01050825,0.00052150,0.00
 585386,-0.00026895,-0.00069436,0.00241754,-0.00080164,0.00005247,0.000
 45624,0.00028945,0.00010082,-0.00101306,0.00144630,0.56530882,0.039654
 98,0.00164546,-0.10054993,0.00602608,0.00159026,0.00041241,-0.00163590
 ,0.00088881,0.00065404,-0.00035184,0.00047657,0.00002814,-0.00003553,0
 .00027294,-0.00012840,0.03027783,0.00008527,-0.01971955,0.00016572,0.0
 0202567,-0.00559189,-0.00000156,-0.00084686,0.00164547,0.00048549,-0.0
 0024214,0.00112389,0.04506410,-0.00527290,0.55106612,-0.01131085,0.028
 42041,-0.00031059,-0.00487428,-0.00083104,0.00443165,0.00013371,-0.000
 16423,-0.00004862,-0.00092861,0.00124328,-0.00051687,-0.00002643,0.000
 02842,-0.00002491,0.00101819,0.00061811,-0.00128749,0.00005414,-0.0002
 5068,-0.00028390,0.00022973,-0.00058069,0.00044233,0.00001829,-0.00013
 839,0.00013899,-0.07479567,0.07855815,0.00160742,0.08173212,-0.0001325
 3,-0.00112460,0.00019301,0.00006437,0.00103493,-0.00060984,-0.00036169
 ,0.00006419,-0.00018241,0.00032850,0.00038277,0.00027903,-0.00001800,-
 0.00004387,0.00000409,-0.00037677,0.00025353,0.00010693,-0.00001639,0.
 00030132,-0.00007169,0.00004119,0.00043394,-0.00044393,0.00003752,-0.0
 0007412,0.00001664,0.07998214,-0.27715656,-0.00513672,-0.08913399,0.30
 094605,0.00493684,-0.01437463,-0.00127982,0.00226734,0.00055918,-0.001
 55756,0.00007344,-0.00029150,0.00008265,0.00044163,-0.00057270,0.00057
 100,-0.00001242,-0.00000928,0.00001911,-0.00031179,-0.00118772,0.00072
 887,-0.00019394,0.00019271,0.00016073,0.00013866,0.00044457,-0.0001532
 7,0.00004482,-0.00005742,-0.00010564,0.00142860,-0.00438332,-0.0477881
 2,-0.00425050,0.00554998,0.04755891,0.00065478,-0.01039847,0.02841863,
 0.00119684,-0.00178318,0.00009989,0.00003624,0.00049066,-0.00036016,0.
 00014928,0.00005276,-0.00010436,-0.00000025,-0.00003860,0.00002085,-0.
 00540347,0.00065955,0.00162429,0.00015187,-0.00055271,0.00185542,-0.00
 004623,-0.00008207,-0.00018705,0.00007584,0.00021564,0.00008305,-0.048
 29455,0.00695761,-0.01872008,-0.00146429,0.00267653,-0.01010556,0.0527
 0753,-0.00026338,-0.00146873,-0.00179428,0.00006880,0.00048446,-0.0011
 2930,0.00012824,-0.00002966,-0.00001846,-0.00009022,0.00006309,0.00010
 300,-0.00001373,0.00000603,0.00001060,-0.00008111,0.00024809,-0.000348
 79,0.00005600,0.00054821,0.00011490,0.00003449,0.00038772,-0.00031346,
 0.00014827,0.00004732,0.00028733,0.00607020,-0.07745116,0.08360678,0.0
 0168941,-0.00956802,0.02904419,-0.00707010,0.08009763,-0.00142922,0.00
 464818,-0.01479031,-0.00118073,0.00042096,0.00009075,0.00049751,-0.000
 72063,0.00040206,-0.00006141,-0.00028855,0.00025402,-0.00000739,-0.000
 00130,-0.00001037,0.00377238,-0.00083363,0.00002511,0.00013503,0.00049
 859,-0.00090473,-0.00013277,0.00003233,0.00018797,-0.00008378,-0.00002
 804,0.00043877,-0.01582457,0.08307567,-0.27513265,-0.00019747,-0.00038
 969,0.00205392,0.01636674,-0.09196122,0.30018131,-0.02234862,-0.015754
 94,-0.01553046,0.00328427,0.00132930,-0.00003926,-0.00032466,0.0002311
 2,-0.00014110,-0.00003287,-0.00008665,-0.00007601,0.00004012,0.0000538
 5,-0.00002129,0.00080735,-0.00017477,-0.00147790,0.00028308,0.00038437
 ,0.00000794,0.00001370,-0.00000324,0.00017319,0.00033635,0.00010623,0.
 00083608,-0.15728879,-0.09464592,-0.08479918,0.00802324,0.00576527,0.0
 0624677,-0.00139746,-0.00041142,-0.00090295,0.17379881,0.00110628,0.00
 017990,0.00126520,-0.00041417,0.00155418,0.00062594,-0.00003085,0.0000
 1592,0.00015743,-0.00008953,0.00011641,-0.00004258,0.00000333,0.000057
 10,-0.00002338,-0.00000949,-0.00022792,-0.00021114,0.00019130,0.000098
 96,0.00016922,-0.00010499,-0.00006883,-0.00006112,-0.00007842,0.000196
 21,0.00042479,-0.09553706,-0.12929191,-0.07318230,-0.02035330,-0.01626
 148,-0.01547906,0.00848443,0.00672333,0.00536849,0.10561982,0.13639957
 ,0.01098146,0.00844501,0.00670752,-0.00158618,0.00017058,0.00031333,-0
 .00014421,-0.00009985,-0.00003252,-0.00002432,0.00011248,-0.00004471,0
 .00003099,-0.00001721,0.00001809,0.00022274,0.00043340,0.00109304,-0.0
 0017993,-0.00007810,0.00018980,0.00002064,0.00003837,-0.00009442,0.000
 05208,-0.00015302,-0.00007703,-0.08562553,-0.07306244,-0.11234816,0.00
 065996,0.00038308,-0.00060190,-0.01957783,-0.01785988,-0.01432955,0.09
 220266,0.08078031,0.11929824,-0.15922030,-0.00572034,-0.04904384,0.027
 08117,0.03692359,0.03344719,-0.00269550,-0.00018433,-0.00158131,0.0018
 6419,0.00383768,0.00229888,-0.00250858,0.00284495,-0.00271624,-0.00593
 866,-0.00248267,-0.00740984,0.00093875,0.00031975,0.00182748,0.0005937
 8,-0.00033138,0.00160606,0.00083835,-0.00003566,0.00040046,-0.03069444
 ,-0.02172908,-0.01681599,0.00308223,0.00040630,-0.00083888,0.00174437,
 0.00012891,-0.00085029,-0.00542879,0.00053334,0.00276416,0.31577837,-0
 .09079162,-0.05642176,-0.04905520,0.02030280,0.00997367,0.01714028,-0.
 00302573,-0.00285200,-0.00286470,-0.00204272,-0.00208460,-0.00170170,-
 0.00344899,0.00279784,-0.00197547,0.00429413,0.00442161,0.00322994,0.0
 0003166,0.00039096,0.00059329,0.00067292,0.00057835,0.00029237,-0.0004
 2119,0.00013685,0.00124281,-0.00383973,-0.00217410,-0.00119039,0.00086
 167,0.00060816,0.00037988,0.00032043,0.00023901,-0.00043410,-0.0014002
 3,0.00085507,0.00002138,0.17246820,0.28239720,-0.06585530,0.00029373,-
 0.11766841,0.02867575,0.02078019,0.00267610,0.00374365,0.00440127,0.00
 282233,-0.00490733,-0.00310860,-0.00404651,-0.00122133,0.00009466,-0.0
 0095246,-0.02412358,-0.02018328,-0.02548835,-0.00041533,-0.00060776,0.
 00106870,0.00049601,-0.00026657,0.00277505,-0.00061946,0.00278606,-0.0
 0628586,0.00504421,0.00688964,0.00546475,0.00041447,-0.00000325,0.0003
 0160,0.00160844,0.00085286,0.00043362,0.00341604,-0.00011115,-0.000966
 90,-0.15765499,0.00298078,0.58801572,0.00279685,-0.00709670,-0.0231951
 8,-0.00256784,0.00118032,0.00225867,0.00007826,-0.00053375,-0.00026873
 ,0.00048840,0.00036213,0.00031433,0.00048781,0.00015109,0.00025603,-0.
 00208166,-0.00226261,-0.00135565,0.00008910,-0.00005369,-0.00006340,-0
 .00000026,0.00019680,0.00005484,-0.00012113,0.00041273,-0.00126575,0.0
 0175528,0.00069510,-0.00154774,-0.00021128,0.00039119,-0.00004107,-0.0
 0007552,-0.00046823,0.00030528,0.00024412,0.00021800,0.00028856,-0.047
 49392,0.00130031,0.06537458,0.06199181,-0.00258925,-0.00086616,-0.0101
 9917,0.00318659,0.00979894,-0.00188098,0.00077844,0.00036688,0.0004427
 8,-0.00082982,-0.00040446,-0.00046818,-0.00009230,-0.00000928,-0.00002
 101,-0.00107370,-0.00117467,0.00028163,0.00023146,-0.00003200,-0.00024
 318,0.00001416,0.00012727,0.00009361,0.00040220,0.00047870,-0.00031447
 ,0.00038430,0.00134167,-0.00040246,-0.00022883,0.00000532,0.00018968,-
 0.00024553,-0.00021576,0.00029750,0.00011617,-0.00026641,0.00007590,-0
 .00898550,-0.05984793,-0.06937866,-0.00824815,0.05202304,0.00302275,-0
 .00179448,-0.01287331,-0.00146386,0.00159171,0.00237949,-0.00022805,-0
 .00053464,-0.00004753,0.00038152,0.00040347,0.00038338,0.00011485,0.00
 000998,-0.00013722,-0.00181750,-0.00231179,-0.00052204,0.00003962,0.00
 003606,0.00030989,0.00003923,0.00010793,0.00001322,-0.00029848,0.00028
 506,-0.00079643,0.00194461,0.00099791,0.00071250,-0.00052467,0.0000663
 2,0.00001543,-0.00059175,-0.00025324,0.00075259,0.00020543,0.00009683,
 0.00033514,0.06260310,-0.06406655,-0.31613499,-0.06017689,0.06804609,0
 .32856589,-0.01302524,-0.01370947,0.01044806,0.00037078,-0.00045579,-0
 .00529515,0.00071892,0.00066548,0.00064834,-0.00021912,-0.00070024,-0.
 00027606,-0.00100827,-0.00041142,-0.00011858,0.00097330,0.00036960,0.0
 0239024,0.00046425,-0.00006814,-0.00076802,-0.00036336,0.00039897,-0.0
 0040044,0.00041013,0.00032376,0.00017848,-0.00142387,-0.00230281,-0.00
 207575,-0.00007795,0.00018732,0.00009706,0.00022142,0.00007936,-0.0001
 0898,-0.00124575,0.00002387,0.00019016,-0.15133031,-0.12150900,0.09801
 526,-0.00178049,-0.00268380,-0.00064780,0.17250941,-0.01017403,-0.0024
 8557,0.00200952,0.00017599,0.01041128,0.00610860,-0.00043986,-0.000108
 23,-0.00042891,0.00050814,0.00017306,0.00039655,0.00077562,-0.00018421
 ,-0.00002549,0.00011173,0.00130893,0.00117483,0.00021984,-0.00002195,-
 0.00062124,-0.00003586,0.00009509,-0.00044645,0.00020341,-0.00018032,-
 0.00004096,-0.00014142,-0.00127235,-0.00185899,0.00009325,0.00012065,0
 .00003279,0.00004511,-0.00005769,0.00022750,-0.00033939,0.00023850,0.0
 0052439,-0.13521116,-0.14852869,0.07228302,0.00572625,0.00839448,-0.00
 414104,0.12425236,0.14779454,-0.01446054,-0.01147085,0.00540175,-0.000
 55854,0.00439707,0.00085055,-0.00000921,-0.00001792,0.00004277,0.00024
 995,-0.00013247,0.00033373,-0.00063516,0.00052347,0.00031122,-0.001118
 25,-0.00026514,0.00148727,0.00011141,-0.00036049,-0.00004953,-0.000058
 09,0.00032602,0.00010975,0.00017506,0.00008692,0.00010937,-0.00107173,
 -0.00125688,-0.00133937,0.00004343,0.00017577,0.00003068,-0.00015568,-
 0.00017194,0.00022782,-0.00073872,0.00008381,0.00060813,0.09535905,0.0
 7886591,-0.12024726,0.01350972,0.01679270,-0.00705607,-0.09090236,-0.0
 9023396,0.12066335,-0.00093774,0.00191695,0.00125598,-0.00428318,-0.00
 145434,-0.00257966,-0.00016154,0.00061249,0.00016695,0.00016152,0.0005
 0106,0.00005041,-0.11335341,-0.19681029,-0.04185891,-0.00072803,-0.000
 25136,0.00031690,0.00005599,-0.00000619,0.00005067,-0.00002529,0.00028
 255,-0.00009195,-0.00012298,-0.00015771,-0.00027369,-0.00008681,-0.000
 04723,-0.00146374,-0.00009635,0.00025885,0.00012757,0.00024231,0.00002
 083,-0.00006164,-0.00041752,-0.00021093,-0.00000034,-0.01393435,0.0007
 8825,0.01158292,-0.00366499,0.00360501,-0.00115361,0.00249990,-0.00125
 807,-0.00064959,0.26478937,-0.00106617,0.00215993,-0.00026347,0.000057
 98,0.00158325,0.00179231,-0.00025241,0.00017892,-0.00035284,0.00004088
 ,0.00018165,0.00000827,-0.17099584,-0.38566797,-0.10902788,-0.00061102
 ,-0.00005193,0.00031340,0.00008024,-0.00006101,-0.00010635,0.00000809,
 0.00006262,-0.00003131,0.00009180,-0.00002097,-0.00014079,0.00002624,0
 .00008655,-0.00023744,-0.00007148,0.00006008,-0.00001227,0.00004109,-0
 .00004546,0.00000292,-0.00000971,-0.00006807,0.00004524,0.00077153,-0.
 00369010,-0.01089543,0.00287831,-0.00234489,0.00128444,-0.00073995,0.0
 0198096,-0.00096633,0.18797467,0.42445639,0.00263507,-0.00683326,0.001
 42049,-0.00199544,-0.00620415,-0.00260194,-0.00039397,-0.00012032,-0.0
 0012787,-0.00013549,0.00032600,0.00050384,-0.02060721,-0.08538864,-0.0
 3942957,0.00214205,0.00080798,-0.00093086,-0.00028569,0.00002127,0.000
 31826,-0.00009439,-0.00023417,0.00009318,-0.00007426,0.00010502,0.0006
 8856,-0.00006874,0.00007195,0.00166176,0.00005286,-0.00020256,-0.00010
 861,-0.00022256,0.00000695,-0.00004712,0.00042694,0.00027893,-0.000095
 61,0.01828030,0.00271669,0.01215242,-0.00138989,0.00138784,0.00057463,
 -0.00125032,-0.00164205,0.00147371,-0.07983873,0.10722721,0.16035462,0
 .02339723,-0.01984356,0.00696915,-0.03803802,-0.06540829,-0.03478073,-
 0.00010269,0.00009759,-0.00131939,0.00009827,0.00064860,0.00137258,-0.
 02411808,0.00170608,0.03259904,0.00345345,0.00171161,-0.00057648,-0.00
 046292,-0.00008095,-0.00003418,-0.00027164,0.00003248,-0.00039163,0.00
 027435,0.00021529,0.00144563,0.00121856,0.00121224,0.00416568,-0.00050
 596,-0.00009981,-0.00004856,-0.00049870,-0.00002632,-0.00023572,0.0016
 5344,0.00064837,-0.00027509,0.06732361,0.02543885,0.03642599,-0.009934
 53,0.01625855,-0.00144851,-0.00769376,0.01548809,0.00090925,-0.1299369
 1,-0.01822425,0.08281949,0.11414432,-0.00897218,0.01519512,-0.00112279
 ,0.01302970,0.02776079,0.01220313,-0.00132627,-0.00092119,-0.00159014,
 -0.00219709,-0.00125087,-0.00095323,-0.02020555,0.01037622,0.02882324,
 -0.00141807,-0.00108771,-0.00025976,0.00022802,-0.00008032,0.00000626,
 -0.00005391,-0.00005320,0.00017908,-0.00004640,-0.00003020,-0.00064024
 ,-0.00106267,-0.00095406,-0.00222154,0.00023992,0.00001773,-0.00002506
 ,0.00022685,-0.00000842,0.00008501,-0.00077986,-0.00025054,0.00024038,
 -0.04355413,-0.02679955,-0.00680753,0.00515089,-0.00737475,0.00017595,
 0.01627989,-0.01767846,0.00362430,0.00423545,-0.03879994,-0.01232468,0
 .04022543,0.04193933,0.00774167,0.00113204,0.00181646,-0.01767941,-0.0
 2316842,-0.01296703,0.00069790,0.00007374,0.00032404,-0.00214102,-0.00
 071959,-0.00086126,0.01017769,0.00474309,-0.01000851,-0.00147041,-0.00
 051157,0.00071214,0.00002082,-0.00003419,-0.00003944,0.00001137,0.0003
 8201,-0.00022305,0.00008882,-0.00005064,-0.00025959,0.00077233,0.00042
 957,-0.00017101,-0.00034606,0.00026527,0.00007202,-0.00005226,-0.00017
 604,0.00016678,0.00021181,-0.00014022,0.00002749,0.01832469,0.01382478
 ,-0.02391957,0.00694228,-0.00469964,0.00352544,-0.01012414,0.01668188,
 -0.00295789,0.11442044,0.01136032,-0.13589989,-0.12759652,-0.01939239,
 0.18066286\\0.00000593,0.00000879,-0.00004119,-0.00000524,-0.00003981,
 -0.00001009,0.00000357,-0.00000172,0.00000603,-0.00000237,0.00000703,0
 .00001048,0.00001267,0.00001194,0.00000008,-0.00000481,0.00000286,0.00
 000882,0.00000112,-0.00000149,0.00000075,-0.00000002,-0.00000030,-0.00
 000252,0.00000044,-0.00000080,0.00000020,0.00000225,0.00000023,0.00000
 933,0.00000147,0.00000107,-0.00000171,-0.00000092,0.00000106,0.0000016
 8,0.00000092,-0.00000008,0.00000065,0.00000992,0.00001719,0.00002033,0
 .00000121,0.00000540,0.00000212,0.00000247,0.00000205,-0.00000081,-0.0
 0001761,-0.00001134,-0.00000871,-0.00001099,-0.00000208,0.00000456\\\@


      HUMANKIND PERIODICALLY GOES THROUGH A SPEEDUP OF ITS AFFAIRS, 
      THEREBY EXPERIENCING THE RACE BETWEEN THE RENEWABLE VITALITY
      OF THE LIVING, AND THE BECKONING VITIATION OF DECADENCE.
      IN THIS PERIODIC RACE, ANY PAUSE BECOMES A LUXURY.
      ONLY THEN CAN ONE REFLECT THAT ALL IS PERMITTED;
      ALL IS POSSIBLE.

                              -- THE APOCRYPHA OF MUAD'DIB
                                 CHILDREN OF DUNE, BY FRANK HERBERT
 Job cpu time:       0 days  0 hours  0 minutes 29.8 seconds.
 Elapsed time:       0 days  0 hours  6 minutes 32.0 seconds.
 File lengths (MBytes):  RWF=    345 Int=      0 D2E=      0 Chk=     16 Scr=      1
 Normal termination of Gaussian 16 at Wed Mar 30 18:40:15 2022.
