 Entering Gaussian System, Link 0=g16
 Initial command:
 /apps/chpc/chem/gaussian16/B01/g16/l1.exe "/mnt/lustre/users/kotukile/Kgalaletso/4147728.sched01/Gau-107837.inp" -scrdir="/mnt/lustre/users/kotukile/Kgalaletso/4147728.sched01/"
 Entering Link 1 = /apps/chpc/chem/gaussian16/B01/g16/l1.exe PID=    107839.
  
 Copyright (c) 1988-2017, Gaussian, Inc.  All Rights Reserved.
  
 This is part of the Gaussian(R) 16 program.  It is based on
 the Gaussian(R) 09 system (copyright 2009, Gaussian, Inc.),
 the Gaussian(R) 03 system (copyright 2003, Gaussian, Inc.),
 the Gaussian(R) 98 system (copyright 1998, Gaussian, Inc.),
 the Gaussian(R) 94 system (copyright 1995, Gaussian, Inc.),
 the Gaussian 92(TM) system (copyright 1992, Gaussian, Inc.),
 the Gaussian 90(TM) system (copyright 1990, Gaussian, Inc.),
 the Gaussian 88(TM) system (copyright 1988, Gaussian, Inc.),
 the Gaussian 86(TM) system (copyright 1986, Carnegie Mellon
 University), and the Gaussian 82(TM) system (copyright 1983,
 Carnegie Mellon University). Gaussian is a federally registered
 trademark of Gaussian, Inc.
  
 This software contains proprietary and confidential information,
 including trade secrets, belonging to Gaussian, Inc.
  
 This software is provided under written license and may be
 used, copied, transmitted, or stored only in accord with that
 written license.
  
 The following legend is applicable only to US Government
 contracts under FAR:
  
                    RESTRICTED RIGHTS LEGEND
  
 Use, reproduction and disclosure by the US Government is
 subject to restrictions as set forth in subparagraphs (a)
 and (c) of the Commercial Computer Software - Restricted
 Rights clause in FAR 52.227-19.
  
 Gaussian, Inc.
 340 Quinnipiac St., Bldg. 40, Wallingford CT 06492
  
  
 ---------------------------------------------------------------
 Warning -- This program may not be used in any manner that
 competes with the business of Gaussian, Inc. or will provide
 assistance to any competitor of Gaussian, Inc.  The licensee
 of this program is prohibited from giving any competitor of
 Gaussian, Inc. access to this program.  By using this program,
 the user acknowledges that Gaussian, Inc. is engaged in the
 business of creating and licensing software in the field of
 computational chemistry and represents and warrants to the
 licensee that it is not a competitor of Gaussian, Inc. and that
 it will not use this program in any manner prohibited above.
 ---------------------------------------------------------------
  

 Cite this work as:
 Gaussian 16, Revision B.01,
 M. J. Frisch, G. W. Trucks, H. B. Schlegel, G. E. Scuseria, 
 M. A. Robb, J. R. Cheeseman, G. Scalmani, V. Barone, 
 G. A. Petersson, H. Nakatsuji, X. Li, M. Caricato, A. V. Marenich, 
 J. Bloino, B. G. Janesko, R. Gomperts, B. Mennucci, H. P. Hratchian, 
 J. V. Ortiz, A. F. Izmaylov, J. L. Sonnenberg, D. Williams-Young, 
 F. Ding, F. Lipparini, F. Egidi, J. Goings, B. Peng, A. Petrone, 
 T. Henderson, D. Ranasinghe, V. G. Zakrzewski, J. Gao, N. Rega, 
 G. Zheng, W. Liang, M. Hada, M. Ehara, K. Toyota, R. Fukuda, 
 J. Hasegawa, M. Ishida, T. Nakajima, Y. Honda, O. Kitao, H. Nakai, 
 T. Vreven, K. Throssell, J. A. Montgomery, Jr., J. E. Peralta, 
 F. Ogliaro, M. J. Bearpark, J. J. Heyd, E. N. Brothers, K. N. Kudin, 
 V. N. Staroverov, T. A. Keith, R. Kobayashi, J. Normand, 
 K. Raghavachari, A. P. Rendell, J. C. Burant, S. S. Iyengar, 
 J. Tomasi, M. Cossi, J. M. Millam, M. Klene, C. Adamo, R. Cammi, 
 J. W. Ochterski, R. L. Martin, K. Morokuma, O. Farkas, 
 J. B. Foresman, and D. J. Fox, Gaussian, Inc., Wallingford CT, 2016.
 
 ******************************************
 Gaussian 16:  ES64L-G16RevB.01 20-Dec-2017
                27-Apr-2022 
 ******************************************
 %nprocshared=24
 Will use up to   24 processors via shared memory.
 %lindaworkers=cnode0296.cm.cluster,cnode0330.cm.cluster,cnode0351.cm.cluster
 %mem=100GB
 %chk=Rneopentyl-O2-Concerted-OOH-TS2-b3lyp-new.chk
 SetLPE:    new flags="-opt 'Tsnet.Node.lindarsharg: ssh'  -nodelist 'cnode0296.cm.cluster cnode0330.cm.cluster cnode0351.cm.cluster' -env GAUSS_MDEF=13421772800 -env GAUSS_EXEDIR="/apps/chpc/chem/gaussian16/B01/g16/bsd:/apps/chpc/chem/gaussian16/B01/g16""
 Will use up to    3 processors via Linda.
 --------------------------------------------------------------------
 # opt=(calcfc,ts,noeigentest) freq b3lyp scf=(maxcyc=1000) cc-pvtz+d
 --------------------------------------------------------------------
 1/5=1,10=4,11=1,18=20,26=3,38=1/1,3;
 2/9=110,12=2,17=6,18=5,40=1/2;
 3/5=16,6=1,7=9,11=2,25=1,30=1,71=2,74=-5,140=1/1,2,3;
 4//1;
 5/5=2,7=1000,38=5/2;
 8/6=4,10=90,11=11/1;
 11/6=1,8=1,9=11,15=111,16=1/1,2,10;
 10/6=1,13=1/2;
 6/7=2,8=2,9=2,10=2,28=1/1;
 7/10=1,18=20,25=1/1,2,3,16;
 1/5=1,10=4,11=1,18=20,26=3/3(2);
 2/9=110/2;
 99//99;
 2/9=110/2;
 3/5=16,6=1,7=9,11=2,25=1,30=1,71=1,74=-5/1,2,3;
 4/5=5,16=3,69=1/1;
 5/5=2,7=1000,38=5/2;
 7//1,2,3,16;
 1/5=1,11=1,18=20,26=3/3(-5);
 2/9=110/2;
 6/7=2,8=2,9=2,10=2,19=2,28=1/1;
 99/9=1/99;
 -----------------------------------------
 Rneopentyl-O2-Concerted-OOH-TS2-b3lyp-new
 -----------------------------------------
 Symbolic Z-matrix:
 Charge =  0 Multiplicity = 2
 C                    -0.6705   -0.6222    0.6319 
 H                    -1.2807   -0.447     1.5169 
 H                    -1.0473   -1.3514   -0.0861 
 C                     0.693    -0.106     0.5232 
 C                    -0.0191    1.025    -0.246 
 H                     0.2708    1.019    -1.3074 
 H                    -1.249     1.124    -0.3993 
 H                     0.1372    2.0041    0.2315 
 C                     1.7194   -0.9203   -0.2492 
 H                     2.6106   -0.314    -0.4789 
 H                     2.0453   -1.7986    0.3322 
 H                     1.302    -1.2831   -1.2032 
 O                    -2.6281    1.2602   -0.6293 
 O                    -2.9829    0.1585   -0.1166 
 C                     1.26177   0.395     1.86376 
 H                     1.52498  -0.4429    2.47495 
 H                     2.13161   0.99093   1.68173 
 H                     0.52389   0.98505   2.36604 
 
 Add virtual bond connecting atoms O13        and H7         Dist= 2.65D+00.

 GradGradGradGradGradGradGradGradGradGradGradGradGradGradGradGradGradGrad
 Berny optimization.
 Initialization pass.
                           ----------------------------
                           !    Initial Parameters    !
                           ! (Angstroms and Degrees)  !
 --------------------------                            --------------------------
 ! Name  Definition              Value          Derivative Info.                !
 --------------------------------------------------------------------------------
 ! R1    R(1,2)                  1.0892         calculate D2E/DX2 analytically  !
 ! R2    R(1,3)                  1.0905         calculate D2E/DX2 analytically  !
 ! R3    R(1,4)                  1.462          calculate D2E/DX2 analytically  !
 ! R4    R(4,5)                  1.542          calculate D2E/DX2 analytically  !
 ! R5    R(4,9)                  1.5209         calculate D2E/DX2 analytically  !
 ! R6    R(4,15)                 1.54           calculate D2E/DX2 analytically  !
 ! R7    R(5,6)                  1.1003         calculate D2E/DX2 analytically  !
 ! R8    R(5,7)                  1.2434         calculate D2E/DX2 analytically  !
 ! R9    R(5,8)                  1.1005         calculate D2E/DX2 analytically  !
 ! R10   R(7,13)                 1.4048         calculate D2E/DX2 analytically  !
 ! R11   R(9,10)                 1.1021         calculate D2E/DX2 analytically  !
 ! R12   R(9,11)                 1.1026         calculate D2E/DX2 analytically  !
 ! R13   R(9,12)                 1.1027         calculate D2E/DX2 analytically  !
 ! R14   R(13,14)                1.2659         calculate D2E/DX2 analytically  !
 ! R15   R(15,16)                1.07           calculate D2E/DX2 analytically  !
 ! R16   R(15,17)                1.07           calculate D2E/DX2 analytically  !
 ! R17   R(15,18)                1.07           calculate D2E/DX2 analytically  !
 ! A1    A(2,1,3)              116.6776         calculate D2E/DX2 analytically  !
 ! A2    A(2,1,4)              121.7441         calculate D2E/DX2 analytically  !
 ! A3    A(3,1,4)              120.6231         calculate D2E/DX2 analytically  !
 ! A4    A(1,4,5)               82.2629         calculate D2E/DX2 analytically  !
 ! A5    A(1,4,9)              118.5623         calculate D2E/DX2 analytically  !
 ! A6    A(1,4,15)             113.2405         calculate D2E/DX2 analytically  !
 ! A7    A(5,4,9)              116.8079         calculate D2E/DX2 analytically  !
 ! A8    A(5,4,15)             111.4793         calculate D2E/DX2 analytically  !
 ! A9    A(9,4,15)             111.5317         calculate D2E/DX2 analytically  !
 ! A10   A(4,5,6)              110.825          calculate D2E/DX2 analytically  !
 ! A11   A(4,5,7)              125.2179         calculate D2E/DX2 analytically  !
 ! A12   A(4,5,8)              111.7474         calculate D2E/DX2 analytically  !
 ! A13   A(6,5,7)               98.1705         calculate D2E/DX2 analytically  !
 ! A14   A(6,5,8)              112.7053         calculate D2E/DX2 analytically  !
 ! A15   A(7,5,8)               97.0738         calculate D2E/DX2 analytically  !
 ! A16   A(4,9,10)             110.9175         calculate D2E/DX2 analytically  !
 ! A17   A(4,9,11)             110.9883         calculate D2E/DX2 analytically  !
 ! A18   A(4,9,12)             111.1044         calculate D2E/DX2 analytically  !
 ! A19   A(10,9,11)            108.0062         calculate D2E/DX2 analytically  !
 ! A20   A(10,9,12)            107.865          calculate D2E/DX2 analytically  !
 ! A21   A(11,9,12)            107.8185         calculate D2E/DX2 analytically  !
 ! A22   A(7,13,14)             97.1498         calculate D2E/DX2 analytically  !
 ! A23   A(4,15,16)            109.4712         calculate D2E/DX2 analytically  !
 ! A24   A(4,15,17)            109.4712         calculate D2E/DX2 analytically  !
 ! A25   A(4,15,18)            109.4712         calculate D2E/DX2 analytically  !
 ! A26   A(16,15,17)           109.4713         calculate D2E/DX2 analytically  !
 ! A27   A(16,15,18)           109.4712         calculate D2E/DX2 analytically  !
 ! A28   A(17,15,18)           109.4712         calculate D2E/DX2 analytically  !
 ! A29   L(5,7,13,2,-1)        182.4561         calculate D2E/DX2 analytically  !
 ! A30   L(5,7,13,2,-2)        180.7185         calculate D2E/DX2 analytically  !
 ! D1    D(2,1,4,5)            -96.7778         calculate D2E/DX2 analytically  !
 ! D2    D(2,1,4,9)            146.8468         calculate D2E/DX2 analytically  !
 ! D3    D(2,1,4,15)            13.3317         calculate D2E/DX2 analytically  !
 ! D4    D(3,1,4,5)             94.7782         calculate D2E/DX2 analytically  !
 ! D5    D(3,1,4,9)            -21.5973         calculate D2E/DX2 analytically  !
 ! D6    D(3,1,4,15)          -155.1123         calculate D2E/DX2 analytically  !
 ! D7    D(1,4,5,6)           -113.1012         calculate D2E/DX2 analytically  !
 ! D8    D(1,4,5,7)              3.9389         calculate D2E/DX2 analytically  !
 ! D9    D(1,4,5,8)            120.2902         calculate D2E/DX2 analytically  !
 ! D10   D(9,4,5,6)              5.0601         calculate D2E/DX2 analytically  !
 ! D11   D(9,4,5,7)            122.1002         calculate D2E/DX2 analytically  !
 ! D12   D(9,4,5,8)           -121.5485         calculate D2E/DX2 analytically  !
 ! D13   D(15,4,5,6)           134.907          calculate D2E/DX2 analytically  !
 ! D14   D(15,4,5,7)          -108.0529         calculate D2E/DX2 analytically  !
 ! D15   D(15,4,5,8)             8.2983         calculate D2E/DX2 analytically  !
 ! D16   D(1,4,9,10)           165.2046         calculate D2E/DX2 analytically  !
 ! D17   D(1,4,9,11)           -74.7243         calculate D2E/DX2 analytically  !
 ! D18   D(1,4,9,12)            45.2344         calculate D2E/DX2 analytically  !
 ! D19   D(5,4,9,10)            69.2736         calculate D2E/DX2 analytically  !
 ! D20   D(5,4,9,11)          -170.6552         calculate D2E/DX2 analytically  !
 ! D21   D(5,4,9,12)           -50.6966         calculate D2E/DX2 analytically  !
 ! D22   D(15,4,9,10)          -60.5485         calculate D2E/DX2 analytically  !
 ! D23   D(15,4,9,11)           59.5226         calculate D2E/DX2 analytically  !
 ! D24   D(15,4,9,12)          179.4813         calculate D2E/DX2 analytically  !
 ! D25   D(1,4,15,16)           75.2157         calculate D2E/DX2 analytically  !
 ! D26   D(1,4,15,17)         -164.7843         calculate D2E/DX2 analytically  !
 ! D27   D(1,4,15,18)          -44.7843         calculate D2E/DX2 analytically  !
 ! D28   D(5,4,15,16)          165.8762         calculate D2E/DX2 analytically  !
 ! D29   D(5,4,15,17)          -74.1237         calculate D2E/DX2 analytically  !
 ! D30   D(5,4,15,18)           45.8763         calculate D2E/DX2 analytically  !
 ! D31   D(9,4,15,16)          -61.5707         calculate D2E/DX2 analytically  !
 ! D32   D(9,4,15,17)           58.4293         calculate D2E/DX2 analytically  !
 ! D33   D(9,4,15,18)          178.4293         calculate D2E/DX2 analytically  !
 ! D34   D(4,5,13,14)           -5.4793         calculate D2E/DX2 analytically  !
 ! D35   D(6,5,13,14)          116.7822         calculate D2E/DX2 analytically  !
 ! D36   D(8,5,13,14)         -129.2033         calculate D2E/DX2 analytically  !
 --------------------------------------------------------------------------------
 Trust Radius=3.00D-01 FncErr=1.00D-07 GrdErr=1.00D-06 EigMax=2.50D+02 EigMin=1.00D-04
 Number of steps in this run=     93 maximum allowed number of steps=    108.
 Search for a saddle point of order  1.
 GradGradGradGradGradGradGradGradGradGradGradGradGradGradGradGradGradGrad

                          Input orientation:                          
 ---------------------------------------------------------------------
 Center     Atomic      Atomic             Coordinates (Angstroms)
 Number     Number       Type             X           Y           Z
 ---------------------------------------------------------------------
      1          6           0       -0.670500   -0.622200    0.631900
      2          1           0       -1.280700   -0.447000    1.516900
      3          1           0       -1.047300   -1.351400   -0.086100
      4          6           0        0.693000   -0.106000    0.523200
      5          6           0       -0.019100    1.025000   -0.246000
      6          1           0        0.270800    1.019000   -1.307400
      7          1           0       -1.249000    1.124000   -0.399300
      8          1           0        0.137200    2.004100    0.231500
      9          6           0        1.719400   -0.920300   -0.249200
     10          1           0        2.610600   -0.314000   -0.478900
     11          1           0        2.045300   -1.798600    0.332200
     12          1           0        1.302000   -1.283100   -1.203200
     13          8           0       -2.628100    1.260200   -0.629300
     14          8           0       -2.982900    0.158500   -0.116600
     15          6           0        1.261766    0.394996    1.863763
     16          1           0        1.524982   -0.442897    2.474953
     17          1           0        2.131606    0.990933    1.681726
     18          1           0        0.523891    0.985046    2.366039
 ---------------------------------------------------------------------
                    Distance matrix (angstroms):
                    1          2          3          4          5
     1  C    0.000000
     2  H    1.089158   0.000000
     3  H    1.090520   1.855269   0.000000
     4  C    1.461989   2.235892   2.225064   0.000000
     5  C    1.976942   2.620350   2.594232   1.542049   0.000000
     6  H    2.709330   3.540195   2.974518   2.189743   1.100294
     7  H    2.108850   2.478078   2.503274   2.476948   1.243365
     8  H    2.776716   3.109756   3.572575   2.201482   1.100488
     9  C    2.564532   3.513363   2.804831   1.520915   2.608943
    10  H    3.477712   4.375285   3.822398   2.173628   2.960150
    11  H    2.974778   3.780557   3.152640   2.174877   3.545247
    12  H    2.774011   3.842961   2.602266   2.176443   2.826458
    13  O    2.994370   3.055518   3.100718   3.771533   2.647474
    14  O    2.552830   2.435660   2.455051   3.740527   3.090579
    15  C    2.507155   2.700630   3.490508   1.540000   2.547277
    16  H    2.872131   2.964749   3.741792   2.148263   3.455791
    17  H    3.399431   3.706569   4.326335   2.148263   2.888395
    18  H    2.648971   2.455268   3.733712   2.148263   2.668180
                    6          7          8          9         10
     6  H    0.000000
     7  H    1.773545   0.000000
     8  H    1.832071   1.758987   0.000000
     9  C    2.641801   3.607366   3.359545   0.000000
    10  H    2.817439   4.119550   3.463519   1.102089   0.000000
    11  H    3.711605   4.464202   4.255762   1.102564   1.783672
    12  H    2.524657   3.598331   3.771049   1.102707   1.782189
    13  O    2.986908   1.404766   2.990192   4.878505   5.472175
    14  O    3.570018   2.004624   3.641763   4.826284   5.625101
    15  C    3.380483   3.457867   2.553066   2.530621   2.794655
    16  H    4.244562   4.290859   3.598168   2.772493   3.149671
    17  H    3.521117   3.972012   2.665956   2.747945   2.569161
    18  H    3.682304   3.287788   2.396718   3.449501   3.759728
                   11         12         13         14         15
    11  H    0.000000
    12  H    1.782046   0.000000
    13  O    5.667575   4.716293   0.000000
    14  O    5.414283   4.649654   1.265894   0.000000
    15  C    2.787736   3.496267   4.700532   4.689878   0.000000
    16  H    2.588446   3.779480   5.457565   5.234389   1.070000
    17  H    3.100026   3.765936   5.297938   5.484988   1.070000
    18  H    3.768271   4.299931   4.356927   4.375415   1.070000
                   16         17         18
    16  H    0.000000
    17  H    1.747303   0.000000
    18  H    1.747303   1.747303   0.000000
 Stoichiometry    C5H11O2(2)
 Framework group  C1[X(C5H11O2)]
 Deg. of freedom    48
 Full point group                 C1      NOp   1
 Largest Abelian subgroup         C1      NOp   1
 Largest concise Abelian subgroup C1      NOp   1
                         Standard orientation:                         
 ---------------------------------------------------------------------
 Center     Atomic      Atomic             Coordinates (Angstroms)
 Number     Number       Type             X           Y           Z
 ---------------------------------------------------------------------
      1          6           0        0.031315   -0.095047   -0.941516
      2          1           0        0.430263    0.791318   -1.432903
      3          1           0        0.401818   -1.058474   -1.293326
      4          6           0       -1.116270   -0.023128   -0.038584
      5          6           0       -0.007029    0.016830    1.031885
      6          1           0       -0.023175   -0.895874    1.646181
      7          1           0        1.213755    0.051188    0.798513
      8          1           0       -0.055579    0.935878    1.635264
      9          6           0       -2.076487   -1.201508    0.012287
     10          1           0       -2.728646   -1.139677    0.898551
     11          1           0       -2.719520   -1.225883   -0.883013
     12          1           0       -1.529384   -2.157687    0.060918
     13          8           0        2.602356    0.055091    0.586051
     14          8           0        2.569786   -0.088853   -0.671211
     15          6           0       -1.870221    1.317238   -0.119667
     16          1           0       -2.452425    1.345258   -1.016971
     17          1           0       -2.516118    1.414977    0.727779
     18          1           0       -1.165969    2.122774   -0.126147
 ---------------------------------------------------------------------
 Rotational constants (GHZ):           4.7185098           1.2518244           1.2260029
 Standard basis: CC-pVTZ+d (5D, 7F)
 There are   410 symmetry adapted cartesian basis functions of A   symmetry.
 There are   364 symmetry adapted basis functions of A   symmetry.
   364 basis functions,   551 primitive gaussians,   410 cartesian basis functions
    29 alpha electrons       28 beta electrons
       nuclear repulsion energy       314.7254014843 Hartrees.
 NAtoms=   18 NActive=   18 NUniq=   18 SFac= 1.00D+00 NAtFMM=   60 NAOKFM=F Big=F
 Integral buffers will be    131072 words long.
 Raffenetti 2 integral format.
 Two-electron integral symmetry is turned on.
 One-electron integrals computed using PRISM.
 NBasis=   364 RedAO= T EigKep=  3.42D-04  NBF=   364
 NBsUse=   364 1.00D-06 EigRej= -1.00D+00 NBFU=   364
 ExpMin= 1.03D-01 ExpMax= 1.53D+04 ExpMxC= 5.22D+02 IAcc=3 IRadAn=         5 AccDes= 0.00D+00
 Harris functional with IExCor=  402 and IRadAn=       5 diagonalized for initial guess.
 HarFok:  IExCor=  402 AccDes= 0.00D+00 IRadAn=         5 IDoV= 1 UseB2=F ITyADJ=14
 ICtDFT=  3500011 ScaDFX=  1.000000  1.000000  1.000000  1.000000
 FoFCou: FMM=F IPFlag=           0 FMFlag=      100000 FMFlg1=           0
         NFxFlg=           0 DoJE=T BraDBF=F KetDBF=T FulRan=T
         wScrn=  0.000000 ICntrl=       500 IOpCl=  0 I1Cent=   200000004 NGrid=           0
         NMat0=    1 NMatS0=      1 NMatT0=    0 NMatD0=    1 NMtDS0=    0 NMtDT0=    0
 Petite list used in FoFCou.
 Initial guess <Sx>= 0.0000 <Sy>= 0.0000 <Sz>= 0.5000 <S**2>= 0.7500 S= 0.5000
 Requested convergence on RMS density matrix=1.00D-08 within1000 cycles.
 Requested convergence on MAX density matrix=1.00D-06.
 Requested convergence on             energy=1.00D-06.
 No special actions if energy rises.
 Integral accuracy reduced to 1.0D-05 until final iterations.
 Initial convergence to 1.0D-05 achieved.  Increase integral accuracy.
 SCF Done:  E(UB3LYP) =  -347.506875327     A.U. after   23 cycles
            NFock= 23  Conv=0.24D-08     -V/T= 2.0066
 <Sx>= 0.0000 <Sy>= 0.0000 <Sz>= 0.5000 <S**2>= 0.8318 S= 0.5401
 <L.S>= 0.000000000000E+00
 Annihilation of the first spin contaminant:
 S**2 before annihilation     0.8318,   after     0.7509
 DoSCS=F DFT=T ScalE2(SS,OS)=  1.000000  1.000000
 Range of M.O.s used for correlation:     1   364
 NBasis=   364 NAE=    29 NBE=    28 NFC=     0 NFV=     0
 NROrb=    364 NOA=    29 NOB=    28 NVA=   335 NVB=   336

 **** Warning!!: The largest alpha MO coefficient is  0.12839772D+02


 **** Warning!!: The largest beta MO coefficient is  0.12961007D+02

 Symmetrizing basis deriv contribution to polar:
 IMax=3 JMax=2 DiffMx= 0.00D+00
 G2DrvN: will do    19 centers at a time, making    1 passes.
 Calling FoFCou, ICntrl=  3107 FMM=F I1Cent=   0 AccDes= 0.00D+00.
 End of G2Drv F.D. properties file   721 does not exist.
 End of G2Drv F.D. properties file   722 does not exist.
 End of G2Drv F.D. properties file   788 does not exist.
          IDoAtm=111111111111111111
          Differentiating once with respect to nuclear coordinates.
 Keep R1 and R2 ints in memory in canonical form, NReq=4447734847.
          There are    57 degrees of freedom in the 1st order CPHF.  IDoFFX=6 NUNeed=     0.
     51 vectors produced by pass  0 Test12= 3.35D-14 1.75D-09 XBig12= 1.95D-01 1.96D-01.
 AX will form    51 AO Fock derivatives at one time.
     51 vectors produced by pass  1 Test12= 3.35D-14 1.75D-09 XBig12= 2.53D-02 6.61D-02.
     51 vectors produced by pass  2 Test12= 3.35D-14 1.75D-09 XBig12= 6.67D-04 6.54D-03.
     51 vectors produced by pass  3 Test12= 3.35D-14 1.75D-09 XBig12= 7.06D-06 4.07D-04.
     51 vectors produced by pass  4 Test12= 3.35D-14 1.75D-09 XBig12= 6.26D-08 3.50D-05.
     51 vectors produced by pass  5 Test12= 3.35D-14 1.75D-09 XBig12= 3.35D-10 1.67D-06.
     33 vectors produced by pass  6 Test12= 3.35D-14 1.75D-09 XBig12= 1.89D-12 1.59D-07.
      7 vectors produced by pass  7 Test12= 3.35D-14 1.75D-09 XBig12= 8.36D-15 1.08D-08.
 InvSVY:  IOpt=1 It=  1 EMax= 5.55D-16
 Solved reduced A of dimension   346 with    57 vectors.
 End of Minotr F.D. properties file   721 does not exist.
 End of Minotr F.D. properties file   722 does not exist.
 End of Minotr F.D. properties file   788 does not exist.

 **********************************************************************

            Population analysis using the SCF Density.

 **********************************************************************

 Orbital symmetries:
 Alpha Orbitals:
       Occupied  (A) (A) (A) (A) (A) (A) (A) (A) (A) (A) (A) (A)
                 (A) (A) (A) (A) (A) (A) (A) (A) (A) (A) (A) (A)
                 (A) (A) (A) (A) (A)
       Virtual   (A) (A) (A) (A) (A) (A) (A) (A) (A) (A) (A) (A)
                 (A) (A) (A) (A) (A) (A) (A) (A) (A) (A) (A) (A)
                 (A) (A) (A) (A) (A) (A) (A) (A) (A) (A) (A) (A)
                 (A) (A) (A) (A) (A) (A) (A) (A) (A) (A) (A) (A)
                 (A) (A) (A) (A) (A) (A) (A) (A) (A) (A) (A) (A)
                 (A) (A) (A) (A) (A) (A) (A) (A) (A) (A) (A) (A)
                 (A) (A) (A) (A) (A) (A) (A) (A) (A) (A) (A) (A)
                 (A) (A) (A) (A) (A) (A) (A) (A) (A) (A) (A) (A)
                 (A) (A) (A) (A) (A) (A) (A) (A) (A) (A) (A) (A)
                 (A) (A) (A) (A) (A) (A) (A) (A) (A) (A) (A) (A)
                 (A) (A) (A) (A) (A) (A) (A) (A) (A) (A) (A) (A)
                 (A) (A) (A) (A) (A) (A) (A) (A) (A) (A) (A) (A)
                 (A) (A) (A) (A) (A) (A) (A) (A) (A) (A) (A) (A)
                 (A) (A) (A) (A) (A) (A) (A) (A) (A) (A) (A) (A)
                 (A) (A) (A) (A) (A) (A) (A) (A) (A) (A) (A) (A)
                 (A) (A) (A) (A) (A) (A) (A) (A) (A) (A) (A) (A)
                 (A) (A) (A) (A) (A) (A) (A) (A) (A) (A) (A) (A)
                 (A) (A) (A) (A) (A) (A) (A) (A) (A) (A) (A) (A)
                 (A) (A) (A) (A) (A) (A) (A) (A) (A) (A) (A) (A)
                 (A) (A) (A) (A) (A) (A) (A) (A) (A) (A) (A) (A)
                 (A) (A) (A) (A) (A) (A) (A) (A) (A) (A) (A) (A)
                 (A) (A) (A) (A) (A) (A) (A) (A) (A) (A) (A) (A)
                 (A) (A) (A) (A) (A) (A) (A) (A) (A) (A) (A) (A)
                 (A) (A) (A) (A) (A) (A) (A) (A) (A) (A) (A) (A)
                 (A) (A) (A) (A) (A) (A) (A) (A) (A) (A) (A) (A)
                 (A) (A) (A) (A) (A) (A) (A) (A) (A) (A) (A) (A)
                 (A) (A) (A) (A) (A) (A) (A) (A) (A) (A) (A) (A)
                 (A) (A) (A) (A) (A) (A) (A) (A) (A) (A) (A)
 Beta  Orbitals:
       Occupied  (A) (A) (A) (A) (A) (A) (A) (A) (A) (A) (A) (A)
                 (A) (A) (A) (A) (A) (A) (A) (A) (A) (A) (A) (A)
                 (A) (A) (A) (A)
       Virtual   (A) (A) (A) (A) (A) (A) (A) (A) (A) (A) (A) (A)
                 (A) (A) (A) (A) (A) (A) (A) (A) (A) (A) (A) (A)
                 (A) (A) (A) (A) (A) (A) (A) (A) (A) (A) (A) (A)
                 (A) (A) (A) (A) (A) (A) (A) (A) (A) (A) (A) (A)
                 (A) (A) (A) (A) (A) (A) (A) (A) (A) (A) (A) (A)
                 (A) (A) (A) (A) (A) (A) (A) (A) (A) (A) (A) (A)
                 (A) (A) (A) (A) (A) (A) (A) (A) (A) (A) (A) (A)
                 (A) (A) (A) (A) (A) (A) (A) (A) (A) (A) (A) (A)
                 (A) (A) (A) (A) (A) (A) (A) (A) (A) (A) (A) (A)
                 (A) (A) (A) (A) (A) (A) (A) (A) (A) (A) (A) (A)
                 (A) (A) (A) (A) (A) (A) (A) (A) (A) (A) (A) (A)
                 (A) (A) (A) (A) (A) (A) (A) (A) (A) (A) (A) (A)
                 (A) (A) (A) (A) (A) (A) (A) (A) (A) (A) (A) (A)
                 (A) (A) (A) (A) (A) (A) (A) (A) (A) (A) (A) (A)
                 (A) (A) (A) (A) (A) (A) (A) (A) (A) (A) (A) (A)
                 (A) (A) (A) (A) (A) (A) (A) (A) (A) (A) (A) (A)
                 (A) (A) (A) (A) (A) (A) (A) (A) (A) (A) (A) (A)
                 (A) (A) (A) (A) (A) (A) (A) (A) (A) (A) (A) (A)
                 (A) (A) (A) (A) (A) (A) (A) (A) (A) (A) (A) (A)
                 (A) (A) (A) (A) (A) (A) (A) (A) (A) (A) (A) (A)
                 (A) (A) (A) (A) (A) (A) (A) (A) (A) (A) (A) (A)
                 (A) (A) (A) (A) (A) (A) (A) (A) (A) (A) (A) (A)
                 (A) (A) (A) (A) (A) (A) (A) (A) (A) (A) (A) (A)
                 (A) (A) (A) (A) (A) (A) (A) (A) (A) (A) (A) (A)
                 (A) (A) (A) (A) (A) (A) (A) (A) (A) (A) (A) (A)
                 (A) (A) (A) (A) (A) (A) (A) (A) (A) (A) (A) (A)
                 (A) (A) (A) (A) (A) (A) (A) (A) (A) (A) (A) (A)
                 (A) (A) (A) (A) (A) (A) (A) (A) (A) (A) (A) (A)
 The electronic state is 2-A.
 Alpha  occ. eigenvalues --  -19.18471 -19.17476 -10.23275 -10.21703 -10.20202
 Alpha  occ. eigenvalues --  -10.18701 -10.17546  -1.16885  -0.86797  -0.76928
 Alpha  occ. eigenvalues --   -0.72925  -0.71240  -0.67012  -0.57313  -0.49471
 Alpha  occ. eigenvalues --   -0.48291  -0.47254  -0.46126  -0.45812  -0.44850
 Alpha  occ. eigenvalues --   -0.43275  -0.41106  -0.39890  -0.39284  -0.35406
 Alpha  occ. eigenvalues --   -0.35002  -0.31744  -0.23925  -0.21427
 Alpha virt. eigenvalues --   -0.06347   0.01962   0.06216   0.06464   0.07761
 Alpha virt. eigenvalues --    0.08251   0.08700   0.10134   0.10562   0.12027
 Alpha virt. eigenvalues --    0.13000   0.14061   0.14815   0.17299   0.19935
 Alpha virt. eigenvalues --    0.21207   0.22109   0.24163   0.24909   0.25660
 Alpha virt. eigenvalues --    0.27358   0.28241   0.29389   0.30504   0.35908
 Alpha virt. eigenvalues --    0.36361   0.37214   0.37938   0.42233   0.43199
 Alpha virt. eigenvalues --    0.43831   0.44379   0.44772   0.44958   0.45212
 Alpha virt. eigenvalues --    0.45753   0.46963   0.48084   0.48600   0.49285
 Alpha virt. eigenvalues --    0.50003   0.51828   0.52518   0.55047   0.58113
 Alpha virt. eigenvalues --    0.59585   0.60601   0.61731   0.63308   0.68296
 Alpha virt. eigenvalues --    0.69106   0.69555   0.70412   0.74111   0.75617
 Alpha virt. eigenvalues --    0.78191   0.83168   0.83483   0.84063   0.87053
 Alpha virt. eigenvalues --    0.87911   0.89233   0.89897   0.90665   0.93026
 Alpha virt. eigenvalues --    0.93641   0.94412   0.95749   0.97251   0.98264
 Alpha virt. eigenvalues --    0.99180   1.01253   1.02342   1.04242   1.05377
 Alpha virt. eigenvalues --    1.09572   1.10563   1.11819   1.13331   1.14628
 Alpha virt. eigenvalues --    1.16651   1.17678   1.19998   1.21849   1.22560
 Alpha virt. eigenvalues --    1.23806   1.24968   1.26222   1.26389   1.27506
 Alpha virt. eigenvalues --    1.28142   1.29766   1.30685   1.31978   1.33494
 Alpha virt. eigenvalues --    1.35408   1.35721   1.38194   1.39499   1.40432
 Alpha virt. eigenvalues --    1.44601   1.45809   1.46578   1.47435   1.48570
 Alpha virt. eigenvalues --    1.51138   1.51785   1.53010   1.53596   1.57942
 Alpha virt. eigenvalues --    1.60098   1.64074   1.65100   1.67747   1.68683
 Alpha virt. eigenvalues --    1.71094   1.75360   1.81868   1.86707   2.01656
 Alpha virt. eigenvalues --    2.10309   2.13735   2.17469   2.20240   2.20901
 Alpha virt. eigenvalues --    2.22907   2.23749   2.26872   2.28781   2.32872
 Alpha virt. eigenvalues --    2.34737   2.37887   2.39384   2.45539   2.49601
 Alpha virt. eigenvalues --    2.49927   2.51958   2.52783   2.53944   2.56051
 Alpha virt. eigenvalues --    2.57620   2.59383   2.61415   2.63337   2.66954
 Alpha virt. eigenvalues --    2.68180   2.71458   2.73357   2.75390   2.76767
 Alpha virt. eigenvalues --    2.78055   2.79305   2.79971   2.82282   2.84296
 Alpha virt. eigenvalues --    2.87970   2.88835   2.89967   2.90479   2.93182
 Alpha virt. eigenvalues --    2.94259   2.96083   2.97973   2.99909   3.00968
 Alpha virt. eigenvalues --    3.02375   3.03667   3.04746   3.05620   3.06127
 Alpha virt. eigenvalues --    3.08249   3.10688   3.11221   3.11916   3.13954
 Alpha virt. eigenvalues --    3.16504   3.17917   3.18976   3.19286   3.22264
 Alpha virt. eigenvalues --    3.25480   3.28330   3.29996   3.31010   3.31893
 Alpha virt. eigenvalues --    3.32085   3.33988   3.37333   3.37407   3.41718
 Alpha virt. eigenvalues --    3.42204   3.44522   3.45330   3.45950   3.47207
 Alpha virt. eigenvalues --    3.49341   3.50740   3.51893   3.52868   3.53649
 Alpha virt. eigenvalues --    3.55545   3.57880   3.58918   3.59965   3.61433
 Alpha virt. eigenvalues --    3.63656   3.66345   3.67254   3.70396   3.71265
 Alpha virt. eigenvalues --    3.72926   3.74431   3.75540   3.77583   3.78097
 Alpha virt. eigenvalues --    3.80424   3.84059   3.84990   3.87356   3.90017
 Alpha virt. eigenvalues --    3.91911   3.93590   3.94787   3.96932   3.97790
 Alpha virt. eigenvalues --    3.99199   3.99349   4.01374   4.02404   4.03749
 Alpha virt. eigenvalues --    4.04233   4.07098   4.07513   4.08165   4.11352
 Alpha virt. eigenvalues --    4.13204   4.15167   4.16104   4.17268   4.19041
 Alpha virt. eigenvalues --    4.19399   4.21088   4.21852   4.24524   4.25029
 Alpha virt. eigenvalues --    4.28881   4.30392   4.31463   4.32981   4.36155
 Alpha virt. eigenvalues --    4.37109   4.38590   4.44354   4.48235   4.49818
 Alpha virt. eigenvalues --    4.51225   4.53760   4.57780   4.62880   4.65087
 Alpha virt. eigenvalues --    4.67176   4.69110   4.71925   4.73074   4.75662
 Alpha virt. eigenvalues --    4.78967   4.80237   4.81393   4.83071   4.84289
 Alpha virt. eigenvalues --    4.86900   4.87892   4.88669   4.90057   4.91109
 Alpha virt. eigenvalues --    4.93702   4.98137   4.99658   5.01987   5.06858
 Alpha virt. eigenvalues --    5.08614   5.11361   5.13297   5.14786   5.16583
 Alpha virt. eigenvalues --    5.17772   5.18957   5.20814   5.22489   5.24747
 Alpha virt. eigenvalues --    5.26245   5.28076   5.29881   5.31524   5.33044
 Alpha virt. eigenvalues --    5.34648   5.37833   5.40644   5.41810   5.44572
 Alpha virt. eigenvalues --    5.48911   5.55774   5.56573   5.63476   5.68353
 Alpha virt. eigenvalues --    5.70445   5.71869   5.82964   5.85063   5.88617
 Alpha virt. eigenvalues --    5.90564   5.91234   5.98523   5.99561   6.22372
 Alpha virt. eigenvalues --    6.24534   6.25423   6.28300   6.37181   6.39821
 Alpha virt. eigenvalues --    6.42597   6.49024   6.61929   6.79550   7.02001
 Alpha virt. eigenvalues --    7.11684   7.33911   7.49878   8.74668  10.66616
 Alpha virt. eigenvalues --   11.47644  12.75798  12.80582  13.56565  14.13275
  Beta  occ. eigenvalues --  -19.16790 -19.15532 -10.23584 -10.21726 -10.20151
  Beta  occ. eigenvalues --  -10.18706 -10.17550  -1.13366  -0.87018  -0.73297
  Beta  occ. eigenvalues --   -0.71911  -0.71251  -0.66979  -0.57345  -0.49459
  Beta  occ. eigenvalues --   -0.47553  -0.47141  -0.45288  -0.43342  -0.42741
  Beta  occ. eigenvalues --   -0.40868  -0.40007  -0.39355  -0.37212  -0.35267
  Beta  occ. eigenvalues --   -0.34988  -0.30959  -0.18699
  Beta virt. eigenvalues --   -0.07130  -0.06334   0.01948   0.06217   0.06402
  Beta virt. eigenvalues --    0.07756   0.08260   0.08611   0.10095   0.10607
  Beta virt. eigenvalues --    0.12078   0.13020   0.14080   0.15073   0.17262
  Beta virt. eigenvalues --    0.20831   0.21390   0.22388   0.24168   0.25003
  Beta virt. eigenvalues --    0.25786   0.27801   0.28273   0.29228   0.30501
  Beta virt. eigenvalues --    0.35916   0.36388   0.37199   0.38005   0.42214
  Beta virt. eigenvalues --    0.43231   0.43817   0.44373   0.44739   0.44946
  Beta virt. eigenvalues --    0.45191   0.45752   0.46974   0.48131   0.48683
  Beta virt. eigenvalues --    0.49349   0.49995   0.51829   0.52545   0.55246
  Beta virt. eigenvalues --    0.58196   0.60128   0.62395   0.62592   0.63711
  Beta virt. eigenvalues --    0.68944   0.69219   0.69657   0.71685   0.74281
  Beta virt. eigenvalues --    0.76721   0.78296   0.83237   0.83533   0.84182
  Beta virt. eigenvalues --    0.87064   0.88215   0.89317   0.89951   0.90714
  Beta virt. eigenvalues --    0.93057   0.93656   0.94445   0.95747   0.97202
  Beta virt. eigenvalues --    0.98324   0.99225   1.01254   1.02411   1.04151
  Beta virt. eigenvalues --    1.05403   1.09558   1.10330   1.11999   1.13335
  Beta virt. eigenvalues --    1.14616   1.16631   1.17859   1.19876   1.22051
  Beta virt. eigenvalues --    1.22697   1.23878   1.25020   1.26323   1.26714
  Beta virt. eigenvalues --    1.27836   1.28572   1.29991   1.30799   1.32528
  Beta virt. eigenvalues --    1.35317   1.35731   1.35912   1.38262   1.39515
  Beta virt. eigenvalues --    1.40586   1.45070   1.46109   1.46720   1.47548
  Beta virt. eigenvalues --    1.48934   1.51526   1.52180   1.53545   1.53915
  Beta virt. eigenvalues --    1.58348   1.60429   1.64528   1.65323   1.67758
  Beta virt. eigenvalues --    1.69192   1.71626   1.75383   1.83894   1.87969
  Beta virt. eigenvalues --    2.01001   2.12233   2.14826   2.18145   2.21090
  Beta virt. eigenvalues --    2.22652   2.23173   2.24134   2.27035   2.29360
  Beta virt. eigenvalues --    2.32724   2.34935   2.37942   2.39333   2.45591
  Beta virt. eigenvalues --    2.49283   2.49668   2.51905   2.52673   2.53826
  Beta virt. eigenvalues --    2.56075   2.57556   2.59223   2.61429   2.63421
  Beta virt. eigenvalues --    2.66900   2.68162   2.71433   2.73154   2.75298
  Beta virt. eigenvalues --    2.76682   2.78020   2.79010   2.79941   2.82155
  Beta virt. eigenvalues --    2.84187   2.87796   2.88797   2.89898   2.90280
  Beta virt. eigenvalues --    2.93120   2.94093   2.95946   2.97812   2.99874
  Beta virt. eigenvalues --    3.00925   3.02295   3.03639   3.04652   3.05505
  Beta virt. eigenvalues --    3.06075   3.08109   3.10641   3.11185   3.11791
  Beta virt. eigenvalues --    3.13937   3.16348   3.17966   3.18763   3.19153
  Beta virt. eigenvalues --    3.22093   3.25442   3.28304   3.29781   3.31016
  Beta virt. eigenvalues --    3.31872   3.31973   3.34029   3.37377   3.37643
  Beta virt. eigenvalues --    3.41744   3.42397   3.44505   3.45292   3.46168
  Beta virt. eigenvalues --    3.47719   3.49986   3.50646   3.51949   3.53574
  Beta virt. eigenvalues --    3.54386   3.56021   3.57951   3.59876   3.60093
  Beta virt. eigenvalues --    3.61678   3.64226   3.66829   3.67945   3.70287
  Beta virt. eigenvalues --    3.71261   3.73173   3.74519   3.77968   3.78287
  Beta virt. eigenvalues --    3.78781   3.81150   3.84972   3.85536   3.87354
  Beta virt. eigenvalues --    3.90190   3.91853   3.93677   3.94905   3.96915
  Beta virt. eigenvalues --    3.97750   3.99169   3.99328   4.01528   4.02425
  Beta virt. eigenvalues --    4.03920   4.04222   4.07123   4.07545   4.08141
  Beta virt. eigenvalues --    4.11363   4.13231   4.15138   4.16056   4.17233
  Beta virt. eigenvalues --    4.18935   4.19366   4.21035   4.21850   4.24492
  Beta virt. eigenvalues --    4.24968   4.28915   4.30345   4.31527   4.33000
  Beta virt. eigenvalues --    4.36160   4.37120   4.38436   4.44355   4.48444
  Beta virt. eigenvalues --    4.49905   4.51607   4.54164   4.57886   4.62924
  Beta virt. eigenvalues --    4.65432   4.67483   4.69330   4.74655   4.75354
  Beta virt. eigenvalues --    4.76793   4.79142   4.80226   4.82308   4.83271
  Beta virt. eigenvalues --    4.84499   4.87342   4.88160   4.89846   4.90519
  Beta virt. eigenvalues --    4.92133   4.94490   4.98884   4.99801   5.02237
  Beta virt. eigenvalues --    5.07045   5.08765   5.13034   5.14551   5.16704
  Beta virt. eigenvalues --    5.17332   5.18446   5.19707   5.21201   5.24246
  Beta virt. eigenvalues --    5.25036   5.26363   5.28069   5.30110   5.31714
  Beta virt. eigenvalues --    5.33245   5.34807   5.38013   5.40744   5.41862
  Beta virt. eigenvalues --    5.44596   5.48998   5.56349   5.56586   5.65997
  Beta virt. eigenvalues --    5.70170   5.71448   5.72621   5.84989   5.85361
  Beta virt. eigenvalues --    5.88640   5.90572   5.91257   5.98602   5.99572
  Beta virt. eigenvalues --    6.24525   6.30628   6.30777   6.31334   6.41680
  Beta virt. eigenvalues --    6.45133   6.47164   6.54634   6.63631   6.81459
  Beta virt. eigenvalues --    7.04325   7.15228   7.35194   7.51324   8.78131
  Beta virt. eigenvalues --   10.66572  11.50318  12.75655  12.80438  13.56521
  Beta virt. eigenvalues --   14.13267
          Condensed to atoms (all electrons):
               1          2          3          4          5          6
     1  C    5.132918   0.413783   0.411446   0.258531   0.081678   0.001126
     2  H    0.413783   0.496652  -0.024547  -0.042271   0.001036  -0.000159
     3  H    0.411446  -0.024547   0.500336  -0.044194   0.002827  -0.001576
     4  C    0.258531  -0.042271  -0.044194   5.011595   0.245129  -0.037843
     5  C    0.081678   0.001036   0.002827   0.245129   5.124299   0.390342
     6  H    0.001126  -0.000159  -0.001576  -0.037843   0.390342   0.578229
     7  H   -0.012979   0.000308  -0.000081   0.007652   0.235987  -0.011744
     8  H    0.003708  -0.001828  -0.000220  -0.038859   0.383826  -0.023822
     9  C   -0.053239   0.004373  -0.006435   0.348681  -0.040001  -0.009103
    10  H    0.007238  -0.000252  -0.000152  -0.036265  -0.003063   0.002104
    11  H    0.001303   0.000420   0.001095  -0.037512   0.007183  -0.000070
    12  H   -0.004586  -0.000267   0.003089  -0.028634  -0.004598   0.002446
    13  O   -0.051600   0.001200   0.000707  -0.000263  -0.044023  -0.004112
    14  O    0.061398  -0.001658  -0.001617   0.004428  -0.016785   0.002596
    15  C   -0.049225  -0.007484   0.005654   0.336044  -0.040286   0.005412
    16  H   -0.000073   0.001879   0.000230  -0.037231   0.007883  -0.000543
    17  H    0.008177   0.000010  -0.000326  -0.035031  -0.004421   0.000549
    18  H   -0.005061   0.001973  -0.000237  -0.031197  -0.004106  -0.000052
               7          8          9         10         11         12
     1  C   -0.012979   0.003708  -0.053239   0.007238   0.001303  -0.004586
     2  H    0.000308  -0.001828   0.004373  -0.000252   0.000420  -0.000267
     3  H   -0.000081  -0.000220  -0.006435  -0.000152   0.001095   0.003089
     4  C    0.007652  -0.038859   0.348681  -0.036265  -0.037512  -0.028634
     5  C    0.235987   0.383826  -0.040001  -0.003063   0.007183  -0.004598
     6  H   -0.011744  -0.023822  -0.009103   0.002104  -0.000070   0.002446
     7  H    0.465266  -0.012746   0.002353  -0.000050  -0.000079   0.000030
     8  H   -0.012746   0.589750   0.003617   0.000937  -0.000471  -0.000217
     9  C    0.002353   0.003617   4.912598   0.401874   0.395223   0.394322
    10  H   -0.000050   0.000937   0.401874   0.590857  -0.029242  -0.029341
    11  H   -0.000079  -0.000471   0.395223  -0.029242   0.597640  -0.029481
    12  H    0.000030  -0.000217   0.394322  -0.029341  -0.029481   0.597849
    13  O    0.155392  -0.004439  -0.000177   0.000014   0.000029  -0.000115
    14  O   -0.040091   0.002668  -0.000075   0.000001  -0.000042   0.000017
    15  C    0.001812  -0.010991  -0.059991  -0.006001  -0.006194   0.008691
    16  H   -0.000086   0.000149  -0.005210  -0.000440   0.004979  -0.000236
    17  H   -0.000068   0.003239  -0.005179   0.004202  -0.000485  -0.000193
    18  H   -0.000084   0.000725   0.008543  -0.000145  -0.000162  -0.000494
              13         14         15         16         17         18
     1  C   -0.051600   0.061398  -0.049225  -0.000073   0.008177  -0.005061
     2  H    0.001200  -0.001658  -0.007484   0.001879   0.000010   0.001973
     3  H    0.000707  -0.001617   0.005654   0.000230  -0.000326  -0.000237
     4  C   -0.000263   0.004428   0.336044  -0.037231  -0.035031  -0.031197
     5  C   -0.044023  -0.016785  -0.040286   0.007883  -0.004421  -0.004106
     6  H   -0.004112   0.002596   0.005412  -0.000543   0.000549  -0.000052
     7  H    0.155392  -0.040091   0.001812  -0.000086  -0.000068  -0.000084
     8  H   -0.004439   0.002668  -0.010991   0.000149   0.003239   0.000725
     9  C   -0.000177  -0.000075  -0.059991  -0.005210  -0.005179   0.008543
    10  H    0.000014   0.000001  -0.006001  -0.000440   0.004202  -0.000145
    11  H    0.000029  -0.000042  -0.006194   0.004979  -0.000485  -0.000162
    12  H   -0.000115   0.000017   0.008691  -0.000236  -0.000193  -0.000494
    13  O    8.001739   0.093343  -0.000252   0.000041   0.000018  -0.000234
    14  O    0.093343   8.090109  -0.000177  -0.000057  -0.000001   0.000091
    15  C   -0.000252  -0.000177   4.931650   0.399201   0.404019   0.405953
    16  H    0.000041  -0.000057   0.399201   0.585470  -0.028908  -0.030199
    17  H    0.000018  -0.000001   0.404019  -0.028908   0.580817  -0.029666
    18  H   -0.000234   0.000091   0.405953  -0.030199  -0.029666   0.585663
          Atomic-Atomic Spin Densities.
               1          2          3          4          5          6
     1  C   -0.253164  -0.002641  -0.003112   0.023916   0.024094  -0.006258
     2  H   -0.002641   0.009936  -0.003528   0.003515  -0.003283   0.000204
     3  H   -0.003112  -0.003528   0.010732   0.002334  -0.001997   0.000515
     4  C    0.023916   0.003515   0.002334  -0.029227  -0.010016   0.005927
     5  C    0.024094  -0.003283  -0.001997  -0.010016   0.011222   0.007409
     6  H   -0.006258   0.000204   0.000515   0.005927   0.007409  -0.012779
     7  H    0.014910  -0.000743  -0.000301  -0.005180   0.001660   0.002978
     8  H   -0.006654   0.000545   0.000205   0.006798   0.009367  -0.003542
     9  C    0.003207   0.000807  -0.000800  -0.000921   0.002082  -0.000702
    10  H    0.000104   0.000006  -0.000044  -0.000762  -0.000253   0.000084
    11  H   -0.002491  -0.000169  -0.000164   0.001475  -0.000484   0.000259
    12  H    0.000251   0.000063   0.000064  -0.000371   0.000566  -0.000491
    13  O    0.015930  -0.001892  -0.001528  -0.000149  -0.015545   0.002118
    14  O   -0.027894   0.004071   0.003470   0.000705   0.009200  -0.000825
    15  C    0.003242  -0.000512   0.000713  -0.001216   0.002695  -0.000568
    16  H   -0.002562  -0.000208  -0.000172   0.001681  -0.000665   0.000112
    17  H    0.000186  -0.000051   0.000010  -0.001013  -0.000010   0.000047
    18  H    0.000038   0.000027   0.000101  -0.000385   0.000988  -0.000132
               7          8          9         10         11         12
     1  C    0.014910  -0.006654   0.003207   0.000104  -0.002491   0.000251
     2  H   -0.000743   0.000545   0.000807   0.000006  -0.000169   0.000063
     3  H   -0.000301   0.000205  -0.000800  -0.000044  -0.000164   0.000064
     4  C   -0.005180   0.006798  -0.000921  -0.000762   0.001475  -0.000371
     5  C    0.001660   0.009367   0.002082  -0.000253  -0.000484   0.000566
     6  H    0.002978  -0.003542  -0.000702   0.000084   0.000259  -0.000491
     7  H   -0.031277   0.003537   0.000071  -0.000021  -0.000041   0.000057
     8  H    0.003537  -0.017737  -0.000747   0.000057   0.000133  -0.000097
     9  C    0.000071  -0.000747  -0.004323   0.000763   0.002052  -0.000230
    10  H   -0.000021   0.000057   0.000763   0.000569  -0.000368   0.000162
    11  H   -0.000041   0.000133   0.002052  -0.000368  -0.003225   0.000521
    12  H    0.000057  -0.000097  -0.000230   0.000162   0.000521  -0.000342
    13  O   -0.015077   0.002288   0.000029   0.000000  -0.000004   0.000027
    14  O    0.005347  -0.000827  -0.000032  -0.000001   0.000008  -0.000020
    15  C    0.000107  -0.000644  -0.003631   0.000004   0.001235  -0.000216
    16  H   -0.000057   0.000317   0.001218  -0.000024  -0.000739   0.000065
    17  H   -0.000018   0.000101  -0.000116  -0.000003  -0.000014  -0.000004
    18  H    0.000173  -0.000708  -0.000263  -0.000004   0.000079  -0.000015
              13         14         15         16         17         18
     1  C    0.015930  -0.027894   0.003242  -0.002562   0.000186   0.000038
     2  H   -0.001892   0.004071  -0.000512  -0.000208  -0.000051   0.000027
     3  H   -0.001528   0.003470   0.000713  -0.000172   0.000010   0.000101
     4  C   -0.000149   0.000705  -0.001216   0.001681  -0.001013  -0.000385
     5  C   -0.015545   0.009200   0.002695  -0.000665  -0.000010   0.000988
     6  H    0.002118  -0.000825  -0.000568   0.000112   0.000047  -0.000132
     7  H   -0.015077   0.005347   0.000107  -0.000057  -0.000018   0.000173
     8  H    0.002288  -0.000827  -0.000644   0.000317   0.000101  -0.000708
     9  C    0.000029  -0.000032  -0.003631   0.001218  -0.000116  -0.000263
    10  H    0.000000  -0.000001   0.000004  -0.000024  -0.000003  -0.000004
    11  H   -0.000004   0.000008   0.001235  -0.000739  -0.000014   0.000079
    12  H    0.000027  -0.000020  -0.000216   0.000065  -0.000004  -0.000015
    13  O    0.774260  -0.207692   0.000046  -0.000008   0.000002   0.000065
    14  O   -0.207692   0.876693  -0.000040   0.000016  -0.000002  -0.000063
    15  C    0.000046  -0.000040  -0.004440   0.001927   0.000568  -0.000322
    16  H   -0.000008   0.000016   0.001927  -0.002766  -0.000382   0.000551
    17  H    0.000002  -0.000002   0.000568  -0.000382   0.000761   0.000242
    18  H    0.000065  -0.000063  -0.000322   0.000551   0.000242  -0.000452
 Mulliken charges and spin densities:
               1          2
     1  C   -0.204541  -0.218899
     2  H    0.156833   0.006147
     3  H    0.154001   0.006498
     4  C    0.157240  -0.002889
     5  C   -0.322907   0.037030
     6  H    0.106219  -0.005644
     7  H    0.209208  -0.023876
     8  H    0.104974  -0.007610
     9  C   -0.292174  -0.001535
    10  H    0.097725   0.000269
    11  H    0.095866  -0.001940
    12  H    0.091718  -0.000010
    13  O   -0.147267   0.552870
    14  O   -0.194150   0.662114
    15  C   -0.317835  -0.001052
    16  H    0.103150  -0.001696
    17  H    0.103248   0.000303
    18  H    0.098690  -0.000080
 Sum of Mulliken charges =  -0.00000   1.00000
 Mulliken charges and spin densities with hydrogens summed into heavy atoms:
               1          2
     1  C    0.106293  -0.206254
     4  C    0.157240  -0.002889
     5  C    0.097494  -0.000100
     9  C   -0.006864  -0.003215
    13  O   -0.147267   0.552870
    14  O   -0.194150   0.662114
    15  C   -0.012747  -0.002526
 APT charges:
               1
     1  C   -0.674588
     2  H    0.367030
     3  H    0.372075
     4  C    0.211272
     5  C   -0.850617
     6  H    0.353432
     7  H    0.109164
     8  H    0.351507
     9  C   -1.103584
    10  H    0.425729
    11  H    0.428543
    12  H    0.264703
    13  O   -0.107549
    14  O   -0.134533
    15  C   -1.060678
    16  H    0.406554
    17  H    0.411978
    18  H    0.229560
 Sum of APT charges =  -0.00000
 APT charges with hydrogens summed into heavy atoms:
               1
     1  C    0.064518
     4  C    0.211272
     5  C   -0.036514
     9  C    0.015391
    13  O   -0.107549
    14  O   -0.134533
    15  C   -0.012585
 Electronic spatial extent (au):  <R**2>=           1047.1007
 Charge=              0.0000 electrons
 Dipole moment (field-independent basis, Debye):
    X=             -4.3339    Y=             -0.0126    Z=              0.0678  Tot=              4.3345
 Quadrupole moment (field-independent basis, Debye-Ang):
   XX=            -55.7426   YY=            -42.9508   ZZ=            -43.8003
   XY=              0.2093   XZ=              0.1800   YZ=             -0.0932
 Traceless Quadrupole moment (field-independent basis, Debye-Ang):
   XX=             -8.2447   YY=              4.5471   ZZ=              3.6976
   XY=              0.2093   XZ=              0.1800   YZ=             -0.0932
 Octapole moment (field-independent basis, Debye-Ang**2):
  XXX=            -16.8252  YYY=             -0.6906  ZZZ=             -0.1701  XYY=              8.4056
  XXY=             -0.0234  XXZ=              0.7841  XZZ=              3.7774  YZZ=              0.3800
  YYZ=             -0.3413  XYZ=             -0.5209
 Hexadecapole moment (field-independent basis, Debye-Ang**3):
 XXXX=          -1001.7188 YYYY=           -231.6680 ZZZZ=           -188.2402 XXXY=              0.2007
 XXXZ=              0.6737 YYYX=             -0.1513 YYYZ=              0.8738 ZZZX=             -0.8956
 ZZZY=              0.1194 XXYY=           -192.8410 XXZZ=           -187.6707 YYZZ=            -67.4667
 XXYZ=             -0.6581 YYXZ=             -1.7750 ZZXY=             -0.3480
 N-N= 3.147254014843D+02 E-N=-1.440515312687D+03  KE= 3.452157759023D+02
  Exact polarizability:   0.000   0.000   0.000   0.000   0.000   0.000
 Approx polarizability: 195.792   1.476  87.729  20.079   3.923 129.690
                          Isotropic Fermi Contact Couplings
        Atom                 a.u.       MegaHertz       Gauss      10(-4) cm-1
     1  C(13)             -0.00926     -10.40840      -3.71398      -3.47187
     2  H(1)               0.00296      13.24367       4.72567       4.41761
     3  H(1)               0.00299      13.35852       4.76665       4.45592
     4  C(13)             -0.00015      -0.16799      -0.05994      -0.05604
     5  C(13)              0.00726       8.15737       2.91075       2.72101
     6  H(1)              -0.00183      -8.18640      -2.92111      -2.73069
     7  H(1)              -0.01326     -59.28781     -21.15536     -19.77628
     8  H(1)              -0.00265     -11.85355      -4.22964      -3.95392
     9  C(13)             -0.00251      -2.82165      -1.00683      -0.94120
    10  H(1)               0.00013       0.57973       0.20686       0.19338
    11  H(1)              -0.00004      -0.17084      -0.06096      -0.05698
    12  H(1)               0.00002       0.09413       0.03359       0.03140
    13  O(17)              0.04689     -28.42558     -10.14295      -9.48175
    14  O(17)              0.04892     -29.65351     -10.58111      -9.89135
    15  C(13)             -0.00153      -1.71615      -0.61237      -0.57245
    16  H(1)               0.00003       0.12030       0.04293       0.04013
    17  H(1)               0.00011       0.50640       0.18070       0.16892
    18  H(1)               0.00003       0.14632       0.05221       0.04881
 --------------------------------------------------------
       Center         ----  Spin Dipole Couplings  ----
                      3XX-RR        3YY-RR        3ZZ-RR
 --------------------------------------------------------
     1   Atom        0.017222      0.116903     -0.134125
     2   Atom        0.015526     -0.012283     -0.003243
     3   Atom        0.015751     -0.013969     -0.001782
     4   Atom        0.010270      0.013151     -0.023421
     5   Atom        0.032386     -0.015868     -0.016518
     6   Atom        0.006230     -0.002348     -0.003882
     7   Atom        0.062714     -0.032446     -0.030268
     8   Atom        0.006095     -0.002425     -0.003670
     9   Atom        0.001988     -0.002789      0.000801
    10   Atom        0.001237     -0.000406     -0.000830
    11   Atom        0.000419     -0.000351     -0.000068
    12   Atom        0.002569     -0.001675     -0.000894
    13   Atom       -0.565068      1.913966     -1.348898
    14   Atom       -0.752473      2.298719     -1.546245
    15   Atom        0.003191     -0.003837      0.000646
    16   Atom        0.000871     -0.000783     -0.000087
    17   Atom        0.001486     -0.000695     -0.000791
    18   Atom        0.003193     -0.002136     -0.001056
 --------------------------------------------------------
                        XY            XZ            YZ
 --------------------------------------------------------
     1   Atom       -0.010977     -0.167456     -0.017276
     2   Atom       -0.017437      0.004723      0.005165
     3   Atom        0.017256      0.001560     -0.003523
     4   Atom       -0.000252     -0.012899     -0.000634
     5   Atom       -0.000119     -0.046062     -0.001220
     6   Atom        0.002827     -0.006245     -0.002553
     7   Atom       -0.000992     -0.028914     -0.000101
     8   Atom       -0.002755     -0.006008      0.002498
     9   Atom       -0.002461      0.002005      0.001680
    10   Atom       -0.000082      0.000424      0.000312
    11   Atom       -0.000632      0.000478      0.000058
    12   Atom        0.000744      0.000367      0.000836
    13   Atom       -0.044691     -0.036944     -0.377438
    14   Atom       -0.060702     -0.012737     -0.443180
    15   Atom        0.001546      0.001426     -0.001545
    16   Atom        0.000765      0.000501     -0.000023
    17   Atom        0.000043      0.000333     -0.000438
    18   Atom       -0.001354      0.000407     -0.000916
 --------------------------------------------------------


 ---------------------------------------------------------------------------------
              Anisotropic Spin Dipole Couplings in Principal Axis System
 ---------------------------------------------------------------------------------

       Atom             a.u.   MegaHertz   Gauss  10(-4) cm-1        Axes

              Baa    -0.2434   -32.659   -11.653   -10.894  0.5414  0.0567  0.8388
     1 C(13)  Bbb     0.1181    15.843     5.653     5.285 -0.0477  0.9982 -0.0367
              Bcc     0.1253    16.816     6.000     5.609  0.8394  0.0201 -0.5431
 
              Baa    -0.0230   -12.255    -4.373    -4.088  0.4231  0.8466 -0.3230
     2 H(1)   Bbb    -0.0011    -0.592    -0.211    -0.197  0.0718  0.3240  0.9433
              Bcc     0.0241    12.847     4.584     4.285  0.9032 -0.4223  0.0763
 
              Baa    -0.0226   -12.056    -4.302    -4.021 -0.4097  0.8939  0.1820
     3 H(1)   Bbb    -0.0011    -0.570    -0.203    -0.190  0.0777 -0.1646  0.9833
              Bcc     0.0237    12.626     4.505     4.212  0.9089  0.4170 -0.0020
 
              Baa    -0.0278    -3.731    -1.331    -1.245  0.3209  0.0166  0.9470
     4 C(13)  Bbb     0.0132     1.766     0.630     0.589  0.0172  0.9996 -0.0234
              Bcc     0.0146     1.965     0.701     0.655  0.9469 -0.0238 -0.3205
 
              Baa    -0.0443    -5.939    -2.119    -1.981  0.5148  0.0389  0.8564
     5 C(13)  Bbb    -0.0158    -2.124    -0.758    -0.709 -0.0260  0.9992 -0.0298
              Bcc     0.0601     8.063     2.877     2.690  0.8569  0.0069 -0.5154
 
              Baa    -0.0072    -3.819    -1.363    -1.274  0.3620  0.2621  0.8946
     6 H(1)   Bbb    -0.0031    -1.661    -0.593    -0.554 -0.3624  0.9237 -0.1241
              Bcc     0.0103     5.480     1.955     1.828  0.8589  0.2792 -0.4293
 
              Baa    -0.0385   -20.567    -7.339    -6.861  0.2746  0.0604  0.9597
     7 H(1)   Bbb    -0.0324   -17.304    -6.175    -5.772 -0.0080  0.9981 -0.0606
              Bcc     0.0710    37.871    13.513    12.633  0.9615 -0.0090 -0.2746
 
              Baa    -0.0068    -3.653    -1.303    -1.218  0.3536 -0.2833  0.8915
     8 H(1)   Bbb    -0.0031    -1.673    -0.597    -0.558  0.3687  0.9181  0.1455
              Bcc     0.0100     5.326     1.900     1.776  0.8597 -0.2773 -0.4291
 
              Baa    -0.0048    -0.648    -0.231    -0.216  0.4124  0.8221 -0.3924
     9 C(13)  Bbb     0.0011     0.153     0.055     0.051 -0.3133  0.5325  0.7863
              Bcc     0.0037     0.495     0.176     0.165  0.8554 -0.2013  0.4772
 
              Baa    -0.0011    -0.571    -0.204    -0.190 -0.1776 -0.4367  0.8819
    10 H(1)   Bbb    -0.0002    -0.133    -0.048    -0.044 -0.0731  0.8995  0.4307
              Bcc     0.0013     0.704     0.251     0.235  0.9814 -0.0120  0.1917
 
              Baa    -0.0008    -0.442    -0.158    -0.147  0.5312  0.7513 -0.3917
    11 H(1)   Bbb    -0.0001    -0.056    -0.020    -0.019 -0.1284  0.5283  0.8393
              Bcc     0.0009     0.498     0.178     0.166  0.8375 -0.3955  0.3771
 
              Baa    -0.0022    -1.199    -0.428    -0.400 -0.0940  0.8583 -0.5045
    12 H(1)   Bbb    -0.0005    -0.277    -0.099    -0.092 -0.2163  0.4771  0.8519
              Bcc     0.0028     1.476     0.527     0.492  0.9718  0.1892  0.1407
 
              Baa    -1.3941   100.876    35.995    33.649  0.0504  0.1139  0.9922
    13 O(17)  Bbb    -0.5636    40.782    14.552    13.603  0.9986  0.0101 -0.0518
              Bcc     1.9577  -141.658   -50.547   -47.252 -0.0159  0.9934 -0.1132
 
              Baa    -1.5971   115.566    41.237    38.549  0.0231  0.1134  0.9933
    14 O(17)  Bbb    -0.7531    54.497    19.446    18.178  0.9996  0.0162 -0.0251
              Bcc     2.3503  -170.063   -60.683   -56.727 -0.0190  0.9934 -0.1129
 
              Baa    -0.0048    -0.641    -0.229    -0.214 -0.2356  0.9166  0.3230
    15 C(13)  Bbb     0.0009     0.115     0.041     0.038 -0.2838 -0.3828  0.8791
              Bcc     0.0039     0.526     0.188     0.175  0.9295  0.1154  0.3503
 
              Baa    -0.0011    -0.601    -0.215    -0.201 -0.3954  0.8940  0.2106
    16 H(1)   Bbb    -0.0002    -0.104    -0.037    -0.035 -0.2119 -0.3119  0.9262
              Bcc     0.0013     0.705     0.252     0.235  0.8937  0.3216  0.3128
 
              Baa    -0.0012    -0.647    -0.231    -0.216 -0.1037  0.6475  0.7549
    17 H(1)   Bbb    -0.0003    -0.172    -0.061    -0.057  0.0997  0.7620 -0.6399
              Bcc     0.0015     0.819     0.292     0.273  0.9896 -0.0090  0.1436
 
              Baa    -0.0028    -1.510    -0.539    -0.504  0.1718  0.8908  0.4207
    18 H(1)   Bbb    -0.0008    -0.410    -0.146    -0.137 -0.2224 -0.3810  0.8974
              Bcc     0.0036     1.920     0.685     0.640  0.9597 -0.2477  0.1327
 

 ---------------------------------------------------------------------------------

 Calling FoFJK, ICntrl=    100147 FMM=F ISym2X=0 I1Cent= 0 IOpClX= 1 NMat=1 NMatS=1 NMatT=0.
 ***** Axes restored to original set *****
 -------------------------------------------------------------------
 Center     Atomic                   Forces (Hartrees/Bohr)
 Number     Number              X              Y              Z
 -------------------------------------------------------------------
      1        6          -0.003031389   -0.006348555   -0.004780731
      2        1           0.005238312   -0.000594297   -0.006645662
      3        1           0.002258555    0.005842956    0.005575024
      4        6           0.001824604    0.006489735    0.015410805
      5        6           0.001764644    0.003766484   -0.009339366
      6        1          -0.002634279   -0.000038132    0.007030005
      7        1           0.000475592   -0.000769705    0.000179733
      8        1          -0.000488383   -0.007154650   -0.002395861
      9        6          -0.000579159   -0.004092377   -0.007642845
     10        1          -0.005875709   -0.003292311    0.001743015
     11        1          -0.002347763    0.005652109   -0.003254043
     12        1           0.003349319    0.001873974    0.005785949
     13        8           0.003247089    0.010698243   -0.005015354
     14        8          -0.003552513   -0.010005055    0.004739606
     15        6          -0.008348004   -0.008412104   -0.019854366
     16        1           0.004445003   -0.009464703    0.009983924
     17        1           0.011447287    0.008173853   -0.000216985
     18        1          -0.007193205    0.007674536    0.008697152
 -------------------------------------------------------------------
 Cartesian Forces:  Max     0.019854366 RMS     0.006596583
 FormGI is forming the generalized inverse of G from B-inverse, IUseBI=4.

 GradGradGradGradGradGradGradGradGradGradGradGradGradGradGradGradGradGrad
 Berny optimization.
 Internal  Forces:  Max     0.014207991 RMS     0.003933057
 Search for a saddle point.
 Step number   1 out of a maximum of   93
 All quantities printed in internal units (Hartrees-Bohrs-Radians)
 Swapping is turned off.
 Second derivative matrix not updated -- analytic derivatives used.
 ITU=  0
     Eigenvalues ---   -0.13998   0.00054   0.00244   0.00318   0.00636
     Eigenvalues ---    0.01697   0.02018   0.02446   0.02880   0.03066
     Eigenvalues ---    0.03793   0.04169   0.04471   0.04487   0.04688
     Eigenvalues ---    0.04719   0.06025   0.06593   0.07697   0.09789
     Eigenvalues ---    0.10047   0.10565   0.11805   0.12070   0.12474
     Eigenvalues ---    0.12763   0.14587   0.14878   0.16331   0.16945
     Eigenvalues ---    0.17377   0.21430   0.25403   0.27305   0.28878
     Eigenvalues ---    0.31025   0.31114   0.31458   0.31629   0.32121
     Eigenvalues ---    0.33302   0.34289   0.34515   0.37532   0.37567
     Eigenvalues ---    0.38312   0.56701   0.72682
 Eigenvectors required to have negative eigenvalues:
                          R10       R8        A4        A11       D27
   1                    0.47310  -0.37279   0.34228  -0.20335  -0.16696
                          D25       D29       D26       D28       D30
   1                   -0.16543   0.16508  -0.16270   0.16234   0.16082
 RFO step:  Lambda0=7.310402114D-05 Lambda=-5.03969811D-03.
 Linear search not attempted -- option 19 set.
 Iteration  1 RMS(Cart)=  0.03510828 RMS(Int)=  0.00073911
 Iteration  2 RMS(Cart)=  0.00118052 RMS(Int)=  0.00033144
 Iteration  3 RMS(Cart)=  0.00000077 RMS(Int)=  0.00033144
 Variable       Old X    -DE/DX   Delta X   Delta X   Delta X     New X
                                 (Linear)    (Quad)   (Total)
    R1        2.05821  -0.00844   0.00000  -0.02326  -0.02326   2.03495
    R2        2.06079  -0.00836   0.00000  -0.02519  -0.02519   2.03559
    R3        2.76276  -0.00421   0.00000  -0.00999  -0.00999   2.75276
    R4        2.91405   0.00038   0.00000   0.01514   0.01514   2.92919
    R5        2.87411  -0.00205   0.00000   0.00207   0.00207   2.87618
    R6        2.91018  -0.00174   0.00000  -0.03166  -0.03166   2.87852
    R7        2.07926  -0.00748   0.00000  -0.02537  -0.02537   2.05389
    R8        2.34962  -0.00016   0.00000  -0.03395  -0.03395   2.31567
    R9        2.07962  -0.00747   0.00000  -0.02266  -0.02266   2.05696
   R10        2.65462   0.00041   0.00000   0.05552   0.05552   2.71014
   R11        2.08265  -0.00693   0.00000  -0.02065  -0.02065   2.06199
   R12        2.08354  -0.00691   0.00000  -0.02066  -0.02066   2.06288
   R13        2.08381  -0.00689   0.00000  -0.02323  -0.02323   2.06059
   R14        2.39219   0.01162   0.00000   0.02016   0.02016   2.41235
   R15        2.02201   0.01421   0.00000   0.03803   0.03803   2.06004
   R16        2.02201   0.01389   0.00000   0.03743   0.03743   2.05944
   R17        2.02201   0.01328   0.00000   0.03634   0.03634   2.05835
    A1        2.03641   0.00021   0.00000   0.00376   0.00363   2.04004
    A2        2.12483  -0.00155   0.00000  -0.00837  -0.00849   2.11634
    A3        2.10527   0.00141   0.00000   0.00964   0.00951   2.11478
    A4        1.43576   0.00005   0.00000  -0.00566  -0.00755   1.42820
    A5        2.06930  -0.00262   0.00000  -0.04264  -0.04368   2.02562
    A6        1.97642   0.00201   0.00000   0.03504   0.03525   2.01167
    A7        2.03868  -0.00311   0.00000  -0.04633  -0.04724   1.99145
    A8        1.94568   0.00274   0.00000   0.03542   0.03568   1.98136
    A9        1.94660   0.00088   0.00000   0.01960   0.02039   1.96699
   A10        1.93426   0.00022   0.00000  -0.00287  -0.00294   1.93133
   A11        2.18546   0.00197   0.00000  -0.00555  -0.00558   2.17988
   A12        1.95036  -0.00162   0.00000  -0.02101  -0.02108   1.92928
   A13        1.71340  -0.00108   0.00000   0.01514   0.01516   1.72856
   A14        1.96708   0.00067   0.00000   0.00945   0.00937   1.97645
   A15        1.69426   0.00002   0.00000   0.01108   0.01100   1.70525
   A16        1.93588  -0.00109   0.00000  -0.00552  -0.00553   1.93035
   A17        1.93711  -0.00084   0.00000  -0.00432  -0.00434   1.93278
   A18        1.93914   0.00161   0.00000   0.00413   0.00413   1.94327
   A19        1.88506   0.00066   0.00000   0.00062   0.00059   1.88565
   A20        1.88260  -0.00012   0.00000   0.00282   0.00283   1.88543
   A21        1.88179  -0.00021   0.00000   0.00259   0.00260   1.88438
   A22        1.69558   0.00071   0.00000  -0.01313  -0.01313   1.68245
   A23        1.91063   0.00269   0.00000   0.02116   0.02089   1.93152
   A24        1.91063   0.00185   0.00000   0.01865   0.01841   1.92904
   A25        1.91063   0.00357   0.00000   0.03081   0.03046   1.94109
   A26        1.91063  -0.00245   0.00000  -0.02331  -0.02346   1.88717
   A27        1.91063  -0.00296   0.00000  -0.02393  -0.02429   1.88634
   A28        1.91063  -0.00271   0.00000  -0.02338  -0.02370   1.88694
   A29        3.18446   0.00228   0.00000   0.02214   0.02215   3.20661
   A30        3.15413  -0.00107   0.00000  -0.00663  -0.00659   3.14755
    D1       -1.68909  -0.00209   0.00000   0.00614   0.00624  -1.68285
    D2        2.56296   0.00176   0.00000   0.06728   0.06701   2.62997
    D3        0.23268   0.00094   0.00000   0.04282   0.04302   0.27570
    D4        1.65419  -0.00249   0.00000  -0.02436  -0.02427   1.62992
    D5       -0.37694   0.00136   0.00000   0.03678   0.03650  -0.34045
    D6       -2.70722   0.00054   0.00000   0.01232   0.01250  -2.69472
    D7       -1.97399   0.00186   0.00000   0.00691   0.00686  -1.96713
    D8        0.06875   0.00205   0.00000   0.02175   0.02161   0.09036
    D9        2.09946   0.00205   0.00000   0.01282   0.01273   2.11219
   D10        0.08832  -0.00143   0.00000  -0.04934  -0.04903   0.03928
   D11        2.13105  -0.00124   0.00000  -0.03450  -0.03428   2.09677
   D12       -2.12142  -0.00124   0.00000  -0.04344  -0.04316  -2.16458
   D13        2.35457  -0.00035   0.00000  -0.02909  -0.02923   2.32534
   D14       -1.88588  -0.00017   0.00000  -0.01425  -0.01448  -1.90036
   D15        0.14483  -0.00016   0.00000  -0.02319  -0.02336   0.12148
   D16        2.88336  -0.00133   0.00000  -0.02903  -0.02852   2.85485
   D17       -1.30418  -0.00178   0.00000  -0.03479  -0.03426  -1.33844
   D18        0.78949  -0.00152   0.00000  -0.03166  -0.03113   0.75836
   D19        1.20905   0.00195   0.00000   0.03002   0.02952   1.23857
   D20       -2.97850   0.00151   0.00000   0.02426   0.02378  -2.95472
   D21       -0.88482   0.00176   0.00000   0.02740   0.02690  -0.85792
   D22       -1.05677  -0.00000   0.00000   0.00231   0.00227  -1.05450
   D23        1.03887  -0.00045   0.00000  -0.00345  -0.00347   1.03540
   D24        3.13254  -0.00019   0.00000  -0.00031  -0.00034   3.13220
   D25        1.31276  -0.00076   0.00000   0.00305   0.00325   1.31602
   D26       -2.87603  -0.00098   0.00000  -0.00111  -0.00101  -2.87704
   D27       -0.78163  -0.00097   0.00000   0.00054   0.00067  -0.78097
   D28        2.89509   0.00129   0.00000   0.02583   0.02575   2.92084
   D29       -1.29370   0.00107   0.00000   0.02166   0.02149  -1.27222
   D30        0.80069   0.00108   0.00000   0.02331   0.02317   0.82386
   D31       -1.07461   0.00017   0.00000   0.01032   0.01036  -1.06425
   D32        1.01978  -0.00004   0.00000   0.00615   0.00609   1.02588
   D33        3.11418  -0.00004   0.00000   0.00780   0.00777   3.12195
   D34       -0.09563  -0.00049   0.00000  -0.01249  -0.01259  -0.10822
   D35        2.03823   0.00027   0.00000  -0.00460  -0.00454   2.03369
   D36       -2.25502   0.00048   0.00000   0.00751   0.00755  -2.24747
         Item               Value     Threshold  Converged?
 Maximum Force            0.014208     0.000450     NO 
 RMS     Force            0.003933     0.000300     NO 
 Maximum Displacement     0.123501     0.001800     NO 
 RMS     Displacement     0.035639     0.001200     NO 
 Predicted change in Energy=-2.607231D-03
 GradGradGradGradGradGradGradGradGradGradGradGradGradGradGradGradGradGrad

                          Input orientation:                          
 ---------------------------------------------------------------------
 Center     Atomic      Atomic             Coordinates (Angstroms)
 Number     Number       Type             X           Y           Z
 ---------------------------------------------------------------------
      1          6           0       -0.660404   -0.621120    0.633028
      2          1           0       -1.285983   -0.433891    1.489299
      3          1           0       -1.020269   -1.338268   -0.085674
      4          6           0        0.695020   -0.092867    0.557207
      5          6           0       -0.020702    1.020312   -0.249799
      6          1           0        0.288799    0.998057   -1.291432
      7          1           0       -1.232833    1.100476   -0.410784
      8          1           0        0.128280    1.989889    0.221950
      9          6           0        1.686907   -0.911009   -0.257238
     10          1           0        2.568226   -0.315180   -0.499919
     11          1           0        2.015803   -1.788614    0.302484
     12          1           0        1.244159   -1.255010   -1.192461
     13          8           0       -2.634812    1.245786   -0.675574
     14          8           0       -2.994133    0.138880   -0.150928
     15          6           0        1.278154    0.392932    1.877905
     16          1           0        1.568673   -0.450985    2.503827
     17          1           0        2.162353    1.005503    1.702898
     18          1           0        0.555707    0.991387    2.431393
 ---------------------------------------------------------------------
                    Distance matrix (angstroms):
                    1          2          3          4          5
     1  C    0.000000
     2  H    1.076849   0.000000
     3  H    1.077189   1.835495   0.000000
     4  C    1.456700   2.215731   2.215070   0.000000
     5  C    1.970507   2.596170   2.566898   1.550059   0.000000
     6  H    2.688171   3.501840   2.936993   2.184628   1.086870
     7  H    2.093110   2.442831   2.469484   2.465298   1.225400
     8  H    2.758327   3.079126   3.534179   2.184368   1.088495
     9  C    2.527148   3.480820   2.746049   1.522011   2.577980
    10  H    3.435290   4.338894   3.754411   2.162368   2.923806
    11  H    2.938433   3.761063   3.093738   2.164465   3.513180
    12  H    2.713224   3.777259   2.521813   2.171052   2.768677
    13  O    3.015968   3.054068   3.103557   3.794671   2.658138
    14  O    2.576525   2.436429   2.466245   3.763644   3.102901
    15  C    2.517146   2.722030   3.483596   1.523249   2.570555
    16  H    2.915067   3.029623   3.767679   2.163526   3.503324
    17  H    3.429064   3.742793   4.338356   2.161502   2.928988
    18  H    2.704296   2.512126   3.774469   2.169697   2.742603
                    6          7          8          9         10
     6  H    0.000000
     7  H    1.761078   0.000000
     8  H    1.816541   1.744717   0.000000
     9  C    2.582401   3.548877   3.327784   0.000000
    10  H    2.747156   4.057101   3.433332   1.091159   0.000000
    11  H    3.645360   4.405591   4.224490   1.091629   1.766361
    12  H    2.449249   3.506397   3.711484   1.090415   1.765233
    13  O    2.998025   1.434146   2.998986   4.848095   5.434986
    14  O    3.580026   2.023455   3.648936   4.798511   5.591762
    15  C    3.374862   3.470414   2.571899   2.534990   2.796382
    16  H    4.259318   4.330176   3.638620   2.801622   3.168602
    17  H    3.532177   4.000495   2.701791   2.782301   2.600258
    18  H    3.732387   3.359873   2.461978   3.482450   3.788131
                   11         12         13         14         15
    11  H    0.000000
    12  H    1.764945   0.000000
    13  O    5.638476   4.644090   0.000000
    14  O    5.387048   4.581576   1.276560   0.000000
    15  C    2.790200   3.484826   4.749623   4.736364   0.000000
    16  H    2.614400   3.796618   5.536868   5.311766   1.090126
    17  H    3.128854   3.786305   5.359819   5.547707   1.089807
    18  H    3.793750   4.318863   4.460647   4.471746   1.089233
                   16         17         18
    16  H    0.000000
    17  H    1.765021   0.000000
    18  H    1.764025   1.764147   0.000000
 Stoichiometry    C5H11O2(2)
 Framework group  C1[X(C5H11O2)]
 Deg. of freedom    48
 Full point group                 C1      NOp   1
 Largest Abelian subgroup         C1      NOp   1
 Largest concise Abelian subgroup C1      NOp   1
                         Standard orientation:                         
 ---------------------------------------------------------------------
 Center     Atomic      Atomic             Coordinates (Angstroms)
 Number     Number       Type             X           Y           Z
 ---------------------------------------------------------------------
      1          6           0        0.018243   -0.068292   -0.939855
      2          1           0        0.423574    0.819503   -1.394970
      3          1           0        0.393537   -1.013078   -1.296044
      4          6           0       -1.127377   -0.002076   -0.042556
      5          6           0       -0.007737   -0.002998    1.029399
      6          1           0       -0.032142   -0.922404    1.608521
      7          1           0        1.193036    0.041302    0.789006
      8          1           0       -0.066680    0.893463    1.643977
      9          6           0       -2.021773   -1.233088   -0.008154
     10          1           0       -2.662976   -1.217238    0.874589
     11          1           0       -2.662791   -1.269982   -0.890985
     12          1           0       -1.433185   -2.150609    0.018738
     13          8           0        2.613480    0.054790    0.591699
     14          8           0        2.581562   -0.056574   -0.679594
     15          6           0       -1.918901    1.298364   -0.093837
     16          1           0       -2.533938    1.339249   -0.992966
     17          1           0       -2.576948    1.379533    0.771071
     18          1           0       -1.256557    2.163068   -0.097754
 ---------------------------------------------------------------------
 Rotational constants (GHZ):           4.7040891           1.2471098           1.2199145
 Standard basis: CC-pVTZ+d (5D, 7F)
 There are   410 symmetry adapted cartesian basis functions of A   symmetry.
 There are   364 symmetry adapted basis functions of A   symmetry.
   364 basis functions,   551 primitive gaussians,   410 cartesian basis functions
    29 alpha electrons       28 beta electrons
       nuclear repulsion energy       314.4549762042 Hartrees.
 NAtoms=   18 NActive=   18 NUniq=   18 SFac= 1.00D+00 NAtFMM=   60 NAOKFM=F Big=F
 Integral buffers will be    131072 words long.
 Raffenetti 2 integral format.
 Two-electron integral symmetry is turned on.
 One-electron integrals computed using PRISM.
 NBasis=   364 RedAO= T EigKep=  3.45D-04  NBF=   364
 NBsUse=   364 1.00D-06 EigRej= -1.00D+00 NBFU=   364
 Initial guess from the checkpoint file:  "Rneopentyl-O2-Concerted-OOH-TS2-b3lyp-new.chk"
 B after Tr=    -0.000000    0.000000   -0.000000
         Rot=    0.999926   -0.010299   -0.000541   -0.006524 Ang=  -1.40 deg.
 Initial guess <Sx>= 0.0000 <Sy>= 0.0000 <Sz>= 0.5000 <S**2>= 0.8317 S= 0.5400
 ExpMin= 1.03D-01 ExpMax= 1.53D+04 ExpMxC= 5.22D+02 IAcc=3 IRadAn=         5 AccDes= 0.00D+00
 Harris functional with IExCor=  402 and IRadAn=       5 diagonalized for initial guess.
 HarFok:  IExCor=  402 AccDes= 0.00D+00 IRadAn=         5 IDoV= 1 UseB2=F ITyADJ=14
 ICtDFT=  3500011 ScaDFX=  1.000000  1.000000  1.000000  1.000000
 FoFCou: FMM=F IPFlag=           0 FMFlag=      100000 FMFlg1=           0
         NFxFlg=           0 DoJE=T BraDBF=F KetDBF=T FulRan=T
         wScrn=  0.000000 ICntrl=       500 IOpCl=  0 I1Cent=   200000004 NGrid=           0
         NMat0=    1 NMatS0=      1 NMatT0=    0 NMatD0=    1 NMtDS0=    0 NMtDT0=    0
 Petite list used in FoFCou.
 Requested convergence on RMS density matrix=1.00D-08 within1000 cycles.
 Requested convergence on MAX density matrix=1.00D-06.
 Requested convergence on             energy=1.00D-06.
 No special actions if energy rises.
 Integral accuracy reduced to 1.0D-05 until final iterations.
[...]
 0364265,-0.0561608,-0.0474228,0.0632497,-0.1827901,0.034322,-0.035881,
 0.0890245,-0.0119739,-0.0277886,-0.3137135,0.0366499,-0.0935204,-0.029
 4353,0.0889215,0.0072551,-0.0532005,0.0184093,0.0887412,-0.0516927,-0.
 0716484,0.0023159,-0.1583717,-0.0301712,-0.0657127,0.111761,-0.0521019
 ,0.0321215,0.0955765,0.0146366,-0.0047589,-0.0030784,0.1280327,-0.0686
 876,-0.0713527,-0.0246142,0.0141944,-0.1016481,-0.029944,0.0323282,-0.
 1070885,-0.0174725,0.0315666,0.0514013,-0.0094712,0.0618239,0.0213128,
 0.0408897,0.00056,0.1111213,-0.0791719,0.0667423,-0.0308721,0.1064498,
 -0.0001842,0.0132633,-0.0321488,-0.0859661,-0.0039368,0.0353812,-0.045
 3027,-0.0422031,-0.066778,-0.090646,0.3917758,-0.1408842,0.1784024,1.5
 67592,-0.7179384,0.6032622,-0.8575654,0.3150149,-0.4948125,-0.7584835,
 0.1156099,-0.1664323,-1.5304675,0.3596133,-0.5896905,0.8316349,-0.3120
 115,0.1423492,0.0722,0.0333067,-0.0006518,0.0729099,0.0900657,-0.03534
 76,0.0526772,-0.0831424,0.0754774,0.0384151,0.0205166,-0.043715,0.0685
 169,-0.0739708,0.1139139,-0.0840811,0.0542707,-0.0224552,-0.0893864,-0
 .0745955,-0.016951,-0.1145302,0.0114111,-0.0080597,0.035063,0.0527281,
 0.0207099,-0.0310665,0.0770576,0.0846433,0.0563661,-0.0004951,-0.07132
 15,0.0363216,-0.0511055,-0.0104263\Polar=118.3043676,-13.3153985,74.45
 49771,17.4073245,-9.2097007,71.4951914\Quadrupole=-5.3885892,2.6837306
 ,2.7048586,1.5890444,-2.4852952,0.8460129\PG=C01 [X(C5H11O2)]\NImag=1\
 \0.51080397,0.11391710,0.28855856,-0.09731937,0.25539660,0.50612160,-0
 .14435108,0.02445476,0.14591340,0.15396055,0.02474847,-0.05438914,-0.0
 6083179,-0.02884126,0.04713651,0.14521369,-0.05824873,-0.23678890,-0.1
 5196417,0.06277016,0.24033875,-0.07765068,-0.07814047,-0.05719301,0.00
 627058,0.01256675,0.00983076,0.08260991,-0.07802554,-0.17889205,-0.143
 21932,-0.00152529,0.00212937,-0.00222679,0.08124278,0.17856285,-0.0567
 4369,-0.14587510,-0.17897537,-0.00973504,-0.01534278,-0.00853427,0.064
 52683,0.15277978,0.18026134,-0.25936392,-0.10557079,0.03566127,-0.0113
 6941,-0.00853157,-0.00057434,-0.00548603,-0.00425390,0.00430275,0.5753
 2245,-0.05323563,-0.05429400,-0.03113952,0.00793085,0.00216573,-0.0008
 2878,-0.01677791,-0.00048653,0.00258436,0.01389672,0.39292595,0.003873
 46,-0.03996192,-0.06586254,0.02027406,0.00541392,0.00491615,-0.0189353
 4,-0.00432407,0.00167804,0.00265419,0.07327367,0.46564753,0.01120859,-
 0.00829376,0.01114100,0.00046569,-0.00292454,0.00103402,-0.00062703,-0
 .00043212,0.00073353,-0.07368697,-0.00596982,0.00117681,0.27722122,-0.
 01101413,0.00670740,-0.02115190,-0.00093739,0.00380114,-0.00298020,0.0
 0217554,-0.00218079,0.00308271,0.07061326,-0.10528577,0.04000549,0.003
 75771,0.44088803,0.01282170,-0.02062890,-0.01037373,-0.00331789,0.0054
 6236,-0.00269418,0.00229262,-0.00613777,0.00437248,-0.04534049,0.02709
 291,-0.08311916,-0.05645487,0.09664963,0.53082141,-0.00270866,0.010896
 68,-0.00133030,0.00048614,-0.00118138,0.00025945,0.00002164,0.00041179
 ,-0.00041905,0.00632636,0.00160620,-0.01791271,-0.05601153,-0.00843961
 ,0.10141418,0.07318489,0.00670727,0.00867525,-0.00067273,0.00040154,0.
 00004002,-0.00018803,-0.00064930,0.00086617,-0.00032954,-0.00269484,-0
 .01160355,0.02284693,-0.00407293,-0.05063825,0.00106142,-0.00493950,0.
 04590230,-0.00425578,0.00001234,0.00269823,0.00015532,-0.00103567,0.00
 056750,0.00015808,0.00031156,-0.00013216,0.00323798,0.00477529,-0.0170
 1638,0.08958429,-0.00338047,-0.28581051,-0.09356169,-0.00204881,0.3058
 7685,0.00667523,0.07439566,-0.04405458,-0.00011017,-0.00024911,0.00001
 701,-0.00029638,0.00016014,-0.00002580,0.03197671,0.00735696,0.0019903
 3,-0.06049125,-0.06813788,0.03605234,-0.02622807,-0.00964294,0.0010555
 0,0.03165712,-0.00439083,-0.01452756,0.00815073,-0.00035768,-0.0004958
 0,0.00029537,0.00022817,-0.00165741,0.00097149,0.00674820,0.00661984,-
 0.00684556,-0.00193732,-0.02561876,-0.00225339,0.00117152,0.00213479,-
 0.00082318,0.03305472,0.06139460,0.00377069,0.02139888,-0.01223501,-0.
 00045614,0.00152562,-0.00107705,0.00047175,-0.00025088,0.00027497,0.00
 236287,-0.00674746,-0.00201023,-0.00413154,-0.01338391,-0.02141917,0.0
 1935418,-0.00066532,0.00031609,-0.02339711,-0.00049983,0.04776980,-0.0
 0099307,0.00580932,-0.01052443,-0.00006334,0.00069490,-0.00031919,0.00
 042318,-0.00087814,0.00117775,0.00202903,0.01701823,0.00841469,-0.0269
 0839,-0.03747150,-0.00605496,-0.00110081,0.01048822,0.00359043,-0.0206
 6433,-0.01939293,-0.01541258,0.04133196,0.00635161,0.00612165,-0.00213
 075,-0.00041804,0.00011854,-0.00023543,0.00009801,0.00084524,-0.000385
 25,0.00111832,-0.02486564,-0.00247934,-0.02419932,-0.25280381,-0.11561
 469,0.00040768,0.00396727,0.00285952,-0.00812586,-0.00241755,-0.004857
 11,0.02189901,0.26788752,-0.00540813,-0.00224587,0.00354912,0.00042413
 ,-0.00051073,0.00070170,-0.00027198,0.00003157,-0.00017377,-0.00045918
 ,0.01899894,0.00052821,-0.00492071,-0.11410629,-0.11264816,-0.00590458
 ,-0.02275786,-0.00805525,0.00260405,-0.00477500,-0.00073953,0.01711890
 ,0.12278125,0.11566498,-0.02754406,0.01389959,0.02031843,-0.00309790,-
 0.00035072,-0.00091748,0.00215906,0.00020704,0.00088311,-0.12150163,0.
 03601681,0.03460773,-0.00827173,0.00825383,0.00051693,0.00124312,0.000
 52125,0.00120125,0.00031895,0.00030184,0.00058557,-0.00041875,-0.00006
 303,-0.00015502,0.52783137,-0.00902681,0.00955330,0.01394154,-0.004134
 39,-0.00096137,0.00037177,-0.00005311,0.00063989,0.00028630,0.03337788
 ,-0.10448328,-0.03550574,0.02151398,-0.01953408,-0.00991420,0.00040103
 ,0.00199388,-0.00286913,-0.00162576,-0.00209249,-0.00052652,0.00254749
 ,-0.00156664,0.00051060,0.03839077,0.53355114,0.01127354,-0.00180998,-
 0.00622791,0.00032022,-0.00063024,0.00070270,-0.00226065,0.00039282,0.
 00067908,0.03754035,-0.03711514,-0.10980604,-0.01331302,0.00910739,0.0
 0606400,-0.00032272,0.00144276,0.00132236,0.00230458,0.00185974,0.0006
 5405,-0.00175305,0.00154382,-0.00067164,0.04065108,-0.02801034,0.54406
 111,-0.00085638,0.00240978,0.00434181,-0.00111386,0.00006144,-0.000192
 31,0.00039755,0.00013600,-0.00003433,-0.01975814,-0.01155135,0.0042931
 8,0.00140577,-0.00080134,-0.00028833,-0.00018423,0.00056574,-0.0005953
 9,-0.00024968,-0.00006074,-0.00015688,-0.00001056,0.00011588,-0.000158
 07,-0.21414771,-0.11414689,0.04604409,0.23480474,0.00254470,-0.0012794
 4,-0.00343929,0.00094721,0.00061405,-0.00005845,0.00018705,-0.00011665
 ,0.00014223,0.01688355,0.00925406,-0.00400540,-0.00124007,0.00181705,0
 .00003336,-0.00042996,0.00005417,0.00042053,0.00007451,-0.00005101,0.0
 0017997,-0.00009682,0.00009653,-0.00017765,-0.11584720,-0.12600073,0.0
 3227266,0.12483961,0.13447003,0.00062858,-0.00246822,-0.00223983,0.000
 85766,0.00024918,0.00036527,0.00015974,0.00010624,0.00001220,0.0157787
 1,0.01030645,-0.00509098,-0.00108850,0.00007333,0.00048625,-0.00017873
 ,-0.00023581,0.00016698,0.00031039,0.00007949,-0.00002834,0.00007695,-
 0.00015076,0.00011279,0.04562044,0.03123120,-0.06024715,-0.05353686,-0
 .03322105,0.06234304,0.00199623,0.00023024,-0.00109186,0.00007061,-0.0
 0000637,0.00004519,-0.00036225,-0.00004345,-0.00016049,-0.00780259,0.0
 1694785,-0.01130420,-0.00181339,0.00249982,0.00253449,0.00002266,-0.00
 029707,0.00034840,0.00063169,0.00059115,0.00004831,-0.00101312,0.00058
 006,-0.00017069,-0.06924631,0.05964318,-0.03826085,0.00904681,-0.02118
 009,0.01397962,0.07296112,-0.00077770,0.00034403,0.00022696,0.00014580
 ,0.00003152,0.00004086,0.00027801,-0.00002606,-0.00006920,0.00523709,-
 0.01433137,0.00856727,0.00246989,-0.00055368,-0.00182471,-0.00034526,0
 .00027732,-0.00048601,-0.00098592,-0.00046282,-0.00038147,0.00061362,-
 0.00024246,0.00002057,0.06011913,-0.21420253,0.10662125,0.00526213,-0.
 01396018,0.00890241,-0.06929852,0.23307393,-0.00151844,0.00012723,0.00
 081170,-0.00010912,-0.00004291,-0.00004556,-0.00000480,0.00020635,0.00
 004540,0.00519814,-0.01498514,0.00877734,0.00287359,-0.00194097,-0.001
 16100,0.00002961,-0.00018999,0.00020357,-0.00048093,-0.00055255,0.0000
 2744,0.00025046,-0.00032501,0.00050436,-0.03892131,0.10752225,-0.11705
 474,-0.00203279,0.00468963,-0.00417058,0.04115919,-0.11704626,0.124318
 63,0.00152866,0.00050804,0.00072808,0.00014854,-0.00005583,-0.00016185
 ,-0.00015743,-0.00026291,-0.00014062,0.00794952,0.00690999,0.01911052,
 0.00100180,-0.00059347,0.00068885,0.00017146,-0.00024869,-0.00020079,-
 0.00025193,0.00003033,-0.00009666,0.00001484,-0.00009399,0.00002658,-0
 .09679724,-0.03446210,-0.09766634,-0.01082156,-0.00654693,-0.02247353,
 -0.00459527,-0.00307532,-0.00686075,0.10358221,-0.00103177,0.00059085,
 0.00066106,0.00003371,0.00006847,0.00002649,0.00015944,0.00034690,0.00
 023980,-0.00787816,-0.00729947,-0.01521873,-0.00058005,0.00073254,-0.0
 0085789,0.00000229,-0.00065143,0.00049204,0.00006482,-0.00003438,0.000
 03003,-0.00025005,0.00009832,0.00029721,-0.03301448,-0.07044255,-0.065
 49492,-0.00703403,-0.00568072,-0.01537571,0.01153875,0.00926855,0.0224
 6648,0.03514050,0.07424086,-0.00163903,-0.00026469,0.00036228,0.000074
 36,0.00032970,0.00018829,0.00094166,0.00037699,0.00019864,-0.00800730,
 -0.00431895,-0.01636711,0.00020649,0.00098406,0.00042831,-0.00002070,-
 0.00009395,0.00077257,-0.00027834,-0.00014441,0.00010189,-0.00023725,0
 .00004048,0.00015916,-0.09484555,-0.06696400,-0.23512336,0.00315841,0.
 00233662,0.00756294,-0.00667183,-0.00493445,-0.01350904,0.10389628,0.0
 7507469,0.25620228,-0.02153793,-0.04684443,0.02385148,0.00066604,-0.00
 164078,0.00115877,0.00083099,-0.00193610,0.00140129,-0.02460224,-0.000
 57880,-0.00398666,-0.06908668,0.05493071,-0.04550527,0.01017653,0.0068
 1687,0.00007686,0.08139353,0.00272087,0.01486746,0.01053337,0.00462570
 ,-0.00369398,-0.00064407,0.00134260,-0.00168488,0.00032347,-0.00009512
 ,-0.00022900,-0.00044495,0.00064705,0.00032380,0.00014859,-0.00005377,
 0.00018039,0.06631683,-0.01552167,-0.04230476,0.02650509,0.00260453,-0
 .00382341,0.00244566,0.00197115,-0.00263212,0.00175468,-0.00880445,0.0
 1603868,-0.01046679,-0.00012667,0.01770097,-0.00868373,0.00307819,0.00
 574833,-0.00206497,0.03530531,-0.01578332,0.00531529,0.00429955,0.0050
 3638,-0.00274668,-0.00041879,0.00147294,0.00149604,0.00081392,-0.00001
 957,-0.00044046,-0.00028639,-0.00044233,0.00010133,-0.00018202,-0.0001
 3074,-0.00006930,0.08148000,0.35973034,0.00481918,0.02121080,-0.006370
 56,-0.00068951,0.00049268,-0.00078235,-0.00169556,0.00232464,-0.002141
 72,0.00098828,-0.00905954,0.00691495,-0.01211940,0.00056783,0.00099959
 ,-0.00143843,-0.00191138,0.00136999,-0.00486540,-0.00016671,-0.0175292
 3,0.00031001,-0.00219485,0.00176590,0.00003002,-0.00030797,-0.00160999
 ,-0.00044720,-0.00002955,0.00022385,0.00004619,0.00051002,0.00005691,0
 .00018485,0.00008172,0.00005846,-0.04013903,-0.19754789,0.12429375,0.0
 1676913,0.00802254,-0.00041448,-0.00391189,0.00598204,-0.00312673,-0.0
 0404251,0.00525476,-0.00550407,0.00670530,-0.00371623,0.00315076,0.010
 22833,-0.01528568,0.01082228,-0.00409858,-0.00329179,-0.00012807,-0.04
 506694,-0.01874505,0.00290021,-0.00452329,-0.00207909,0.00199014,0.000
 54553,-0.00014984,-0.00054273,-0.00017976,-0.00007193,0.00016244,-0.00
 018459,0.00024686,0.00004296,0.00000024,-0.00001390,0.00002223,-0.0533
 8099,-0.10465788,0.05526145,0.08108345,0.02804120,0.03560372,-0.022752
 89,-0.00163341,0.00319558,-0.00222649,-0.00014162,0.00216594,0.0003556
 8,0.00933388,-0.01482070,0.01142116,0.00825085,-0.02032504,0.01425067,
 -0.00490003,-0.00623223,0.00184799,-0.05850369,-0.00638582,-0.00279828
 ,-0.00494055,-0.00514135,0.00326011,0.00038083,-0.00114394,-0.00154010
 ,-0.00068576,0.00004186,0.00040428,0.00011923,0.00042909,-0.00003539,0
 .00013705,0.00006674,0.00012310,-0.10354091,-0.33958764,0.18559728,0.1
 2831885,0.35108509,-0.01254586,-0.02610251,0.00404960,-0.00185765,0.00
 195131,0.00064436,0.00112196,-0.00161989,0.00180704,-0.00476467,0.0092
 0624,-0.00499286,-0.00343572,0.01030734,-0.00589837,0.00204545,0.00291
 797,-0.00117238,0.02699928,0.00388842,0.00741587,0.00251076,0.00291851
 ,-0.00186229,-0.00025964,0.00023968,0.00105063,0.00035299,0.00001324,-
 0.00016564,-0.00011049,-0.00025795,0.00000324,-0.00012436,-0.00003141,
 0.00000965,0.05458510,0.18540579,-0.10794032,-0.06484697,-0.18872812,0
 .10768178,-0.01706142,-0.01433394,-0.02711733,0.00176673,-0.00050949,-
 0.00042433,-0.00360954,-0.00024202,-0.00001478,-0.09653992,-0.01147979
 ,-0.03432131,-0.00647498,0.00180407,-0.00844817,-0.00048016,0.00017766
 ,-0.00007939,0.00081294,-0.00026412,-0.00050282,0.00154819,-0.00020370
 ,-0.00115910,0.00966426,0.00657451,0.01832202,0.00047781,0.00023522,0.
 00042836,0.00037430,-0.00031587,0.00007218,-0.00266046,0.00309081,0.00
 371437,-0.00086316,0.00031482,-0.00017730,0.00033871,-0.00006376,0.000
 22459,0.55653509,-0.01255355,-0.01184296,-0.01789138,0.00208490,0.0006
 0950,0.00069318,-0.00270664,0.00012279,-0.00043951,-0.01477900,-0.0834
 7610,-0.03428494,0.01493851,0.00407886,0.02305563,0.00244904,-0.001296
 90,0.00211863,-0.00315556,-0.00096592,0.00188634,0.00002934,0.00200874
 ,0.00136684,-0.00590077,-0.00740822,-0.01928386,-0.00063468,0.00070241
 ,0.00117905,-0.00060503,0.00025283,-0.00027794,0.00208693,-0.00167179,
 -0.00191672,0.00212265,-0.00111736,0.00051601,0.00038461,0.00120409,-0
 .00026374,-0.01687507,0.55927708,-0.00522129,0.00142985,0.00468508,0.0
 0130071,0.00019334,0.00110120,0.00254306,0.00161684,0.00013213,-0.0336
 4562,-0.03167571,-0.15578638,-0.01065259,-0.00042199,-0.01934086,-0.00
 144577,0.00026192,-0.00088572,0.00070739,0.00031075,-0.00096299,0.0002
 9272,-0.00296307,0.00100515,-0.00458217,-0.01077407,-0.02195580,-0.001
 02868,0.00063651,0.00075711,-0.00090039,0.00116716,0.00123143,0.001977
 13,-0.00122237,-0.00076918,-0.00063236,-0.00188902,0.00119726,0.000557
 42,0.00153054,-0.00108724,-0.03984686,-0.02335267,0.48957523,0.0012222
 7,0.00106473,0.00043547,-0.00033187,0.00009005,-0.00001197,0.00006774,
 -0.00002996,0.00000913,-0.00549518,0.01065888,-0.00725754,0.00007342,-
 0.00086688,-0.00258315,-0.00073245,0.00012293,-0.00056563,0.00038232,0
 .00022551,-0.00023259,0.00001135,-0.00041077,0.00011282,0.00013153,0.0
 0010347,0.00078063,0.00006161,-0.00013221,0.00005145,0.00039259,-0.000
 15483,0.00004504,-0.00012096,-0.00007581,0.00007044,-0.00025636,-0.000
 30148,0.00015499,-0.00013495,0.00018489,-0.00011598,-0.06858807,0.0574
 6615,-0.03989634,0.07066776,0.00102388,0.00088272,0.00055293,0.0000268
 4,0.00000175,0.00023353,0.00019029,-0.00000735,-0.00003065,-0.00304481
 ,0.00822115,-0.00611524,-0.00114516,0.00015945,-0.00216881,-0.00014600
 ,0.00050347,-0.00004358,0.00004752,0.00034134,-0.00020699,-0.00022589,
 0.00040092,-0.00011166,-0.00026808,0.00067193,0.00000642,0.00007302,-0
 .00010355,-0.00000594,-0.00011600,0.00019997,0.00011302,-0.00009027,0.
 00021288,0.00009887,-0.00004170,-0.00033816,0.00019866,0.00005279,0.00
 024855,-0.00014430,0.05802774,-0.20737547,0.11094630,-0.06382271,0.223
 37360,0.00150012,0.00083170,0.00104663,-0.00032482,-0.00008559,-0.0000
 1293,-0.00006267,-0.00001001,-0.00000385,-0.00832068,0.02172718,-0.016
 08378,-0.00272999,-0.00200047,-0.00375800,-0.00084695,0.00034322,-0.00
 052213,0.00135862,0.00025830,-0.00053247,0.00034822,-0.00043104,0.0000
 9103,-0.00014185,0.00146562,0.00105482,0.00003821,-0.00007090,-0.00011
 045,0.00038699,-0.00088701,-0.00012799,0.00000429,-0.00025002,0.000460
 02,-0.00084481,0.00040744,-0.00023286,-0.00026737,-0.00036708,0.000133
 84,-0.03986639,0.10986842,-0.12452022,0.04690992,-0.12137722,0.1362937
 9,0.00069363,-0.00203370,-0.00274438,0.00044722,0.00013942,-0.00000886
 ,-0.00068727,0.00008362,-0.00031082,-0.01265188,-0.00727054,0.00223482
 ,0.00075790,0.00003713,0.00070679,-0.00002821,0.00017200,-0.00001349,-
 0.00018537,0.00006936,0.00006003,-0.00031243,0.00059991,-0.00029586,0.
 00036810,0.00060086,0.00064244,0.00061602,-0.00013009,-0.00026373,0.00
 005771,0.00003320,-0.00003369,0.00012486,0.00020770,-0.00012340,0.0002
 3773,0.00068216,-0.00036076,-0.00014626,-0.00054399,0.00031618,-0.2121
 4165,-0.11770600,0.03880926,0.00878845,0.00571477,-0.00133607,0.230549
 33,0.00101789,0.00013645,-0.00193428,0.00000133,-0.00010376,0.00009040
 ,-0.00052141,0.00029562,-0.00002207,-0.00845409,-0.00698876,0.00201065
 ,0.00053598,0.00079337,-0.00025688,-0.00013029,0.00025250,-0.00010737,
 -0.00025474,-0.00016277,-0.00001400,-0.00003429,0.00016651,-0.00027594
 ,-0.00042174,0.00004304,0.00085686,0.00039863,0.00006582,-0.00055364,-
 0.00008246,-0.00008926,-0.00002435,0.00028016,0.00022884,-0.00000074,0
 .00019986,0.00050113,-0.00026107,-0.00020802,-0.00040982,0.00023954,-0
 .11781861,-0.13186956,0.02740640,-0.02062295,-0.01426880,0.00436389,0.
 13165498,0.14031962,-0.00096704,-0.00344257,-0.00520706,-0.00015008,0.
 00014102,-0.00005047,-0.00153180,-0.00037739,0.00025728,-0.02580378,-0
 .01689912,0.00404320,0.00146981,-0.00030915,0.00215798,0.00006424,-0.0
 0004769,-0.00002490,-0.00029260,0.00011846,0.00002032,0.00027770,0.000
 65592,0.00018298,-0.00072195,0.00034002,0.00152631,0.00043886,0.000050
 18,-0.00021829,0.00014810,-0.00003517,-0.00012087,0.00002918,0.0003247
 0,0.00017117,0.00026473,0.00038442,-0.00021056,-0.00006891,-0.00031173
 ,0.00025180,0.04033612,0.02875497,-0.05636220,0.01471101,0.00906095,-0
 .00360347,-0.04080370,-0.02887537,0.06072797,0.00116952,-0.00039135,-0
 .00060119,0.00006741,0.00000799,0.00014236,0.00013847,0.00013330,0.000
 05430,0.00794854,-0.00776240,-0.00806278,0.00100924,-0.00052417,0.0001
 4298,-0.00006009,-0.00013641,-0.00000791,-0.00030438,0.00000702,-0.000
 03473,0.00011618,-0.00020237,0.00032067,-0.00059251,-0.00089687,-0.002
 07473,0.00018812,0.00005856,-0.00028401,-0.00009127,-0.00009937,-0.000
 03313,0.00073413,-0.00030600,-0.00044124,0.00018930,-0.00025028,0.0001
 3764,-0.00000091,0.00018694,-0.00009496,-0.16309866,0.09335418,0.09166
 438,-0.00613917,0.00374379,0.00419522,-0.01648787,0.01445977,0.0126000
 9,0.17521393,0.00122552,0.00035598,-0.00027107,-0.00078402,-0.00013869
 ,0.00002550,-0.00010670,0.00002419,0.00029704,0.00680273,-0.00729025,-
 0.00433135,-0.00054516,0.00026137,0.00073498,0.00008760,0.00000687,0.0
 0002130,0.00022182,0.00016505,-0.00000439,-0.00010951,0.00028984,0.000
 44059,-0.00180627,-0.00009030,-0.00171517,0.00023865,0.00009587,-0.000
 08003,-0.00023491,0.00043345,0.00019423,0.00051854,0.00005612,-0.00065
 729,-0.00015469,-0.00004937,-0.00002067,-0.00004301,0.00000587,0.00005
 990,0.09188155,-0.12123201,-0.07320070,0.01650100,-0.01312441,-0.01378
 644,-0.01231079,0.01108984,0.01046756,-0.10138234,0.12914056,0.0017176
 7,0.00064110,0.00095668,-0.00071542,-0.00004958,0.00045979,-0.00009067
 ,0.00001933,0.00024255,0.01919153,-0.01519567,-0.01636996,0.00062680,-
 0.00110243,0.00089312,0.00021452,0.00026691,0.00032529,-0.00000474,0.0
 0012789,-0.00004641,-0.00006714,0.00096781,-0.00011474,-0.00386959,-0.
 00103701,-0.00441843,-0.00019671,0.00022737,0.00024082,-0.00002567,-0.
 00013429,0.00020975,0.00107913,-0.00124317,-0.00090698,0.00000611,0.00
 009310,-0.00006306,-0.00001055,-0.00003072,0.00007128,0.08886016,-0.07
 172830,-0.11801399,-0.01261772,0.00899370,0.01042802,0.00352525,-0.002
 64203,-0.00354120,-0.09762296,0.08182599,0.12964748\\-0.00000435,-0.00
 001131,0.00000199,0.00000601,-0.00000621,-0.00000029,0.00000230,0.0000
 0195,0.00000191,0.00000292,0.00000672,0.00001806,0.00001312,0.00000032
 ,-0.00002124,0.00000135,0.00000183,0.00000241,-0.00000097,0.00000258,0
 .00000672,-0.00000189,-0.00000045,-0.00000117,-0.00000534,0.00000071,-
 0.00000246,-0.00000191,-0.00000157,0.00000060,-0.00000069,0.00000139,-
 0.00000119,0.00000031,0.00000077,0.00000225,-0.00001073,-0.00000538,0.
 00000120,-0.00000049,0.00001089,-0.00000749,-0.00000333,-0.00000266,-0
 .00000732,0.00000188,-0.00000660,0.00000407,0.00000600,0.00000429,-0.0
 0000140,-0.00000420,0.00000274,0.00000335\\\@


 LOGIC IS A SYSTEMATIC METHOD OF COMING TO THE
 WRONG CONCLUSION WITH CONFIDENCE.
 Job cpu time:       0 days  0 hours  0 minutes 37.1 seconds.
 Elapsed time:       0 days  0 hours  6 minutes 21.1 seconds.
 File lengths (MBytes):  RWF=    345 Int=      0 D2E=      0 Chk=     16 Scr=      1
 Normal termination of Gaussian 16 at Wed Apr 27 10:51:46 2022.
