 Entering Gaussian System, Link 0=g16
 Initial command:
 /apps/chpc/chem/gaussian16/B01/g16/l1.exe "/mnt/lustre/users/kharejane/Tebello/4097688.sched01/Gau-11073.inp" -scrdir="/mnt/lustre/users/kharejane/Tebello/4097688.sched01/"
 Entering Link 1 = /apps/chpc/chem/gaussian16/B01/g16/l1.exe PID=     11076.
  
 Copyright (c) 1988-2017, Gaussian, Inc.  All Rights Reserved.
  
 This is part of the Gaussian(R) 16 program.  It is based on
 the Gaussian(R) 09 system (copyright 2009, Gaussian, Inc.),
 the Gaussian(R) 03 system (copyright 2003, Gaussian, Inc.),
 the Gaussian(R) 98 system (copyright 1998, Gaussian, Inc.),
 the Gaussian(R) 94 system (copyright 1995, Gaussian, Inc.),
 the Gaussian 92(TM) system (copyright 1992, Gaussian, Inc.),
 the Gaussian 90(TM) system (copyright 1990, Gaussian, Inc.),
 the Gaussian 88(TM) system (copyright 1988, Gaussian, Inc.),
 the Gaussian 86(TM) system (copyright 1986, Carnegie Mellon
 University), and the Gaussian 82(TM) system (copyright 1983,
 Carnegie Mellon University). Gaussian is a federally registered
 trademark of Gaussian, Inc.
  
 This software contains proprietary and confidential information,
 including trade secrets, belonging to Gaussian, Inc.
  
 This software is provided under written license and may be
 used, copied, transmitted, or stored only in accord with that
 written license.
  
 The following legend is applicable only to US Government
 contracts under FAR:
  
                    RESTRICTED RIGHTS LEGEND
  
 Use, reproduction and disclosure by the US Government is
 subject to restrictions as set forth in subparagraphs (a)
 and (c) of the Commercial Computer Software - Restricted
 Rights clause in FAR 52.227-19.
  
 Gaussian, Inc.
 340 Quinnipiac St., Bldg. 40, Wallingford CT 06492
  
  
 ---------------------------------------------------------------
 Warning -- This program may not be used in any manner that
 competes with the business of Gaussian, Inc. or will provide
 assistance to any competitor of Gaussian, Inc.  The licensee
 of this program is prohibited from giving any competitor of
 Gaussian, Inc. access to this program.  By using this program,
 the user acknowledges that Gaussian, Inc. is engaged in the
 business of creating and licensing software in the field of
 computational chemistry and represents and warrants to the
 licensee that it is not a competitor of Gaussian, Inc. and that
 it will not use this program in any manner prohibited above.
 ---------------------------------------------------------------
  

 Cite this work as:
 Gaussian 16, Revision B.01,
 M. J. Frisch, G. W. Trucks, H. B. Schlegel, G. E. Scuseria, 
 M. A. Robb, J. R. Cheeseman, G. Scalmani, V. Barone, 
 G. A. Petersson, H. Nakatsuji, X. Li, M. Caricato, A. V. Marenich, 
 J. Bloino, B. G. Janesko, R. Gomperts, B. Mennucci, H. P. Hratchian, 
 J. V. Ortiz, A. F. Izmaylov, J. L. Sonnenberg, D. Williams-Young, 
 F. Ding, F. Lipparini, F. Egidi, J. Goings, B. Peng, A. Petrone, 
 T. Henderson, D. Ranasinghe, V. G. Zakrzewski, J. Gao, N. Rega, 
 G. Zheng, W. Liang, M. Hada, M. Ehara, K. Toyota, R. Fukuda, 
 J. Hasegawa, M. Ishida, T. Nakajima, Y. Honda, O. Kitao, H. Nakai, 
 T. Vreven, K. Throssell, J. A. Montgomery, Jr., J. E. Peralta, 
 F. Ogliaro, M. J. Bearpark, J. J. Heyd, E. N. Brothers, K. N. Kudin, 
 V. N. Staroverov, T. A. Keith, R. Kobayashi, J. Normand, 
 K. Raghavachari, A. P. Rendell, J. C. Burant, S. S. Iyengar, 
 J. Tomasi, M. Cossi, J. M. Millam, M. Klene, C. Adamo, R. Cammi, 
 J. W. Ochterski, R. L. Martin, K. Morokuma, O. Farkas, 
 J. B. Foresman, and D. J. Fox, Gaussian, Inc., Wallingford CT, 2016.
 
 ******************************************
 Gaussian 16:  ES64L-G16RevB.01 20-Dec-2017
                29-Mar-2022 
 ******************************************
 %nprocshared=24
 Will use up to   24 processors via shared memory.
 %lindaworkers=cnode0268.cm.cluster,cnode0267.cm.cluster
 %mem=20GB
 %chk=RneopO2-H-Shift-TS3-b3lyp-c-a.chk
 SetLPE:    new flags="-opt 'Tsnet.Node.lindarsharg: ssh'  -nodelist 'cnode0268.cm.cluster cnode0267.cm.cluster' -env GAUSS_MDEF=2684354560 -env GAUSS_EXEDIR="/apps/chpc/chem/gaussian16/B01/g16/bsd:/apps/chpc/chem/gaussian16/B01/g16""
 Will use up to    2 processors via Linda.
 ---------------------------------------------------
 # opt=(calcfc,ts,noeigentest) freq ub3lyp cc-pvtz+d
 ---------------------------------------------------
 1/5=1,10=4,11=1,18=20,26=3,38=1/1,3;
 2/9=110,12=2,17=6,18=5,40=1/2;
 3/5=16,6=1,7=9,11=2,25=1,30=1,71=2,74=-5,116=2,140=1/1,2,3;
 4//1;
 5/5=2,38=5/2;
 8/6=4,10=90,11=11/1;
 11/6=1,8=1,9=11,15=111,16=1/1,2,10;
 10/6=1,13=1/2;
 6/7=2,8=2,9=2,10=2,28=1/1;
 7/10=1,18=20,25=1/1,2,3,16;
 1/5=1,10=4,11=1,18=20,26=3/3(2);
 2/9=110/2;
 99//99;
 2/9=110/2;
 3/5=16,6=1,7=9,11=2,25=1,30=1,71=1,74=-5,116=2/1,2,3;
 4/5=5,16=3,69=1/1;
 5/5=2,38=5/2;
 7//1,2,3,16;
 1/5=1,11=1,18=20,26=3/3(-5);
 2/9=110/2;
 6/7=2,8=2,9=2,10=2,19=2,28=1/1;
 99/9=1/99;
 -----------------------------
 RneopO2-H-Shift-TS3-b3lyp-c-a
 -----------------------------
 Symbolic Z-matrix:
 Charge =  0 Multiplicity = 2
 C                     0.70536   0.04992   0.02488 
 C                     0.13894   1.376     0.48932 
 H                     0.34383   1.66327   1.51626 
 H                     0.21825   2.20166  -0.21382 
 H                    -1.18642   1.10773   0.42735 
 C                     1.06628  -0.83318   1.22782 
 H                     0.19162  -1.02211   1.84931 
 H                     1.46287  -1.79625   0.901 
 H                     1.82563  -0.34999   1.84431 
 C                     1.93681   0.25925  -0.8775 
 H                     2.31684  -0.69742  -1.24267 
 H                     1.69589   0.88149  -1.74054 
 H                     2.73854   0.7484   -0.32371 
 C                    -0.38496  -0.66643  -0.82805 
 H                    -0.57114  -0.12082  -1.75642 
 H                    -0.08972  -1.69238  -1.05284 
 O                    -2.12683   0.52      0.03467 
 O                    -1.58827  -0.77462  -0.08806 
 
 Add virtual bond connecting atoms O17        and H5         Dist= 2.22D+00.

 GradGradGradGradGradGradGradGradGradGradGradGradGradGradGradGradGradGrad
 Berny optimization.
 Initialization pass.
                           ----------------------------
                           !    Initial Parameters    !
                           ! (Angstroms and Degrees)  !
 --------------------------                            --------------------------
 ! Name  Definition              Value          Derivative Info.                !
 --------------------------------------------------------------------------------
 ! R1    R(1,2)                  1.5149         calculate D2E/DX2 analytically  !
 ! R2    R(1,6)                  1.5353         calculate D2E/DX2 analytically  !
 ! R3    R(1,10)                 1.541          calculate D2E/DX2 analytically  !
 ! R4    R(1,14)                 1.5587         calculate D2E/DX2 analytically  !
 ! R5    R(2,3)                  1.0859         calculate D2E/DX2 analytically  !
 ! R6    R(2,4)                  1.0874         calculate D2E/DX2 analytically  !
 ! R7    R(5,17)                 1.1764         calculate D2E/DX2 analytically  !
 ! R8    R(6,7)                  1.0895         calculate D2E/DX2 analytically  !
 ! R9    R(6,8)                  1.0916         calculate D2E/DX2 analytically  !
 ! R10   R(6,9)                  1.0909         calculate D2E/DX2 analytically  !
 ! R11   R(10,11)                1.0922         calculate D2E/DX2 analytically  !
 ! R12   R(10,12)                1.0909         calculate D2E/DX2 analytically  !
 ! R13   R(10,13)                1.0903         calculate D2E/DX2 analytically  !
 ! R14   R(14,15)                1.0928         calculate D2E/DX2 analytically  !
 ! R15   R(14,16)                1.091          calculate D2E/DX2 analytically  !
 ! R16   R(14,18)                1.4168         calculate D2E/DX2 analytically  !
 ! R17   R(17,18)                1.4075         calculate D2E/DX2 analytically  !
 ! A1    A(2,1,6)              110.5593         calculate D2E/DX2 analytically  !
 ! A2    A(2,1,10)             111.0643         calculate D2E/DX2 analytically  !
 ! A3    A(2,1,14)             107.97           calculate D2E/DX2 analytically  !
 ! A4    A(6,1,10)             110.4319         calculate D2E/DX2 analytically  !
 ! A5    A(6,1,14)             109.1984         calculate D2E/DX2 analytically  !
 ! A6    A(10,1,14)            107.5175         calculate D2E/DX2 analytically  !
 ! A7    A(1,2,3)              116.8055         calculate D2E/DX2 analytically  !
 ! A8    A(1,2,4)              116.0486         calculate D2E/DX2 analytically  !
 ! A9    A(3,2,4)              113.3845         calculate D2E/DX2 analytically  !
 ! A10   A(1,6,7)              110.9757         calculate D2E/DX2 analytically  !
 ! A11   A(1,6,8)              110.9956         calculate D2E/DX2 analytically  !
 ! A12   A(1,6,9)              110.5871         calculate D2E/DX2 analytically  !
 ! A13   A(7,6,8)              108.0274         calculate D2E/DX2 analytically  !
 ! A14   A(7,6,9)              108.2554         calculate D2E/DX2 analytically  !
 ! A15   A(8,6,9)              107.8818         calculate D2E/DX2 analytically  !
 ! A16   A(1,10,11)            110.7842         calculate D2E/DX2 analytically  !
 ! A17   A(1,10,12)            111.3629         calculate D2E/DX2 analytically  !
 ! A18   A(1,10,13)            110.5574         calculate D2E/DX2 analytically  !
 ! A19   A(11,10,12)           108.1753         calculate D2E/DX2 analytically  !
 ! A20   A(11,10,13)           107.8746         calculate D2E/DX2 analytically  !
 ! A21   A(12,10,13)           107.9587         calculate D2E/DX2 analytically  !
 ! A22   A(1,14,15)            110.7684         calculate D2E/DX2 analytically  !
 ! A23   A(1,14,16)            110.8328         calculate D2E/DX2 analytically  !
 ! A24   A(1,14,18)            110.084          calculate D2E/DX2 analytically  !
 ! A25   A(15,14,16)           109.9121         calculate D2E/DX2 analytically  !
 ! A26   A(15,14,18)           109.7027         calculate D2E/DX2 analytically  !
 ! A27   A(16,14,18)           105.4056         calculate D2E/DX2 analytically  !
 ! A28   A(5,17,18)            100.5306         calculate D2E/DX2 analytically  !
 ! A29   A(14,18,17)           107.4744         calculate D2E/DX2 analytically  !
 ! D1    D(6,1,2,3)             18.7078         calculate D2E/DX2 analytically  !
 ! D2    D(6,1,2,4)            156.6033         calculate D2E/DX2 analytically  !
 ! D3    D(10,1,2,3)          -104.2482         calculate D2E/DX2 analytically  !
 ! D4    D(10,1,2,4)            33.6473         calculate D2E/DX2 analytically  !
 ! D5    D(14,1,2,3)           138.1055         calculate D2E/DX2 analytically  !
 ! D6    D(14,1,2,4)           -83.9991         calculate D2E/DX2 analytically  !
 ! D7    D(2,1,6,7)             59.0998         calculate D2E/DX2 analytically  !
 ! D8    D(2,1,6,8)            179.2412         calculate D2E/DX2 analytically  !
 ! D9    D(2,1,6,9)            -61.0574         calculate D2E/DX2 analytically  !
 ! D10   D(10,1,6,7)          -177.5772         calculate D2E/DX2 analytically  !
 ! D11   D(10,1,6,8)           -57.4358         calculate D2E/DX2 analytically  !
 ! D12   D(10,1,6,9)            62.2656         calculate D2E/DX2 analytically  !
 ! D13   D(14,1,6,7)           -59.5535         calculate D2E/DX2 analytically  !
 ! D14   D(14,1,6,8)            60.5879         calculate D2E/DX2 analytically  !
 ! D15   D(14,1,6,9)          -179.7107         calculate D2E/DX2 analytically  !
 ! D16   D(2,1,10,11)         -177.6872         calculate D2E/DX2 analytically  !
 ! D17   D(2,1,10,12)          -57.2421         calculate D2E/DX2 analytically  !
 ! D18   D(2,1,10,13)           62.777          calculate D2E/DX2 analytically  !
 ! D19   D(6,1,10,11)           59.2835         calculate D2E/DX2 analytically  !
 ! D20   D(6,1,10,12)          179.7286         calculate D2E/DX2 analytically  !
 ! D21   D(6,1,10,13)          -60.2524         calculate D2E/DX2 analytically  !
 ! D22   D(14,1,10,11)         -59.766          calculate D2E/DX2 analytically  !
 ! D23   D(14,1,10,12)          60.6791         calculate D2E/DX2 analytically  !
 ! D24   D(14,1,10,13)        -179.3019         calculate D2E/DX2 analytically  !
 ! D25   D(2,1,14,15)           66.848          calculate D2E/DX2 analytically  !
 ! D26   D(2,1,14,16)         -170.8738         calculate D2E/DX2 analytically  !
 ! D27   D(2,1,14,18)          -54.6572         calculate D2E/DX2 analytically  !
 ! D28   D(6,1,14,15)         -172.8961         calculate D2E/DX2 analytically  !
 ! D29   D(6,1,14,16)          -50.6178         calculate D2E/DX2 analytically  !
 ! D30   D(6,1,14,18)           65.5988         calculate D2E/DX2 analytically  !
 ! D31   D(10,1,14,15)         -53.0591         calculate D2E/DX2 analytically  !
 ! D32   D(10,1,14,16)          69.2191         calculate D2E/DX2 analytically  !
 ! D33   D(10,1,14,18)        -174.5643         calculate D2E/DX2 analytically  !
 ! D34   D(1,14,18,17)          70.0336         calculate D2E/DX2 analytically  !
 ! D35   D(15,14,18,17)        -52.1046         calculate D2E/DX2 analytically  !
 ! D36   D(16,14,18,17)       -170.3934         calculate D2E/DX2 analytically  !
 ! D37   D(5,17,18,14)         -50.4119         calculate D2E/DX2 analytically  !
 --------------------------------------------------------------------------------
 Trust Radius=3.00D-01 FncErr=1.00D-07 GrdErr=1.00D-06 EigMax=2.50D+02 EigMin=1.00D-04
 Number of steps in this run=     93 maximum allowed number of steps=    108.
 Search for a saddle point of order  1.
 GradGradGradGradGradGradGradGradGradGradGradGradGradGradGradGradGradGrad

                          Input orientation:                          
 ---------------------------------------------------------------------
 Center     Atomic      Atomic             Coordinates (Angstroms)
 Number     Number       Type             X           Y           Z
 ---------------------------------------------------------------------
      1          6           0        0.705360    0.049923    0.024883
      2          6           0        0.138936    1.375999    0.489324
      3          1           0        0.343833    1.663273    1.516256
      4          1           0        0.218246    2.201658   -0.213822
      5          1           0       -1.186423    1.107730    0.427353
      6          6           0        1.066276   -0.833178    1.227818
      7          1           0        0.191622   -1.022106    1.849306
      8          1           0        1.462874   -1.796246    0.901002
      9          1           0        1.825630   -0.349990    1.844309
     10          6           0        1.936814    0.259251   -0.877495
     11          1           0        2.316836   -0.697421   -1.242674
     12          1           0        1.695893    0.881492   -1.740540
     13          1           0        2.738542    0.748402   -0.323705
     14          6           0       -0.384955   -0.666431   -0.828054
     15          1           0       -0.571137   -0.120819   -1.756420
     16          1           0       -0.089715   -1.692376   -1.052843
     17          8           0       -2.126826    0.519998    0.034672
     18          8           0       -1.588273   -0.774620   -0.088056
 ---------------------------------------------------------------------
                    Distance matrix (angstroms):
                    1          2          3          4          5
     1  C    0.000000
     2  C    1.514932   0.000000
     3  H    2.226610   1.085863   0.000000
     4  H    2.219059   1.087390   1.816260   0.000000
     5  H    2.204491   1.353656   1.958576   1.892321   0.000000
     6  C    1.535311   2.507149   2.614840   3.465214   3.079370
     7  H    2.177543   2.757396   2.710231   3.827514   2.908120
     8  H    2.179393   3.461998   3.687691   4.333032   3.959317
     9  H    2.173763   2.767663   2.521224   3.651095   3.633893
    10  C    1.540968   2.519461   3.199830   2.677103   3.489578
    11  H    2.182219   3.470178   4.132470   3.723879   4.280232
    12  H    2.188465   2.764226   3.611920   2.501429   3.613681
    13  H    2.177892   2.795147   3.155484   2.911343   4.012300
    14  C    1.558670   2.486256   3.384441   2.994506   2.316473
    15  H    2.198099   2.790705   3.838042   2.897695   2.580072
    16  H    2.197554   3.441727   4.248366   3.995284   3.351767
    17  O    2.870948   2.464371   3.099407   2.896393   1.176429
    18  O    2.439955   2.818117   3.500025   3.483900   1.992579
                    6          7          8          9         10
     6  C    0.000000
     7  H    1.089477   0.000000
     8  H    1.091604   1.764838   0.000000
     9  H    1.090940   1.766847   1.764391   0.000000
    10  C    2.526575   3.481812   2.759119   2.791371   0.000000
    11  H    2.772302   3.765939   2.555781   3.145068   1.092243
    12  H    3.485349   4.332841   3.768597   3.792693   1.090905
    13  H    2.775805   3.787278   3.098785   2.596181   1.090284
    14  C    2.522000   2.761739   2.771387   3.482577   2.499989
    15  H    3.477679   3.794124   3.742479   4.331543   2.684545
    16  H    2.697397   2.991802   2.497765   3.723444   2.818939
    17  O    3.667504   3.323580   4.359066   4.433235   4.172914
    18  O    2.963374   2.642470   3.366222   3.945767   3.757438
                   11         12         13         14         15
    11  H    0.000000
    12  H    1.768165   0.000000
    13  H    1.764297   1.764157   0.000000
    14  C    2.733596   2.749295   3.465884   0.000000
    15  H    2.989447   2.478771   3.709743   1.092804   0.000000
    16  H    2.611026   3.207198   3.806321   1.090990   1.787898
    17  O    4.781198   4.230276   4.883893   2.277284   2.457402
    18  O    4.072957   4.032264   4.593088   1.416784   2.060451
                   16         17         18
    16  H    0.000000
    17  O    3.197985   0.000000
    18  O    2.004686   1.407529   0.000000
 Stoichiometry    C5H11O2(2)
 Framework group  C1[X(C5H11O2)]
 Deg. of freedom    48
 Full point group                 C1      NOp   1
 Largest Abelian subgroup         C1      NOp   1
 Largest concise Abelian subgroup C1      NOp   1
                         Standard orientation:                         
 ---------------------------------------------------------------------
 Center     Atomic      Atomic             Coordinates (Angstroms)
 Number     Number       Type             X           Y           Z
 ---------------------------------------------------------------------
      1          6           0        0.705360    0.049923    0.024883
      2          6           0        0.138936    1.375999    0.489324
      3          1           0        0.343833    1.663273    1.516256
      4          1           0        0.218246    2.201658   -0.213822
      5          1           0       -1.186423    1.107730    0.427353
      6          6           0        1.066276   -0.833178    1.227818
      7          1           0        0.191622   -1.022106    1.849306
      8          1           0        1.462874   -1.796246    0.901002
      9          1           0        1.825630   -0.349990    1.844309
     10          6           0        1.936814    0.259251   -0.877495
     11          1           0        2.316836   -0.697421   -1.242674
     12          1           0        1.695893    0.881492   -1.740540
     13          1           0        2.738542    0.748402   -0.323705
     14          6           0       -0.384955   -0.666431   -0.828054
     15          1           0       -0.571137   -0.120819   -1.756420
     16          1           0       -0.089715   -1.692376   -1.052843
     17          8           0       -2.126826    0.519998    0.034672
     18          8           0       -1.588273   -0.774620   -0.088056
 ---------------------------------------------------------------------
 Rotational constants (GHZ):           3.9808431           1.9461978           1.8638004
 Standard basis: CC-pVTZ+d (5D, 7F)
 There are   410 symmetry adapted cartesian basis functions of A   symmetry.
 There are   364 symmetry adapted basis functions of A   symmetry.
   364 basis functions,   551 primitive gaussians,   410 cartesian basis functions
    29 alpha electrons       28 beta electrons
       nuclear repulsion energy       339.0581561506 Hartrees.
 NAtoms=   18 NActive=   18 NUniq=   18 SFac= 1.00D+00 NAtFMM=   60 NAOKFM=F Big=F
 Integral buffers will be    131072 words long.
 Raffenetti 2 integral format.
 Two-electron integral symmetry is turned on.
 One-electron integrals computed using PRISM.
 NBasis=   364 RedAO= T EigKep=  4.48D-04  NBF=   364
 NBsUse=   364 1.00D-06 EigRej= -1.00D+00 NBFU=   364
 ExpMin= 1.03D-01 ExpMax= 1.53D+04 ExpMxC= 5.22D+02 IAcc=3 IRadAn=         5 AccDes= 0.00D+00
 Harris functional with IExCor=  402 and IRadAn=       5 diagonalized for initial guess.
 HarFok:  IExCor=  402 AccDes= 0.00D+00 IRadAn=         5 IDoV= 1 UseB2=F ITyADJ=14
 ICtDFT=  3500011 ScaDFX=  1.000000  1.000000  1.000000  1.000000
 FoFCou: FMM=F IPFlag=           0 FMFlag=      100000 FMFlg1=           0
         NFxFlg=           0 DoJE=T BraDBF=F KetDBF=T FulRan=T
         wScrn=  0.000000 ICntrl=       500 IOpCl=  0 I1Cent=   200000004 NGrid=           0
         NMat0=    1 NMatS0=      1 NMatT0=    0 NMatD0=    1 NMtDS0=    0 NMtDT0=    0
 Petite list used in FoFCou.
 Initial guess <Sx>= 0.0000 <Sy>= 0.0000 <Sz>= 0.5000 <S**2>= 0.7500 S= 0.5000
 Requested convergence on RMS density matrix=1.00D-08 within 128 cycles.
 Requested convergence on MAX density matrix=1.00D-06.
 Requested convergence on             energy=1.00D-06.
 No special actions if energy rises.
 Integral accuracy reduced to 1.0D-05 until final iterations.
 Initial convergence to 1.0D-05 achieved.  Increase integral accuracy.
 SCF Done:  E(UB3LYP) =  -347.566651078     A.U. after   19 cycles
            NFock= 19  Conv=0.21D-08     -V/T= 2.0066
 <Sx>= 0.0000 <Sy>= 0.0000 <Sz>= 0.5000 <S**2>= 0.7566 S= 0.5033
 <L.S>= 0.000000000000E+00
 Annihilation of the first spin contaminant:
 S**2 before annihilation     0.7566,   after     0.7500
 DoSCS=F DFT=T ScalE2(SS,OS)=  1.000000  1.000000
 Range of M.O.s used for correlation:     1   364
 NBasis=   364 NAE=    29 NBE=    28 NFC=     0 NFV=     0
 NROrb=    364 NOA=    29 NOB=    28 NVA=   335 NVB=   336

 **** Warning!!: The largest alpha MO coefficient is  0.12014607D+02


 **** Warning!!: The largest beta MO coefficient is  0.12011409D+02

 Symmetrizing basis deriv contribution to polar:
 IMax=3 JMax=2 DiffMx= 0.00D+00
 G2DrvN: will do    19 centers at a time, making    1 passes.
 Calling FoFCou, ICntrl=  3107 FMM=F I1Cent=   0 AccDes= 0.00D+00.
 End of G2Drv F.D. properties file   721 does not exist.
 End of G2Drv F.D. properties file   722 does not exist.
 End of G2Drv F.D. properties file   788 does not exist.
          IDoAtm=111111111111111111
          Differentiating once with respect to nuclear coordinates.
 CalDSu exits because no D1Ps are significant.
          There are    57 degrees of freedom in the 1st order CPHF.  IDoFFX=6 NUNeed=     0.
     51 vectors produced by pass  0 Test12= 3.35D-14 1.75D-09 XBig12= 2.09D-01 1.69D-01.
 AX will form    51 AO Fock derivatives at one time.
     51 vectors produced by pass  1 Test12= 3.35D-14 1.75D-09 XBig12= 2.21D-02 2.60D-02.
     51 vectors produced by pass  2 Test12= 3.35D-14 1.75D-09 XBig12= 7.74D-04 4.07D-03.
     51 vectors produced by pass  3 Test12= 3.35D-14 1.75D-09 XBig12= 6.84D-06 3.46D-04.
     51 vectors produced by pass  4 Test12= 3.35D-14 1.75D-09 XBig12= 4.89D-08 2.36D-05.
     51 vectors produced by pass  5 Test12= 3.35D-14 1.75D-09 XBig12= 2.47D-10 1.50D-06.
     35 vectors produced by pass  6 Test12= 3.35D-14 1.75D-09 XBig12= 1.38D-12 1.06D-07.
      6 vectors produced by pass  7 Test12= 3.35D-14 1.75D-09 XBig12= 6.90D-15 6.24D-09.
 InvSVY:  IOpt=1 It=  1 EMax= 7.77D-16
 Solved reduced A of dimension   347 with    57 vectors.
 End of Minotr F.D. properties file   721 does not exist.
 End of Minotr F.D. properties file   722 does not exist.
 End of Minotr F.D. properties file   788 does not exist.

 **********************************************************************

            Population analysis using the SCF Density.

 **********************************************************************

 Orbital symmetries:
 Alpha Orbitals:
       Occupied  (A) (A) (A) (A) (A) (A) (A) (A) (A) (A) (A) (A)
                 (A) (A) (A) (A) (A) (A) (A) (A) (A) (A) (A) (A)
                 (A) (A) (A) (A) (A)
       Virtual   (A) (A) (A) (A) (A) (A) (A) (A) (A) (A) (A) (A)
                 (A) (A) (A) (A) (A) (A) (A) (A) (A) (A) (A) (A)
                 (A) (A) (A) (A) (A) (A) (A) (A) (A) (A) (A) (A)
                 (A) (A) (A) (A) (A) (A) (A) (A) (A) (A) (A) (A)
                 (A) (A) (A) (A) (A) (A) (A) (A) (A) (A) (A) (A)
                 (A) (A) (A) (A) (A) (A) (A) (A) (A) (A) (A) (A)
                 (A) (A) (A) (A) (A) (A) (A) (A) (A) (A) (A) (A)
                 (A) (A) (A) (A) (A) (A) (A) (A) (A) (A) (A) (A)
                 (A) (A) (A) (A) (A) (A) (A) (A) (A) (A) (A) (A)
                 (A) (A) (A) (A) (A) (A) (A) (A) (A) (A) (A) (A)
                 (A) (A) (A) (A) (A) (A) (A) (A) (A) (A) (A) (A)
                 (A) (A) (A) (A) (A) (A) (A) (A) (A) (A) (A) (A)
                 (A) (A) (A) (A) (A) (A) (A) (A) (A) (A) (A) (A)
                 (A) (A) (A) (A) (A) (A) (A) (A) (A) (A) (A) (A)
                 (A) (A) (A) (A) (A) (A) (A) (A) (A) (A) (A) (A)
                 (A) (A) (A) (A) (A) (A) (A) (A) (A) (A) (A) (A)
                 (A) (A) (A) (A) (A) (A) (A) (A) (A) (A) (A) (A)
                 (A) (A) (A) (A) (A) (A) (A) (A) (A) (A) (A) (A)
                 (A) (A) (A) (A) (A) (A) (A) (A) (A) (A) (A) (A)
                 (A) (A) (A) (A) (A) (A) (A) (A) (A) (A) (A) (A)
                 (A) (A) (A) (A) (A) (A) (A) (A) (A) (A) (A) (A)
                 (A) (A) (A) (A) (A) (A) (A) (A) (A) (A) (A) (A)
                 (A) (A) (A) (A) (A) (A) (A) (A) (A) (A) (A) (A)
                 (A) (A) (A) (A) (A) (A) (A) (A) (A) (A) (A) (A)
                 (A) (A) (A) (A) (A) (A) (A) (A) (A) (A) (A) (A)
                 (A) (A) (A) (A) (A) (A) (A) (A) (A) (A) (A) (A)
                 (A) (A) (A) (A) (A) (A) (A) (A) (A) (A) (A) (A)
                 (A) (A) (A) (A) (A) (A) (A) (A) (A) (A) (A)
 Beta  Orbitals:
       Occupied  (A) (A) (A) (A) (A) (A) (A) (A) (A) (A) (A) (A)
                 (A) (A) (A) (A) (A) (A) (A) (A) (A) (A) (A) (A)
                 (A) (A) (A) (A)
       Virtual   (A) (A) (A) (A) (A) (A) (A) (A) (A) (A) (A) (A)
                 (A) (A) (A) (A) (A) (A) (A) (A) (A) (A) (A) (A)
                 (A) (A) (A) (A) (A) (A) (A) (A) (A) (A) (A) (A)
                 (A) (A) (A) (A) (A) (A) (A) (A) (A) (A) (A) (A)
                 (A) (A) (A) (A) (A) (A) (A) (A) (A) (A) (A) (A)
                 (A) (A) (A) (A) (A) (A) (A) (A) (A) (A) (A) (A)
                 (A) (A) (A) (A) (A) (A) (A) (A) (A) (A) (A) (A)
                 (A) (A) (A) (A) (A) (A) (A) (A) (A) (A) (A) (A)
                 (A) (A) (A) (A) (A) (A) (A) (A) (A) (A) (A) (A)
                 (A) (A) (A) (A) (A) (A) (A) (A) (A) (A) (A) (A)
                 (A) (A) (A) (A) (A) (A) (A) (A) (A) (A) (A) (A)
                 (A) (A) (A) (A) (A) (A) (A) (A) (A) (A) (A) (A)
                 (A) (A) (A) (A) (A) (A) (A) (A) (A) (A) (A) (A)
                 (A) (A) (A) (A) (A) (A) (A) (A) (A) (A) (A) (A)
                 (A) (A) (A) (A) (A) (A) (A) (A) (A) (A) (A) (A)
                 (A) (A) (A) (A) (A) (A) (A) (A) (A) (A) (A) (A)
                 (A) (A) (A) (A) (A) (A) (A) (A) (A) (A) (A) (A)
                 (A) (A) (A) (A) (A) (A) (A) (A) (A) (A) (A) (A)
                 (A) (A) (A) (A) (A) (A) (A) (A) (A) (A) (A) (A)
                 (A) (A) (A) (A) (A) (A) (A) (A) (A) (A) (A) (A)
                 (A) (A) (A) (A) (A) (A) (A) (A) (A) (A) (A) (A)
                 (A) (A) (A) (A) (A) (A) (A) (A) (A) (A) (A) (A)
                 (A) (A) (A) (A) (A) (A) (A) (A) (A) (A) (A) (A)
                 (A) (A) (A) (A) (A) (A) (A) (A) (A) (A) (A) (A)
                 (A) (A) (A) (A) (A) (A) (A) (A) (A) (A) (A) (A)
                 (A) (A) (A) (A) (A) (A) (A) (A) (A) (A) (A) (A)
                 (A) (A) (A) (A) (A) (A) (A) (A) (A) (A) (A) (A)
                 (A) (A) (A) (A) (A) (A) (A) (A) (A) (A) (A) (A)
 The electronic state is 2-A.
 Alpha  occ. eigenvalues --  -19.20010 -19.18370 -10.23385 -10.20902 -10.19028
 Alpha  occ. eigenvalues --  -10.18026 -10.17031  -1.13780  -0.89624  -0.83700
 Alpha  occ. eigenvalues --   -0.70758  -0.70214  -0.67527  -0.56859  -0.53167
 Alpha  occ. eigenvalues --   -0.49927  -0.48150  -0.45466  -0.44763  -0.42580
 Alpha  occ. eigenvalues --   -0.41134  -0.39271  -0.38433  -0.36849  -0.36486
 Alpha  occ. eigenvalues --   -0.34694  -0.33140  -0.27087  -0.23070
 Alpha virt. eigenvalues --    0.02431   0.03867   0.06533   0.07000   0.07185
 Alpha virt. eigenvalues --    0.09035   0.09199   0.10655   0.12071   0.12816
 Alpha virt. eigenvalues --    0.13785   0.14009   0.15264   0.16636   0.18038
 Alpha virt. eigenvalues --    0.18800   0.21213   0.25442   0.25708   0.27354
 Alpha virt. eigenvalues --    0.29660   0.31247   0.32401   0.33711   0.36203
 Alpha virt. eigenvalues --    0.37028   0.37519   0.40141   0.41273   0.42759
 Alpha virt. eigenvalues --    0.43710   0.43872   0.44030   0.44535   0.45246
 Alpha virt. eigenvalues --    0.45555   0.46340   0.46960   0.47732   0.48454
 Alpha virt. eigenvalues --    0.49105   0.50633   0.52479   0.54148   0.56818
 Alpha virt. eigenvalues --    0.58752   0.61358   0.63080   0.67939   0.72005
 Alpha virt. eigenvalues --    0.73205   0.74754   0.76437   0.77275   0.78620
 Alpha virt. eigenvalues --    0.79068   0.80149   0.83552   0.87176   0.87618
 Alpha virt. eigenvalues --    0.88374   0.89225   0.90642   0.91997   0.93165
 Alpha virt. eigenvalues --    0.94566   0.95056   0.96482   1.00603   1.01216
 Alpha virt. eigenvalues --    1.02239   1.03708   1.06879   1.07681   1.09664
 Alpha virt. eigenvalues --    1.10004   1.12500   1.13947   1.14058   1.14827
 Alpha virt. eigenvalues --    1.16495   1.18643   1.20511   1.21099   1.22466
 Alpha virt. eigenvalues --    1.23493   1.24840   1.26643   1.27875   1.28945
 Alpha virt. eigenvalues --    1.29405   1.30819   1.32393   1.33235   1.36090
 Alpha virt. eigenvalues --    1.37780   1.38962   1.39800   1.41892   1.44019
 Alpha virt. eigenvalues --    1.44902   1.47404   1.49179   1.49948   1.52750
 Alpha virt. eigenvalues --    1.53887   1.55390   1.55894   1.60857   1.62621
 Alpha virt. eigenvalues --    1.63671   1.67040   1.69920   1.74976   1.78178
 Alpha virt. eigenvalues --    1.79777   1.89297   1.92144   1.94954   2.06380
 Alpha virt. eigenvalues --    2.08149   2.10795   2.21656   2.24663   2.26417
 Alpha virt. eigenvalues --    2.26689   2.29597   2.30433   2.34937   2.36363
 Alpha virt. eigenvalues --    2.37648   2.40378   2.42059   2.47600   2.49834
 Alpha virt. eigenvalues --    2.50524   2.52294   2.55857   2.57167   2.59046
 Alpha virt. eigenvalues --    2.61993   2.62723   2.63965   2.65743   2.69131
 Alpha virt. eigenvalues --    2.73075   2.73772   2.75518   2.77714   2.78810
 Alpha virt. eigenvalues --    2.79435   2.80663   2.83009   2.85677   2.87674
 Alpha virt. eigenvalues --    2.90321   2.90659   2.91718   2.96088   2.96440
 Alpha virt. eigenvalues --    2.98183   2.99384   3.00207   3.01004   3.01675
 Alpha virt. eigenvalues --    3.03525   3.04040   3.05037   3.08063   3.08382
 Alpha virt. eigenvalues --    3.09462   3.11741   3.12410   3.14138   3.14695
 Alpha virt. eigenvalues --    3.16087   3.18619   3.20065   3.20571   3.23616
 Alpha virt. eigenvalues --    3.25373   3.26677   3.28549   3.30510   3.32940
 Alpha virt. eigenvalues --    3.33848   3.36308   3.36626   3.39243   3.40362
 Alpha virt. eigenvalues --    3.41065   3.43364   3.44179   3.44237   3.45936
 Alpha virt. eigenvalues --    3.46868   3.50014   3.51658   3.52977   3.56524
 Alpha virt. eigenvalues --    3.57477   3.59470   3.60366   3.61332   3.64073
 Alpha virt. eigenvalues --    3.66561   3.68846   3.69411   3.71482   3.73319
 Alpha virt. eigenvalues --    3.74135   3.75541   3.78738   3.80156   3.82328
 Alpha virt. eigenvalues --    3.83322   3.87456   3.88628   3.92151   3.92729
 Alpha virt. eigenvalues --    3.94331   3.96350   3.96936   3.98221   4.00491
 Alpha virt. eigenvalues --    4.02455   4.03468   4.04474   4.06172   4.06879
 Alpha virt. eigenvalues --    4.08118   4.08227   4.10966   4.11985   4.13471
 Alpha virt. eigenvalues --    4.15365   4.16075   4.16732   4.18222   4.19132
 Alpha virt. eigenvalues --    4.20480   4.22227   4.22827   4.26329   4.27908
 Alpha virt. eigenvalues --    4.30619   4.33334   4.34142   4.35389   4.37187
 Alpha virt. eigenvalues --    4.40388   4.42557   4.43681   4.46425   4.49563
 Alpha virt. eigenvalues --    4.54308   4.57572   4.58616   4.63127   4.64841
 Alpha virt. eigenvalues --    4.66396   4.67074   4.72074   4.75900   4.77972
 Alpha virt. eigenvalues --    4.80773   4.82759   4.83148   4.85485   4.85772
 Alpha virt. eigenvalues --    4.90006   4.92310   4.93251   4.94554   4.95279
 Alpha virt. eigenvalues --    5.02822   5.04614   5.05572   5.07638   5.10451
 Alpha virt. eigenvalues --    5.14884   5.16051   5.19060   5.19127   5.21396
 Alpha virt. eigenvalues --    5.22335   5.23858   5.25358   5.27279   5.27835
 Alpha virt. eigenvalues --    5.31329   5.33482   5.35323   5.36304   5.39003
 Alpha virt. eigenvalues --    5.40998   5.42656   5.45372   5.46678   5.50260
 Alpha virt. eigenvalues --    5.52398   5.53615   5.57254   5.65115   5.78740
 Alpha virt. eigenvalues --    5.86618   5.88855   5.91115   5.92349   5.93839
 Alpha virt. eigenvalues --    5.94895   5.97072   6.07530   6.13058   6.15122
 Alpha virt. eigenvalues --    6.24779   6.45104   6.47092   6.56558   6.64455
 Alpha virt. eigenvalues --    6.82382   6.84021   6.85737   6.92838   7.10485
 Alpha virt. eigenvalues --    7.29038   7.34839   7.57822   9.90914  10.07945
 Alpha virt. eigenvalues --   10.80539  12.69385  12.82978  13.63060  13.75931
  Beta  occ. eigenvalues --  -19.19737 -19.17154 -10.23334 -10.20903 -10.18184
  Beta  occ. eigenvalues --  -10.17945 -10.17028  -1.12480  -0.87797  -0.82997
  Beta  occ. eigenvalues --   -0.70270  -0.69409  -0.66571  -0.56191  -0.51638
  Beta  occ. eigenvalues --   -0.49448  -0.47531  -0.44964  -0.44412  -0.41026
  Beta  occ. eigenvalues --   -0.40814  -0.38802  -0.37941  -0.35962  -0.35268
  Beta  occ. eigenvalues --   -0.34442  -0.31576  -0.25512
  Beta virt. eigenvalues --   -0.11754   0.02539   0.04611   0.06593   0.07129
  Beta virt. eigenvalues --    0.07455   0.09118   0.09450   0.10797   0.12141
  Beta virt. eigenvalues --    0.12970   0.13865   0.14193   0.15468   0.16912
  Beta virt. eigenvalues --    0.18186   0.19125   0.21818   0.25748   0.26043
  Beta virt. eigenvalues --    0.27535   0.29910   0.31592   0.32530   0.34074
  Beta virt. eigenvalues --    0.36426   0.37551   0.37725   0.40536   0.41347
  Beta virt. eigenvalues --    0.43115   0.43805   0.44236   0.44422   0.45098
  Beta virt. eigenvalues --    0.45421   0.45959   0.46963   0.47178   0.47951
  Beta virt. eigenvalues --    0.48673   0.49231   0.50813   0.52674   0.54752
  Beta virt. eigenvalues --    0.57125   0.59262   0.61805   0.63428   0.68258
  Beta virt. eigenvalues --    0.72379   0.73491   0.74965   0.76602   0.77502
  Beta virt. eigenvalues --    0.78868   0.79250   0.80459   0.83746   0.87315
  Beta virt. eigenvalues --    0.87794   0.88596   0.89546   0.90808   0.92214
  Beta virt. eigenvalues --    0.93278   0.94649   0.95422   0.96642   1.00776
  Beta virt. eigenvalues --    1.01539   1.02747   1.03975   1.07152   1.07879
  Beta virt. eigenvalues --    1.09862   1.10185   1.12822   1.14063   1.14291
  Beta virt. eigenvalues --    1.15105   1.16829   1.18909   1.20858   1.21253
  Beta virt. eigenvalues --    1.22757   1.23684   1.25002   1.26873   1.28085
  Beta virt. eigenvalues --    1.29242   1.29626   1.30911   1.32806   1.33451
  Beta virt. eigenvalues --    1.36481   1.38062   1.39099   1.39955   1.42228
  Beta virt. eigenvalues --    1.44215   1.45154   1.47674   1.49657   1.50234
  Beta virt. eigenvalues --    1.52857   1.54021   1.56159   1.56316   1.61449
  Beta virt. eigenvalues --    1.63065   1.63906   1.67247   1.70269   1.75472
  Beta virt. eigenvalues --    1.78545   1.80602   1.90237   1.92769   1.95513
  Beta virt. eigenvalues --    2.06842   2.09987   2.11400   2.21875   2.25424
  Beta virt. eigenvalues --    2.26686   2.27107   2.30085   2.30600   2.35438
  Beta virt. eigenvalues --    2.37083   2.37859   2.40799   2.42182   2.47944
  Beta virt. eigenvalues --    2.50225   2.50788   2.52731   2.55986   2.57385
  Beta virt. eigenvalues --    2.59405   2.62253   2.63026   2.64888   2.66250
  Beta virt. eigenvalues --    2.69442   2.73827   2.74480   2.75851   2.77912
  Beta virt. eigenvalues --    2.79085   2.79544   2.80816   2.83258   2.85997
  Beta virt. eigenvalues --    2.87899   2.90509   2.90963   2.92150   2.96501
  Beta virt. eigenvalues --    2.96799   2.98521   2.99636   3.00470   3.01290
  Beta virt. eigenvalues --    3.02123   3.04056   3.04476   3.05236   3.08372
  Beta virt. eigenvalues --    3.08845   3.09935   3.12122   3.12543   3.14586
  Beta virt. eigenvalues --    3.15767   3.16358   3.19061   3.20636   3.20954
  Beta virt. eigenvalues --    3.23895   3.25769   3.27485   3.28922   3.30658
  Beta virt. eigenvalues --    3.33170   3.34115   3.36557   3.37000   3.39542
  Beta virt. eigenvalues --    3.40747   3.41360   3.43483   3.44380   3.44475
  Beta virt. eigenvalues --    3.46144   3.47211   3.50270   3.51743   3.53302
  Beta virt. eigenvalues --    3.56727   3.57770   3.59728   3.60614   3.61559
  Beta virt. eigenvalues --    3.64155   3.66673   3.68918   3.69768   3.71755
  Beta virt. eigenvalues --    3.73560   3.74349   3.75803   3.78851   3.80392
  Beta virt. eigenvalues --    3.82575   3.83807   3.87613   3.88915   3.92305
  Beta virt. eigenvalues --    3.92807   3.94553   3.96552   3.97369   3.98294
  Beta virt. eigenvalues --    4.00711   4.02628   4.03582   4.04628   4.06426
  Beta virt. eigenvalues --    4.07103   4.08266   4.08440   4.11111   4.12120
  Beta virt. eigenvalues --    4.13626   4.15644   4.16194   4.16789   4.18350
  Beta virt. eigenvalues --    4.19313   4.20548   4.22457   4.22950   4.26497
  Beta virt. eigenvalues --    4.28517   4.30837   4.33522   4.34439   4.35674
  Beta virt. eigenvalues --    4.37621   4.40504   4.42835   4.44398   4.46832
  Beta virt. eigenvalues --    4.50069   4.54698   4.57934   4.59072   4.63491
  Beta virt. eigenvalues --    4.65014   4.66642   4.67246   4.72347   4.76247
  Beta virt. eigenvalues --    4.78101   4.80998   4.83024   4.83387   4.85673
  Beta virt. eigenvalues --    4.86080   4.90983   4.92446   4.93763   4.95005
  Beta virt. eigenvalues --    4.95768   5.03442   5.05146   5.06000   5.08598
  Beta virt. eigenvalues --    5.10548   5.15027   5.16460   5.19390   5.19514
  Beta virt. eigenvalues --    5.21635   5.22522   5.24060   5.25757   5.27620
  Beta virt. eigenvalues --    5.28048   5.31481   5.33715   5.35872   5.36793
  Beta virt. eigenvalues --    5.39227   5.41267   5.43241   5.45693   5.47036
  Beta virt. eigenvalues --    5.50505   5.52572   5.53868   5.58414   5.65916
  Beta virt. eigenvalues --    5.79602   5.87860   5.89308   5.91220   5.92529
  Beta virt. eigenvalues --    5.93994   5.95019   5.97234   6.08375   6.14930
  Beta virt. eigenvalues --    6.16151   6.26082   6.46225   6.48580   6.59309
  Beta virt. eigenvalues --    6.66576   6.83374   6.86127   6.87234   6.95153
  Beta virt. eigenvalues --    7.11880   7.30095   7.36409   7.58701   9.91121
  Beta virt. eigenvalues --   10.09454  10.80983  12.69735  12.83691  13.63155
  Beta virt. eigenvalues --   13.75962
          Condensed to atoms (all electrons):
               1          2          3          4          5          6
     1  C    5.086209   0.320321  -0.040562  -0.037483   0.013917   0.328132
     2  C    0.320321   5.212958   0.398784   0.398235   0.225269  -0.059894
     3  H   -0.040562   0.398784   0.570424  -0.033848  -0.008816  -0.010097
     4  H   -0.037483   0.398235  -0.033848   0.566786  -0.005314   0.007218
     5  H    0.013917   0.225269  -0.008816  -0.005314   0.437016   0.001487
     6  C    0.328132  -0.059894  -0.010097   0.007218   0.001487   4.942496
     7  H   -0.033382  -0.001436  -0.000250  -0.000064   0.000933   0.402149
     8  H   -0.036865   0.008067   0.000157  -0.000436  -0.000237   0.402401
     9  H   -0.030947  -0.006612   0.003978   0.000006  -0.000173   0.398813
    10  C    0.337220  -0.060223   0.000446  -0.006915   0.003529  -0.047886
    11  H   -0.036253   0.009340  -0.000367   0.000205  -0.000284  -0.006053
    12  H   -0.030583  -0.007201  -0.000295   0.004306   0.000070   0.008265
    13  H   -0.029903  -0.002468   0.001684  -0.000393  -0.000014  -0.005586
    14  C    0.297665  -0.052136   0.008990   0.000675  -0.012112  -0.053980
    15  H   -0.076201  -0.006609   0.000043   0.001694  -0.000950   0.007903
    16  H   -0.042440   0.010814  -0.000231  -0.000387  -0.001751  -0.010265
    17  O   -0.031015  -0.074872   0.000654  -0.000351   0.184151   0.000710
    18  O   -0.049851   0.001523  -0.000275   0.000677  -0.031157  -0.002320
               7          8          9         10         11         12
     1  C   -0.033382  -0.036865  -0.030947   0.337220  -0.036253  -0.030583
     2  C   -0.001436   0.008067  -0.006612  -0.060223   0.009340  -0.007201
     3  H   -0.000250   0.000157   0.003978   0.000446  -0.000367  -0.000295
     4  H   -0.000064  -0.000436   0.000006  -0.006915   0.000205   0.004306
     5  H    0.000933  -0.000237  -0.000173   0.003529  -0.000284   0.000070
     6  C    0.402149   0.402401   0.398813  -0.047886  -0.006053   0.008265
     7  H    0.562355  -0.026244  -0.029106   0.008588  -0.000092  -0.000433
     8  H   -0.026244   0.599486  -0.030676  -0.005769   0.003813  -0.000075
     9  H   -0.029106  -0.030676   0.595936  -0.006710  -0.000200  -0.000153
    10  C    0.008588  -0.005769  -0.006710   4.928003   0.398110   0.402144
    11  H   -0.000092   0.003813  -0.000200   0.398110   0.596183  -0.029678
    12  H   -0.000433  -0.000075  -0.000153   0.402144  -0.029678   0.588101
    13  H   -0.000197  -0.000403   0.004389   0.396200  -0.029210  -0.030162
    14  C   -0.006864  -0.004731   0.007888  -0.044315  -0.002793  -0.005133
    15  H    0.000892   0.000007  -0.000331   0.001133  -0.000392   0.004201
    16  H   -0.000168   0.004083  -0.000060  -0.002699   0.003041  -0.000315
    17  O   -0.000286  -0.000007  -0.000007  -0.000374   0.000044  -0.000178
    18  O    0.012190   0.000273  -0.000009   0.001842   0.000150   0.000164
              13         14         15         16         17         18
     1  C   -0.029903   0.297665  -0.076201  -0.042440  -0.031015  -0.049851
     2  C   -0.002468  -0.052136  -0.006609   0.010814  -0.074872   0.001523
     3  H    0.001684   0.008990   0.000043  -0.000231   0.000654  -0.000275
     4  H   -0.000393   0.000675   0.001694  -0.000387  -0.000351   0.000677
     5  H   -0.000014  -0.012112  -0.000950  -0.001751   0.184151  -0.031157
     6  C   -0.005586  -0.053980   0.007903  -0.010265   0.000710  -0.002320
     7  H   -0.000197  -0.006864   0.000892  -0.000168  -0.000286   0.012190
     8  H   -0.000403  -0.004731   0.000007   0.004083  -0.000007   0.000273
     9  H    0.004389   0.007888  -0.000331  -0.000060  -0.000007  -0.000009
    10  C    0.396200  -0.044315   0.001133  -0.002699  -0.000374   0.001842
    11  H   -0.029210  -0.002793  -0.000392   0.003041   0.000044   0.000150
    12  H   -0.030162  -0.005133   0.004201  -0.000315  -0.000178   0.000164
    13  H    0.590133   0.006336  -0.000165  -0.000364   0.000044  -0.000347
    14  C    0.006336   4.730116   0.428226   0.404203  -0.035937   0.312877
    15  H   -0.000165   0.428226   0.613012  -0.029445   0.013530  -0.042172
    16  H   -0.000364   0.404203  -0.029445   0.591447   0.005875  -0.021406
    17  O    0.000044  -0.035937   0.013530   0.005875   8.060395   0.088273
    18  O   -0.000347   0.312877  -0.042172  -0.021406   0.088273   7.881738
          Atomic-Atomic Spin Densities.
               1          2          3          4          5          6
     1  C   -0.006875  -0.028021   0.001025   0.000723  -0.007274   0.001641
     2  C   -0.028021   0.583294   0.004685   0.004497   0.053817  -0.003912
     3  H    0.001025   0.004685  -0.013921   0.003566  -0.000228  -0.000758
     4  H    0.000723   0.004497   0.003566  -0.016817   0.000273  -0.000416
     5  H   -0.007274   0.053817  -0.000228   0.000273  -0.059237   0.000252
     6  C    0.001641  -0.003912  -0.000758  -0.000416   0.000252   0.003182
     7  H   -0.001564   0.001609  -0.000576  -0.000103   0.000483  -0.000058
     8  H    0.001017   0.000041   0.000006   0.000020   0.000014  -0.000270
     9  H    0.000215   0.001326   0.000646   0.000073  -0.000093  -0.000962
    10  C   -0.000222  -0.016516  -0.002168  -0.001579   0.000899   0.005467
    11  H    0.002073   0.001320   0.000127   0.000135  -0.000038  -0.001229
    12  H    0.000671  -0.000726  -0.000009  -0.000239   0.000021   0.000017
    13  H   -0.001100   0.005193   0.000546   0.000564  -0.000147  -0.001104
    14  C    0.022372  -0.005855  -0.000056  -0.000069   0.003253  -0.000925
    15  H   -0.002164   0.003675  -0.000298  -0.000680   0.002638   0.000373
    16  H   -0.002115   0.000268  -0.000041  -0.000041   0.000290   0.000347
    17  O    0.013072  -0.087238   0.003102   0.002302  -0.035962  -0.000304
    18  O   -0.006356   0.016317  -0.000821  -0.000444   0.007979  -0.000085
               7          8          9         10         11         12
     1  C   -0.001564   0.001017   0.000215  -0.000222   0.002073   0.000671
     2  C    0.001609   0.000041   0.001326  -0.016516   0.001320  -0.000726
     3  H   -0.000576   0.000006   0.000646  -0.002168   0.000127  -0.000009
     4  H   -0.000103   0.000020   0.000073  -0.001579   0.000135  -0.000239
     5  H    0.000483   0.000014  -0.000093   0.000899  -0.000038   0.000021
     6  C   -0.000058  -0.000270  -0.000962   0.005467  -0.001229   0.000017
     7  H    0.001012  -0.000208  -0.000560   0.000774  -0.000132   0.000008
     8  H   -0.000208  -0.000884   0.000296  -0.000439   0.000046  -0.000002
     9  H   -0.000560   0.000296   0.000173  -0.001250   0.000237  -0.000011
    10  C    0.000774  -0.000439  -0.001250   0.054259  -0.004244   0.001409
    11  H   -0.000132   0.000046   0.000237  -0.004244   0.005839  -0.000437
    12  H    0.000008  -0.000002  -0.000011   0.001409  -0.000437  -0.001478
    13  H   -0.000125   0.000105   0.000392  -0.006329   0.002546  -0.000100
    14  C   -0.000189  -0.000011   0.000001  -0.004105   0.000347  -0.000215
    15  H    0.000153  -0.000053  -0.000056   0.002590  -0.000779   0.000185
    16  H    0.000208  -0.000183  -0.000037   0.001005  -0.000557   0.000028
    17  O   -0.001133   0.000033   0.000111  -0.001178   0.000065  -0.000022
    18  O    0.001189  -0.000118  -0.000177   0.000982  -0.000127   0.000005
              13         14         15         16         17         18
     1  C   -0.001100   0.022372  -0.002164  -0.002115   0.013072  -0.006356
     2  C    0.005193  -0.005855   0.003675   0.000268  -0.087238   0.016317
     3  H    0.000546  -0.000056  -0.000298  -0.000041   0.003102  -0.000821
     4  H    0.000564  -0.000069  -0.000680  -0.000041   0.002302  -0.000444
     5  H   -0.000147   0.003253   0.002638   0.000290  -0.035962   0.007979
     6  C   -0.001104  -0.000925   0.000373   0.000347  -0.000304  -0.000085
     7  H   -0.000125  -0.000189   0.000153   0.000208  -0.001133   0.001189
     8  H    0.000105  -0.000011  -0.000053  -0.000183   0.000033  -0.000118
     9  H    0.000392   0.000001  -0.000056  -0.000037   0.000111  -0.000177
    10  C   -0.006329  -0.004105   0.002590   0.001005  -0.001178   0.000982
    11  H    0.002546   0.000347  -0.000779  -0.000557   0.000065  -0.000127
    12  H   -0.000100  -0.000215   0.000185   0.000028  -0.000022   0.000005
    13  H    0.002116   0.000331  -0.000262  -0.000071   0.000082  -0.000060
    14  C    0.000331   0.009958  -0.003324   0.000417   0.002772  -0.008127
    15  H   -0.000262  -0.003324   0.003913   0.001417  -0.003302  -0.000413
    16  H   -0.000071   0.000417   0.001417  -0.000015  -0.000389  -0.000099
    17  O    0.000082   0.002772  -0.003302  -0.000389   0.540611  -0.049072
    18  O   -0.000060  -0.008127  -0.000413  -0.000099  -0.049072   0.122825
 Mulliken charges and spin densities:
               1          2
     1  C    0.092020  -0.012881
     2  C   -0.313860   0.533776
     3  H    0.109581  -0.005171
     4  H    0.105386  -0.008234
     5  H    0.194436  -0.033059
     6  C   -0.303493   0.001257
     7  H    0.111416   0.000787
     8  H    0.087155  -0.000590
     9  H    0.093975   0.000323
    10  C   -0.302323   0.029356
    11  H    0.094436   0.005190
    12  H    0.096953  -0.000894
    13  H    0.100424   0.002576
    14  C    0.021025   0.016575
    15  H    0.085623   0.003610
    16  H    0.090066   0.000431
    17  O   -0.210650   0.383550
    18  O   -0.152169   0.083397
 Sum of Mulliken charges =  -0.00000   1.00000
 Mulliken charges and spin densities with hydrogens summed into heavy atoms:
               1          2
     1  C    0.092020  -0.012881
     2  C   -0.098893   0.520371
     6  C   -0.010947   0.001777
    10  C   -0.010511   0.036228
    14  C    0.196715   0.020616
    17  O   -0.016214   0.350492
    18  O   -0.152169   0.083397
 APT charges:
               1
     1  C    0.144863
     2  C   -0.859856
     3  H    0.395960
     4  H    0.383162
     5  H    0.114226
     6  C   -1.058684
     7  H    0.276395
     8  H    0.357172
     9  H    0.404140
    10  C   -1.099165
    11  H    0.361530
    12  H    0.322814
    13  H    0.413833
    14  C   -0.664379
    15  H    0.309803
    16  H    0.360648
    17  O   -0.144044
    18  O   -0.018417
 Sum of APT charges =  -0.00000
 APT charges with hydrogens summed into heavy atoms:
               1
     1  C    0.144863
     2  C   -0.080734
     6  C   -0.020978
    10  C   -0.000988
    14  C    0.006071
    17  O   -0.029818
    18  O   -0.018417
 Electronic spatial extent (au):  <R**2>=            798.0726
 Charge=             -0.0000 electrons
 Dipole moment (field-independent basis, Debye):
    X=              3.0378    Y=              0.2456    Z=             -0.5355  Tot=              3.0944
 Quadrupole moment (field-independent basis, Debye-Ang):
   XX=            -51.4470   YY=            -43.4146   ZZ=            -43.4832
   XY=             -0.3824   XZ=              0.3908   YZ=              1.0921
 Traceless Quadrupole moment (field-independent basis, Debye-Ang):
   XX=             -5.3321   YY=              2.7003   ZZ=              2.6317
   XY=             -0.3824   XZ=              0.3908   YZ=              1.0921
 Octapole moment (field-independent basis, Debye-Ang**2):
  XXX=              0.3364  YYY=             -1.4134  ZZZ=             -0.8463  XYY=             -3.3680
  XXY=             -0.6102  XXZ=              0.0229  XZZ=             -4.9603  YZZ=              0.4290
  YYZ=             -1.6773  XYZ=              0.1851
 Hexadecapole moment (field-independent basis, Debye-Ang**3):
 XXXX=           -587.5815 YYYY=           -245.8639 ZZZZ=           -232.3230 XXXY=              4.4375
 XXXZ=              4.3064 YYYX=             -3.8356 YYYZ=              2.8849 ZZZX=              2.0229
 ZZZY=              1.9863 XXYY=           -137.6156 XXZZ=           -133.3684 YYZZ=            -79.3661
 XXYZ=              2.5702 YYXZ=             -1.4449 ZZXY=              2.4383
 N-N= 3.390581561506D+02 E-N=-1.489169322823D+03  KE= 3.452763218883D+02
  Exact polarizability:   0.000   0.000   0.000   0.000   0.000   0.000
 Approx polarizability: 119.698   6.458 114.301   2.049   8.137  93.760
                          Isotropic Fermi Contact Couplings
        Atom                 a.u.       MegaHertz       Gauss      10(-4) cm-1
     1  C(13)             -0.00191      -2.14354      -0.76487      -0.71501
     2  C(13)              0.08058      90.58427      32.32272      30.21566
     3  H(1)              -0.00233     -10.41826      -3.71749      -3.47516
     4  H(1)              -0.00374     -16.72183      -5.96677      -5.57780
     5  H(1)              -0.02368    -105.85797     -37.77276     -35.31042
     6  C(13)             -0.00030      -0.34027      -0.12142      -0.11350
     7  H(1)              -0.00020      -0.91558      -0.32670      -0.30540
     8  H(1)              -0.00018      -0.79934      -0.28523      -0.26663
     9  H(1)              -0.00022      -1.00168      -0.35742      -0.33412
    10  C(13)              0.03174      35.68670      12.73390      11.90380
    11  H(1)               0.00188       8.42092       3.00479       2.80892
    12  H(1)              -0.00027      -1.22251      -0.43622      -0.40778
    13  H(1)              -0.00048      -2.15998      -0.77074      -0.72049
    14  C(13)              0.00119       1.33288       0.47561       0.44460
    15  H(1)               0.00038       1.69272       0.60400       0.56463
    16  H(1)               0.00034       1.53111       0.54634       0.51072
    17  O(17)              0.02801     -16.97986      -6.05884      -5.66387
    18  O(17)              0.02472     -14.98481      -5.34695      -4.99839
 --------------------------------------------------------
       Center         ----  Spin Dipole Couplings  ----
                      3XX-RR        3YY-RR        3ZZ-RR
 --------------------------------------------------------
     1   Atom        0.039202     -0.015625     -0.023576
     2   Atom        0.639639     -0.301618     -0.338021
     3   Atom       -0.001329     -0.035111      0.036440
     4   Atom       -0.001909      0.006739     -0.004830
     5   Atom        0.155073     -0.056591     -0.098481
     6   Atom        0.000096      0.003520     -0.003616
     7   Atom       -0.002041      0.002362     -0.000321
     8   Atom        0.000079      0.002316     -0.002395
     9   Atom        0.000823     -0.000342     -0.000481
    10   Atom        0.021772     -0.025267      0.003494
    11   Atom        0.000725      0.001689     -0.002414
    12   Atom       -0.000865     -0.003964      0.004829
    13   Atom        0.008067     -0.003877     -0.004190
    14   Atom        0.027543     -0.005210     -0.022333
    15   Atom       -0.002980     -0.004282      0.007262
    16   Atom       -0.000714      0.004616     -0.003902
    17   Atom        0.956475     -0.543896     -0.412579
    18   Atom        0.070522     -0.170162      0.099641
 --------------------------------------------------------
                        XY            XZ            YZ
 --------------------------------------------------------
     1   Atom       -0.001685      0.005270      0.004137
     2   Atom        0.185285     -0.011268     -0.002820
     3   Atom        0.010770      0.006066      0.019441
     4   Atom        0.007971      0.001657     -0.040735
     5   Atom        0.110830      0.058229      0.030016
     6   Atom       -0.002915      0.001439     -0.004586
     7   Atom       -0.002417      0.002982     -0.005511
     8   Atom       -0.002984      0.000867     -0.001473
     9   Atom       -0.003534      0.003710     -0.002918
    10   Atom       -0.005427     -0.036973      0.003531
    11   Atom       -0.002768     -0.003239      0.002658
    12   Atom       -0.000129     -0.005469     -0.001713
    13   Atom        0.000429     -0.002098      0.001878
    14   Atom        0.030049      0.016938      0.020496
    15   Atom        0.000119     -0.003129      0.003320
    16   Atom       -0.004476     -0.002074      0.005104
    17   Atom        0.859462      1.017242      0.450247
    18   Atom        0.207085      0.313841      0.212757
 --------------------------------------------------------


 ---------------------------------------------------------------------------------
              Anisotropic Spin Dipole Couplings in Principal Axis System
 ---------------------------------------------------------------------------------

       Atom             a.u.   MegaHertz   Gauss  10(-4) cm-1        Axes

              Baa    -0.0258    -3.463    -1.236    -1.155 -0.0845 -0.3871  0.9182
     1 C(13)  Bbb    -0.0139    -1.861    -0.664    -0.621 -0.0092  0.9217  0.3878
              Bcc     0.0397     5.324     1.900     1.776  0.9964 -0.0243  0.0814
 
              Baa    -0.3384   -45.413   -16.205   -15.148 -0.0598  0.3719  0.9264
     2 C(13)  Bbb    -0.3365   -45.156   -16.113   -15.062 -0.1770  0.9094 -0.3765
              Bcc     0.6749    90.569    32.317    30.211  0.9824  0.1864 -0.0114
 
              Baa    -0.0421   -22.441    -8.007    -7.485 -0.2189  0.9509 -0.2186
     3 H(1)   Bbb    -0.0010    -0.533    -0.190    -0.178  0.9565  0.1649 -0.2406
              Bcc     0.0431    22.973     8.197     7.663  0.1928  0.2618  0.9457
 
              Baa    -0.0413   -22.016    -7.856    -7.344 -0.1636  0.6540  0.7386
     4 H(1)   Bbb    -0.0014    -0.740    -0.264    -0.247  0.9802  0.0233  0.1965
              Bcc     0.0427    22.756     8.120     7.591  0.1113  0.7562 -0.6449
 
              Baa    -0.1141   -60.900   -21.730   -20.314 -0.0068 -0.4522  0.8919
     5 H(1)   Bbb    -0.1019   -54.381   -19.404   -18.139 -0.4379  0.8032  0.4039
              Bcc     0.2161   115.280    41.135    38.453  0.8990  0.3878  0.2034
 
              Baa    -0.0059    -0.786    -0.281    -0.262 -0.0025  0.4387  0.8986
     6 C(13)  Bbb    -0.0014    -0.186    -0.066    -0.062  0.9102  0.3731 -0.1796
              Bcc     0.0072     0.972     0.347     0.324 -0.4141  0.8175 -0.4002
 
              Baa    -0.0051    -2.695    -0.962    -0.899 -0.4204  0.4491  0.7884
     7 H(1)   Bbb    -0.0030    -1.618    -0.577    -0.540  0.8378  0.5257  0.1472
              Bcc     0.0081     4.313     1.539     1.439 -0.3484  0.7224 -0.5973
 
              Baa    -0.0028    -1.504    -0.537    -0.502 -0.0086  0.2711  0.9625
     8 H(1)   Bbb    -0.0020    -1.052    -0.375    -0.351  0.8347  0.5321 -0.1424
              Bcc     0.0048     2.555     0.912     0.852 -0.5507  0.8021 -0.2309
 
              Baa    -0.0036    -1.920    -0.685    -0.641 -0.6777 -0.0806  0.7309
     9 H(1)   Bbb    -0.0033    -1.738    -0.620    -0.580  0.3490  0.8397  0.4162
              Bcc     0.0069     3.658     1.305     1.220  0.6472 -0.5371  0.5409
 
              Baa    -0.0262    -3.519    -1.256    -1.174  0.4170  0.8043  0.4233
    10 C(13)  Bbb    -0.0250    -3.360    -1.199    -1.121  0.4581 -0.5882  0.6664
              Bcc     0.0513     6.879     2.455     2.295  0.7850 -0.0840 -0.6138
 
              Baa    -0.0046    -2.446    -0.873    -0.816  0.4441 -0.1762  0.8785
    11 H(1)   Bbb    -0.0015    -0.777    -0.277    -0.259  0.6554  0.7324 -0.1845
              Bcc     0.0060     3.224     1.150     1.075 -0.6109  0.6577  0.4407
 
              Baa    -0.0051    -2.746    -0.980    -0.916  0.5760  0.6923  0.4346
    12 H(1)   Bbb    -0.0032    -1.687    -0.602    -0.563 -0.6408  0.7125 -0.2859
              Bcc     0.0083     4.433     1.582     1.479 -0.5076 -0.1139  0.8540
 
              Baa    -0.0062    -3.286    -1.173    -1.096  0.1305 -0.6444  0.7534
    13 H(1)   Bbb    -0.0023    -1.205    -0.430    -0.402  0.0977  0.7646  0.6370
              Bcc     0.0084     4.491     1.603     1.498  0.9866  0.0096 -0.1628
 
              Baa    -0.0362    -4.852    -1.731    -1.619  0.0686 -0.5963  0.7998
    14 C(13)  Bbb    -0.0176    -2.359    -0.842    -0.787 -0.6011  0.6151  0.5101
              Bcc     0.0537     7.211     2.573     2.405  0.7962  0.5158  0.3163
 
              Baa    -0.0056    -2.989    -1.066    -0.997 -0.4225  0.8475 -0.3215
    15 H(1)   Bbb    -0.0033    -1.763    -0.629    -0.588  0.8726  0.4762  0.1088
              Bcc     0.0089     4.752     1.696     1.585 -0.2453  0.2346  0.9406
 
              Baa    -0.0063    -3.356    -1.198    -1.120 -0.0051 -0.4256  0.9049
    16 H(1)   Bbb    -0.0031    -1.664    -0.594    -0.555  0.8989  0.3945  0.1906
              Bcc     0.0094     5.020     1.791     1.674 -0.4381  0.8144  0.3805
 
              Baa    -0.9557    69.151    24.675    23.066 -0.5342  0.2236  0.8152
    17 O(17)  Bbb    -0.9299    67.286    24.009    22.444 -0.2049  0.9014 -0.3815
              Bcc     1.8855  -136.437   -48.684   -45.510  0.8201  0.3709  0.4357
 
              Baa    -0.2969    21.483     7.666     7.166 -0.2988  0.9191 -0.2566
    18 O(17)  Bbb    -0.2290    16.570     5.913     5.527  0.7113  0.0352 -0.7020
              Bcc     0.5259   -38.053   -13.578   -12.693  0.6362  0.3923  0.6643
 

 ---------------------------------------------------------------------------------

 Calling FoFJK, ICntrl=    100147 FMM=F ISym2X=0 I1Cent= 0 IOpClX= 1 NMat=1 NMatS=1 NMatT=0.
 ***** Axes restored to original set *****
 -------------------------------------------------------------------
 Center     Atomic                   Forces (Hartrees/Bohr)
 Number     Number              X              Y              Z
 -------------------------------------------------------------------
      1        6          -0.000009505   -0.000006079   -0.000004134
      2        6          -0.000012330    0.000013834   -0.000000319
      3        1          -0.000007845   -0.000006148   -0.000002980
      4        1           0.000005796   -0.000003925    0.000000999
      5        1           0.006270248    0.003903088    0.002609805
      6        6           0.000004267    0.000000204    0.000003957
      7        1          -0.000000967    0.000000939   -0.000000923
      8        1           0.000000609   -0.000000901    0.000000338
      9        1          -0.000000864   -0.000000159   -0.000000780
     10        6           0.000005256    0.000000582    0.000000361
     11        1          -0.000000895   -0.000000693    0.000000131
     12        1          -0.000002506    0.000000236    0.000001443
     13        1          -0.000000700    0.000000652   -0.000000727
     14        6          -0.000006492   -0.000001242   -0.000001313
     15        1          -0.000001745    0.000000754    0.000001107
     16        1           0.000003079    0.000002608    0.000000265
     17        8          -0.006253495   -0.003924477   -0.002608442
     18        8           0.000008089    0.000020726    0.000001211
 -------------------------------------------------------------------
 Cartesian Forces:  Max     0.006270248 RMS     0.001507231
 FormGI is forming the generalized inverse of G from B-inverse, IUseBI=4.

 GradGradGradGradGradGradGradGradGradGradGradGradGradGradGradGradGradGrad
 Berny optimization.
 Internal  Forces:  Max     0.007833703 RMS     0.000859916
 Search for a saddle point.
 Step number   1 out of a maximum of   93
 All quantities printed in internal units (Hartrees-Bohrs-Radians)
 Swapping is turned off.
 Second derivative matrix not updated -- analytic derivatives used.
 ITU=  0
     Eigenvalues ---   -0.15256   0.00229   0.00308   0.00333   0.01149
     Eigenvalues ---    0.02906   0.03841   0.04081   0.04510   0.04544
     Eigenvalues ---    0.04589   0.04623   0.04718   0.04953   0.05560
     Eigenvalues ---    0.07747   0.09147   0.09902   0.11713   0.11873
     Eigenvalues ---    0.11966   0.12451   0.13307   0.14266   0.14480
     Eigenvalues ---    0.14781   0.16226   0.18336   0.21165   0.23173
     Eigenvalues ---    0.24402   0.26917   0.27818   0.29466   0.31158
     Eigenvalues ---    0.32959   0.32976   0.33162   0.33249   0.33470
     Eigenvalues ---    0.34060   0.34175   0.34253   0.34358   0.34742
     Eigenvalues ---    0.48753   0.63582   1.74685
 Eigenvectors required to have negative eigenvalues:
                          R7        R17       A24       D6        D1
   1                   -0.94320   0.16437   0.10027   0.08619  -0.08416
                          D3        D4        D2        D5        A7
   1                   -0.08006   0.07758   0.07348  -0.07145   0.06258
 RFO step:  Lambda0=3.585815437D-04 Lambda=-8.73295437D-05.
 Linear search not attempted -- option 19 set.
 Iteration  1 RMS(Cart)=  0.00787315 RMS(Int)=  0.00007673
 Iteration  2 RMS(Cart)=  0.00006681 RMS(Int)=  0.00005507
 Iteration  3 RMS(Cart)=  0.00000001 RMS(Int)=  0.00005507
 Variable       Old X    -DE/DX   Delta X   Delta X   Delta X     New X
                                 (Linear)    (Quad)   (Total)
    R1        2.86281   0.00001   0.00000  -0.00510  -0.00510   2.85771
    R2        2.90132   0.00000   0.00000  -0.00015  -0.00015   2.90117
    R3        2.91201   0.00000   0.00000   0.00146   0.00146   2.91347
    R4        2.94546  -0.00002   0.00000   0.00083   0.00083   2.94629
    R5        2.05198  -0.00001   0.00000  -0.00090  -0.00090   2.05109
    R6        2.05487  -0.00000   0.00000  -0.00104  -0.00104   2.05383
    R7        2.22313   0.00783   0.00000  -0.03452  -0.03452   2.18860
    R8        2.05881   0.00000   0.00000  -0.00007  -0.00007   2.05874
    R9        2.06283   0.00000   0.00000  -0.00015  -0.00015   2.06268
   R10        2.06158  -0.00000   0.00000   0.00001   0.00001   2.06158
   R11        2.06404   0.00000   0.00000  -0.00007  -0.00007   2.06397
   R12        2.06151  -0.00000   0.00000  -0.00005  -0.00005   2.06146
   R13        2.06034  -0.00000   0.00000  -0.00011  -0.00011   2.06023
   R14        2.06510  -0.00000   0.00000   0.00046   0.00046   2.06556
   R15        2.06167  -0.00000   0.00000   0.00038   0.00038   2.06206
   R16        2.67733  -0.00002   0.00000  -0.00341  -0.00341   2.67392
   R17        2.65984  -0.00003   0.00000   0.01221   0.01221   2.67206
    A1        1.92962   0.00000   0.00000   0.00005   0.00005   1.92967
    A2        1.93844   0.00000   0.00000  -0.00361  -0.00361   1.93483
    A3        1.88443  -0.00001   0.00000   0.00415   0.00415   1.88858
    A4        1.92740  -0.00000   0.00000   0.00044   0.00043   1.92783
    A5        1.90587   0.00000   0.00000   0.00037   0.00036   1.90623
    A6        1.87653   0.00001   0.00000  -0.00129  -0.00128   1.87525
    A7        2.03864   0.00000   0.00000   0.00938   0.00913   2.04777
    A8        2.02543  -0.00001   0.00000   0.00877   0.00851   2.03394
    A9        1.97893   0.00000   0.00000   0.00913   0.00881   1.98774
   A10        1.93689  -0.00000   0.00000  -0.00051  -0.00051   1.93638
   A11        1.93724   0.00000   0.00000  -0.00062  -0.00062   1.93661
   A12        1.93011   0.00000   0.00000   0.00060   0.00060   1.93071
   A13        1.88543   0.00000   0.00000  -0.00023  -0.00023   1.88520
   A14        1.88941   0.00000   0.00000   0.00074   0.00074   1.89015
   A15        1.88289  -0.00000   0.00000   0.00005   0.00005   1.88295
   A16        1.93355  -0.00000   0.00000  -0.00131  -0.00131   1.93224
   A17        1.94365  -0.00000   0.00000  -0.00004  -0.00004   1.94361
   A18        1.92959   0.00000   0.00000   0.00056   0.00056   1.93015
   A19        1.88802   0.00000   0.00000   0.00001   0.00001   1.88803
   A20        1.88277   0.00000   0.00000   0.00042   0.00042   1.88319
   A21        1.88424   0.00000   0.00000   0.00039   0.00039   1.88462
   A22        1.93327   0.00001   0.00000  -0.00108  -0.00109   1.93219
   A23        1.93440   0.00001   0.00000  -0.00348  -0.00349   1.93091
   A24        1.92133  -0.00005   0.00000   0.00524   0.00524   1.92657
   A25        1.91833  -0.00000   0.00000  -0.00150  -0.00151   1.91682
   A26        1.91467   0.00002   0.00000   0.00159   0.00158   1.91626
   A27        1.83967   0.00002   0.00000  -0.00069  -0.00068   1.83900
   A28        1.75459  -0.00003   0.00000   0.00001   0.00001   1.75460
   A29        1.87578  -0.00003   0.00000  -0.00055  -0.00055   1.87523
    D1        0.32651  -0.00000   0.00000  -0.01656  -0.01662   0.30990
    D2        2.73324  -0.00000   0.00000   0.02246   0.02252   2.75577
    D3       -1.81947  -0.00000   0.00000  -0.01463  -0.01470  -1.83417
    D4        0.58726  -0.00000   0.00000   0.02439   0.02444   0.61170
    D5        2.41040  -0.00001   0.00000  -0.01353  -0.01359   2.39681
    D6       -1.46606  -0.00001   0.00000   0.02549   0.02555  -1.44051
    D7        1.03149  -0.00000   0.00000   0.00676   0.00676   1.03824
    D8        3.12835  -0.00000   0.00000   0.00571   0.00571   3.13406
    D9       -1.06565  -0.00000   0.00000   0.00577   0.00577  -1.05989
   D10       -3.09931  -0.00000   0.00000   0.00250   0.00250  -3.09681
   D11       -1.00244  -0.00000   0.00000   0.00145   0.00145  -1.00099
   D12        1.08674  -0.00000   0.00000   0.00151   0.00151   1.08825
   D13       -1.03940   0.00000   0.00000   0.00141   0.00141  -1.03799
   D14        1.05746   0.00000   0.00000   0.00036   0.00036   1.05782
   D15       -3.13654   0.00001   0.00000   0.00042   0.00042  -3.13612
   D16       -3.10123   0.00000   0.00000  -0.00045  -0.00045  -3.10167
   D17       -0.99906   0.00000   0.00000  -0.00134  -0.00134  -1.00040
   D18        1.09566   0.00000   0.00000  -0.00050  -0.00050   1.09517
   D19        1.03469   0.00000   0.00000   0.00169   0.00169   1.03638
   D20        3.13686  -0.00000   0.00000   0.00080   0.00080   3.13765
   D21       -1.05160  -0.00000   0.00000   0.00164   0.00164  -1.04996
   D22       -1.04311  -0.00000   0.00000   0.00177   0.00177  -1.04134
   D23        1.05905  -0.00000   0.00000   0.00088   0.00088   1.05993
   D24       -3.12941  -0.00000   0.00000   0.00172   0.00173  -3.12768
   D25        1.16672  -0.00001   0.00000  -0.00648  -0.00648   1.16024
   D26       -2.98231   0.00000   0.00000  -0.01152  -0.01152  -2.99383
   D27       -0.95395   0.00000   0.00000  -0.01127  -0.01127  -0.96522
   D28       -3.01761  -0.00001   0.00000  -0.00374  -0.00374  -3.02134
   D29       -0.88345   0.00000   0.00000  -0.00879  -0.00878  -0.89223
   D30        1.14492  -0.00000   0.00000  -0.00853  -0.00853   1.13638
   D31       -0.92606  -0.00001   0.00000  -0.00376  -0.00376  -0.92982
   D32        1.20810   0.00000   0.00000  -0.00881  -0.00880   1.19930
   D33       -3.04672  -0.00000   0.00000  -0.00855  -0.00855  -3.05528
   D34        1.22232  -0.00002   0.00000   0.00253   0.00253   1.22485
   D35       -0.90940  -0.00000   0.00000  -0.00059  -0.00060  -0.91000
   D36       -2.97393  -0.00002   0.00000   0.00075   0.00075  -2.97318
   D37       -0.87985   0.00001   0.00000   0.00100   0.00100  -0.87885
         Item               Value     Threshold  Converged?
 Maximum Force            0.007834     0.000450     NO 
 RMS     Force            0.000860     0.000300     NO 
 Maximum Displacement     0.045240     0.001800     NO 
 RMS     Displacement     0.007877     0.001200     NO 
 Predicted change in Energy= 1.359339D-04
 GradGradGradGradGradGradGradGradGradGradGradGradGradGradGradGradGradGrad

                          Input orientation:                          
 ---------------------------------------------------------------------
 Center     Atomic      Atomic             Coordinates (Angstroms)
 Number     Number       Type             X           Y           Z
 ---------------------------------------------------------------------
      1          6           0        0.708155    0.051419    0.025877
      2          6           0        0.153326    1.379777    0.488999
      3          1           0        0.344805    1.668398    1.517639
      4          1           0        0.212320    2.203522   -0.217532
      5          1           0       -1.210363    1.098546    0.428565
      6          6           0        1.066798   -0.832115    1.229074
      7          1           0        0.191124   -1.019295    1.849585
      8          1           0        1.461012   -1.795978    0.901984
      9          1           0        1.827197   -0.351043    1.845937
     10          6           0        1.939938    0.256270   -0.878399
     11          1           0        2.314317   -0.702381   -1.244107
     12          1           0        1.700313    0.879479   -1.741070
     13          1           0        2.744781    0.741530   -0.325816
     14          6           0       -0.384479   -0.662114   -0.827262
     15          1           0       -0.570966   -0.113124   -1.753863
     16          1           0       -0.084876   -1.685800   -1.057498
     17          8           0       -2.133439    0.517468    0.039189
     18          8           0       -1.586431   -0.780019   -0.089989
 ---------------------------------------------------------------------
                    Distance matrix (angstroms):
                    1          2          3          4          5
     1  C    0.000000
     2  C    1.512235   0.000000
     3  H    2.229798   1.085388   0.000000
     4  H    2.221857   1.086841   1.820640   0.000000
     5  H    2.222463   1.393697   1.982262   1.913750   0.000000
     6  C    1.535232   2.504917   2.618608   3.469567   3.090910
     7  H    2.177076   2.758291   2.712472   3.828835   2.910106
     8  H    2.178814   3.459194   3.691457   4.336883   3.967195
     9  H    2.174132   2.763850   2.526541   3.659445   3.651989
    10  C    1.541742   2.514762   3.206174   2.685739   3.513115
    11  H    2.181933   3.465390   4.138456   3.730485   4.297038
    12  H    2.189101   2.759833   3.616488   2.507664   3.636941
    13  H    2.178942   2.790506   3.165011   2.926176   4.042241
    14  C    1.559110   2.488192   3.385514   2.989951   2.314974
    15  H    2.197885   2.789943   3.836037   2.888026   2.576812
    16  H    2.195571   3.441825   4.250483   3.990075   3.350774
    17  O    2.879589   2.484995   3.106791   2.900219   1.158160
    18  O    2.443325   2.833143   3.508402   3.486157   1.984774
                    6          7          8          9         10
     6  C    0.000000
     7  H    1.089438   0.000000
     8  H    1.091524   1.764596   0.000000
     9  H    1.090943   1.767289   1.764363   0.000000
    10  C    2.527528   3.482429   2.758778   2.793482   0.000000
    11  H    2.773042   3.765544   2.555346   3.147872   1.092206
    12  H    3.486065   4.333105   3.768431   3.794325   1.090876
    13  H    2.776629   3.788673   3.097500   2.598497   1.090229
    14  C    2.522622   2.761233   2.771601   3.483428   2.499792
    15  H    3.478093   3.792989   3.743588   4.332014   2.684683
    16  H    2.698804   2.995252   2.498295   3.723914   2.811332
    17  O    3.671337   3.323066   4.360793   4.439064   4.183609
    18  O    2.963489   2.641761   3.362007   3.947745   3.759091
                   11         12         13         14         15
    11  H    0.000000
    12  H    1.768122   0.000000
    13  H    1.764494   1.764339   0.000000
    14  C    2.731096   2.749166   3.466112   0.000000
    15  H    2.988634   2.478735   3.709977   1.093050   0.000000
    16  H    2.599628   3.199192   3.799244   1.091194   1.787321
    17  O    4.787214   4.242408   4.896985   2.280572   2.460488
    18  O    4.068643   4.035181   4.596752   1.414977   2.060193
                   16         17         18
    16  H    0.000000
    17  O    3.202143   0.000000
    18  O    2.002793   1.413993   0.000000
 Stoichiometry    C5H11O2(2)
 Framework group  C1[X(C5H11O2)]
 Deg. of freedom    48
 Full point group                 C1      NOp   1
 Largest Abelian subgroup         C1      NOp   1
 Largest concise Abelian subgroup C1      NOp   1
                         Standard orientation:                         
 ---------------------------------------------------------------------
 Center     Atomic      Atomic             Coordinates (Angstroms)
 Number     Number       Type             X           Y           Z
 ---------------------------------------------------------------------
      1          6           0        0.706930    0.050806    0.025615
      2          6           0        0.153772    1.382843    0.480090
      3          1           0        0.344920    1.677534    1.507069
      4          1           0        0.214543    2.202109   -0.231480
      5          1           0       -1.210297    1.103306    0.420365
      6          6           0        1.063334   -0.825806    1.234526
      7          1           0        0.186913   -1.007819    1.855521
      8          1           0        1.456328   -1.792271    0.913704
      9          1           0        1.824001   -0.342077    1.848975
     10          6           0        1.939698    0.248194   -0.878979
     11          1           0        2.312896   -0.713267   -1.238467
     12          1           0        1.701663    0.866415   -1.745671
     13          1           0        2.744864    0.735646   -0.328800
     14          6           0       -0.386147   -0.666339   -0.823919
     15          1           0       -0.571109   -0.122812   -1.754040
     16          1           0       -0.087926   -1.691882   -1.047591
     17          8           0       -2.133962    0.521226    0.033894
     18          8           0       -1.588827   -0.777861   -0.086840
 ---------------------------------------------------------------------
 Rotational constants (GHZ):           3.9763439           1.9402107           1.8582253
 Standard basis: CC-pVTZ+d (5D, 7F)
 There are   410 symmetry adapted cartesian basis functions of A   symmetry.
 There are   364 symmetry adapted basis functions of A   symmetry.
   364 basis functions,   551 primitive gaussians,   410 cartesian basis functions
    29 alpha electrons       28 beta electrons
       nuclear repulsion energy       338.7271726049 Hartrees.
 NAtoms=   18 NActive=   18 NUniq=   18 SFac= 1.00D+00 NAtFMM=   60 NAOKFM=F Big=F
 Integral buffers will be    131072 words long.
 Raffenetti 2 integral format.
 Two-electron integral symmetry is turned on.
 One-electron integrals computed using PRISM.
 NBasis=   364 RedAO= T EigKep=  4.49D-04  NBF=   364
 NBsUse=   364 1.00D-06 EigRej= -1.00D+00 NBFU=   364
 Initial guess from the checkpoint file:  "RneopO2-H-Shift-TS3-b3lyp-c-a.chk"
 B after Tr=     0.000000   -0.000000    0.000000
         Rot=    0.999995    0.003081    0.000156    0.000732 Ang=   0.36 deg.
 Initial guess <Sx>= 0.0000 <Sy>= 0.0000 <Sz>= 0.5000 <S**2>= 0.7567 S= 0.5034
 ExpMin= 1.03D-01 ExpMax= 1.53D+04 ExpMxC= 5.22D+02 IAcc=3 IRadAn=         5 AccDes= 0.00D+00
 Harris functional with IExCor=  402 and IRadAn=       5 diagonalized for initial guess.
 HarFok:  IExCor=  402 AccDes= 0.00D+00 IRadAn=         5 IDoV= 1 UseB2=F ITyADJ=14
 ICtDFT=  3500011 ScaDFX=  1.000000  1.000000  1.000000  1.000000
 FoFCou: FMM=F IPFlag=           0 FMFlag=      100000 FMFlg1=           0
         NFxFlg=           0 DoJE=T BraDBF=F KetDBF=T FulRan=T
         wScrn=  0.000000 ICntrl=       500 IOpCl=  0 I1Cent=   200000004 NGrid=           0
         NMat0=    1 NMatS0=      1 NMatT0=    0 NMatD0=    1 NMtDS0=    0 NMtDT0=    0
 Petite list used in FoFCou.
 Requested convergence on RMS density matrix=1.00D-08 within 128 cycles.
 Requested convergence on MAX density matrix=1.00D-06.
 Requested convergence on             energy=1.00D-06.
 No special actions if energy rises.
 Integral accuracy reduced to 1.0D-05 until final iterations.
 Initial convergence to 1.0D-05 achieved.  Increase integral accuracy.
 SCF Done:  E(UB3LYP) =  -347.566523333     A.U. after   14 cycles
            NFock= 14  Conv=0.26D-08     -V/T= 2.0067
[...]
 86758,0.036305,-0.0017541,0.0132242,-0.0021143,0.0845004,0.050421,0.04
 39858,0.0549373,0.0119929,-0.0303199,-0.0339434,0.1017606,-0.0064827,0
 .0465276,0.0236076,0.0558193,0.0209859,-0.009381,0.0344148,0.0688987,0
 .0019824,0.0881917,-0.1038323,-0.0193249,0.0263426,-0.0825452,0.018116
 ,-0.0356299,-0.035386,-0.097697,-0.0819478,0.0041979,-0.061151,-0.0801
 249,-0.0125105,-0.0122106,0.0873783,0.0020636,0.0211086,0.0939106,0.13
 74641,0.0392289,-0.0200668,0.0649615,0.0862334,-0.014773,0.0240811,0.0
 325958,0.0836233,-0.0993171,-0.0722095,0.0707039,-0.0330568,0.0372595,
 0.0365746,0.0405902,-0.0481649,0.0111899,-0.0085472,0.1029475,-0.00471
 45,0.0867354,-0.0812777,-0.0609392,-0.0323831,-0.0238753,-0.0772033,0.
 029016,-0.036367,-0.0891509,-0.0643964,-0.0048395,0.4381372,0.024203,-
 0.0547895,0.0998466,0.2967977,-0.0065598,0.0321241,0.1601442,0.4124112
 ,-0.0080441,0.0262958,-0.0472887,-0.0073365,0.0164831,0.1174497,-0.018
 4278,0.0171157,-0.1250603,0.0388504,0.0640439,0.0397578,0.0375134,-0.0
 888152,-0.0555777,0.03132,-0.0281682,0.0530683,-0.2612413,0.047914,0.1
 244715,0.5243296,0.3003544,0.1996478,0.163639,0.1349988,-0.1437276,-0.
 2962147,0.0761724,0.0852937,-0.4283295,-0.5069445,-0.129627,-0.0388238
 ,-0.0412685,-0.2934335\Polar=81.7843787,2.5819489,73.6203621,1.1598523
 ,3.8960283,67.0445639\Quadrupole=-4.0938833,2.0963557,1.9975276,-0.351
 2214,0.2497536,0.8337627\PG=C01 [X(C5H11O2)]\NImag=1\\0.43192135,-0.03
 351511,0.45474656,-0.01305608,-0.02576737,0.45879343,-0.06897061,0.035
 97857,0.00561325,0.14995976,0.05099430,-0.15267317,-0.01882629,-0.0287
 8903,0.49874020,0.01468616,-0.02676096,-0.09114264,0.02877047,-0.02431
 324,0.59678022,0.00704677,0.00526212,0.01131933,-0.03267274,-0.0104975
 2,-0.06035669,0.03275567,-0.00567783,-0.00362235,-0.02174181,-0.007719
 13,-0.06846350,-0.06768820,0.00823337,0.06930660,-0.00429802,-0.000344
 28,-0.00447864,-0.04789850,-0.06702631,-0.30057907,0.05458529,0.073598
 12,0.31780785,-0.00014784,0.00868729,-0.00824922,-0.02295631,-0.016169
 64,0.01864922,0.00329908,0.00508698,-0.00475779,0.02685733,-0.00230597
 ,-0.01442936,0.01886992,-0.00688850,-0.20515041,0.13337165,0.00051677,
 0.00814369,-0.00656301,0.00876113,0.21673038,-0.00022027,-0.00712104,0
 .00734154,0.00926230,0.13312659,-0.17137254,0.00405069,0.02121122,-0.0
 1383870,-0.01337531,-0.14539117,0.17634255,-0.02203908,-0.00382206,0.0
 0027212,0.08799275,0.02043455,0.00146808,-0.01115635,-0.00157724,0.002
 44273,-0.01384580,-0.00154547,-0.00091702,-0.05783027,0.00491876,-0.00
 154970,0.00004017,0.06044156,-0.01185158,0.00115879,-0.00744077,-0.001
 07653,0.00128554,-0.01496306,-0.00292947,0.00050208,-0.06222548,0.0598
 5002,0.00051049,-0.00167289,0.00033853,0.03799295,0.00762795,-0.018180
 33,-0.01342973,-0.00240682,-0.00069412,0.00500261,0.00272701,-0.001422
 37,-0.02717564,0.00093313,0.03588930,-0.08253472,0.01349998,-0.0165399
 8,-0.00392606,0.01115736,-0.00986099,0.00070529,-0.00071026,-0.0005128
 5,-0.00015656,0.00138197,0.00055406,0.00009648,0.00002260,-0.00054235,
 0.56905049,0.01174547,-0.10545915,0.04205444,0.00892698,-0.02874204,0.
 02284995,-0.00009475,0.00117254,0.00173608,0.00301720,-0.00365236,-0.0
 0105415,0.00080381,0.00028429,0.00011274,0.01684040,0.53292145,-0.0135
 6376,0.04187500,-0.13254260,-0.00126502,-0.00168372,0.00735378,0.00071
 741,-0.00150971,0.00050584,0.00123084,-0.00342933,0.00001760,0.0009492
 8,0.00022195,0.00028065,-0.02386952,0.05524062,0.50024330,0.00795719,0
 .00145755,-0.00506585,0.00083496,-0.00000111,0.00011042,-0.00012095,-0
 .00037650,0.00003370,-0.00002630,-0.00017268,-0.00011437,-0.00013192,0
 .00005038,0.00001524,-0.22096083,-0.03537674,0.12197780,0.23848756,-0.
 01601391,-0.00425338,0.01022184,-0.00037597,0.00124554,0.00014000,-0.0
 0020096,-0.00035750,-0.00029457,-0.00007754,0.00015694,-0.00025749,-0.
 00027331,-0.00040355,0.00025509,-0.03431288,-0.05539125,0.02375468,0.0
 3794798,0.05723438,0.02074500,0.00321735,-0.01527157,0.00079057,-0.001
 19166,0.00059127,-0.00015422,0.00019203,0.00032031,-0.00016377,-0.0001
 1704,0.00001510,-0.00082320,-0.00003427,-0.00029851,0.11895541,0.02415
 612,-0.12996013,-0.13175139,-0.02923404,0.14177547,-0.00429013,0.00634
 517,0.00247959,0.00099559,0.00070211,-0.00180478,-0.00003954,-0.000113
 21,0.00010343,-0.00017594,0.00051512,0.00011090,-0.00001623,-0.0002460
 7,0.00010317,-0.08093340,0.08121568,0.02878086,-0.00851036,0.02389015,
 0.00769176,0.08341802,0.00659373,-0.01685030,-0.00597777,-0.00020027,-
 0.00181650,0.00386269,-0.00007904,0.00038202,0.00022488,0.00084020,-0.
 00085119,-0.00013642,0.00059386,0.00014925,0.00014194,0.08117395,-0.24
 534024,-0.07025972,-0.00173358,0.00586722,0.00159632,-0.09112780,0.268
 73484,-0.00963097,0.02272173,0.00707804,-0.00062141,0.00285317,-0.0039
 6812,0.00002459,0.00026536,0.00018819,-0.00061321,0.00127660,0.0005969
 8,-0.00014998,-0.00005535,-0.00017310,0.02947610,-0.07248330,-0.073480
 40,0.00495307,-0.01633044,-0.00599420,-0.03090749,0.07638066,0.0786866
 7,-0.00610378,-0.00285076,-0.00333064,-0.00010201,-0.00100864,-0.00036
 480,-0.00011865,0.00065683,0.00036595,0.00018959,0.00016222,0.00030407
 ,0.00051578,0.00007207,0.00009430,-0.17308871,-0.08133161,-0.10065328,
 -0.01734768,-0.01171397,-0.01532948,0.00918692,0.00503518,0.00744205,0
 .18591532,0.01428271,0.00710303,0.01130536,0.00046980,0.00146541,0.000
 76513,-0.00007415,-0.00009478,-0.00022003,-0.00009365,0.00017601,-0.00
 009077,-0.00011512,-0.00003795,0.00012635,-0.08256687,-0.10036406,-0.0
 6672135,-0.00262186,-0.00301584,-0.00259389,-0.02046494,-0.01232248,-0
 .01498461,0.08974249,0.10754776,-0.01824458,-0.01116543,-0.01543123,0.
 00078284,-0.00155181,0.00026716,-0.00006183,0.00028589,0.00061623,0.00
 019722,0.00005631,0.00014130,0.00037024,0.00001937,0.00001416,-0.09988
 788,-0.06504485,-0.12636760,0.01226739,0.00895583,0.01164750,-0.006658
 30,-0.00432644,-0.00604190,0.11230651,0.06991619,0.13832418,-0.1239348
 8,-0.01114359,0.03669963,-0.01586249,0.00729238,0.01078564,-0.00019326
 ,-0.00034762,-0.00035240,0.00155314,-0.00112906,0.00031985,0.00117728,
 0.00083215,0.00047928,0.00554940,-0.00122816,-0.00057048,-0.00016113,0
 .00179857,-0.00269192,0.00020167,0.00041977,-0.00070750,0.00053722,0.0
 0060763,-0.00093134,0.48431653,-0.00267489,-0.06911777,0.00882995,0.01
 908611,-0.00302394,-0.01775665,-0.00022065,-0.00203195,-0.00046216,0.0
 0069062,0.00080431,-0.00092017,0.00699943,0.00214099,0.00098178,-0.016
 18263,-0.00471730,0.01415893,0.00058865,-0.00213182,0.00339735,-0.0007
 4334,0.00020427,0.00033100,-0.00000421,0.00064655,-0.00137432,-0.01185
 640,0.56339582,0.03553102,0.01358518,-0.09703329,0.01286662,-0.0074092
 8,-0.01040121,0.00079677,-0.00002565,-0.00033077,-0.00109241,0.0013345
 8,0.00105226,0.00144593,-0.00052229,-0.00042751,0.02328762,0.00863678,
 -0.02234913,-0.00107516,0.00272587,-0.00377226,0.00028893,-0.00149305,
 0.00143826,0.00074110,-0.00068126,0.00093761,0.06596343,0.00539496,0.5
 2102964,-0.01112468,0.02256726,0.00835950,-0.00184998,-0.00075260,0.00
 333126,-0.00032104,0.00059469,0.00025000,-0.00006732,-0.00020058,-0.00
 009842,-0.00157547,-0.00051106,-0.00022021,0.00074489,0.00072659,-0.00
 110946,-0.00001557,-0.00015962,-0.00035067,0.00038174,-0.00054794,0.00
 018541,0.00003402,-0.00015935,0.00002932,-0.07469008,0.07484524,0.0270
 3261,0.08120921,-0.00191622,0.00341602,0.00229429,0.00030090,0.0005736
 9,0.00034527,0.00027140,0.00019956,-0.00013381,-0.00030509,0.00037182,
 -0.00011018,-0.00014232,-0.00026895,-0.00033475,-0.00034825,0.00055537
 ,0.00016231,-0.00002721,0.00027894,-0.00008205,-0.00010848,0.00035502,
 -0.00019515,0.00004643,-0.00006256,0.00002993,0.07513873,-0.24790669,-
 0.07397240,-0.08264426,0.26935973,0.00751304,-0.01558055,-0.00718685,0
 .00245249,0.00104612,-0.00142418,-0.00016972,-0.00039319,0.00008410,-0
 .00006408,-0.00017771,0.00011389,0.00100572,0.00002933,0.00002801,-0.0
 0027927,-0.00146291,0.00067164,-0.00016950,0.00027675,0.00032502,0.000
 01400,0.00073900,-0.00016115,0.00002718,0.00001200,-0.00011737,0.02655
 030,-0.07393469,-0.07476453,-0.03319587,0.08170012,0.07808030,0.005474
 42,-0.01479502,0.02046086,0.00098139,-0.00145433,-0.00015207,-0.000072
 63,0.00003761,-0.00008664,0.00011302,0.00038439,-0.00014357,0.00016537
 ,0.00004751,0.00014751,-0.00435263,-0.00043256,0.00235094,0.00048007,-
 0.00090659,0.00138268,-0.00008260,-0.00012224,-0.00015232,0.00004758,0
 .00016766,0.00019758,-0.06125111,0.03573460,-0.04874505,-0.00308720,0.
 00498725,-0.00825835,0.06584479,0.00056995,-0.00425399,0.00257443,0.00
 013679,0.00060419,-0.00129992,0.00011702,0.00007076,-0.00000261,0.0000
 1197,0.00026527,-0.00001616,-0.00019324,-0.00011055,-0.00001420,-0.001
 50186,0.00032062,0.00016110,0.00018047,0.00026151,0.00055874,-0.000042
 02,0.00045138,-0.00023699,0.00018392,0.00003089,0.00013803,0.03482935,
 -0.13243141,0.11680069,0.00634019,-0.01546891,0.02278759,-0.03808141,0
 .14103808,-0.00422847,0.01005009,-0.01596030,-0.00073605,0.00145927,0.
 00054778,-0.00011572,-0.00016177,0.00023968,0.00025477,-0.00098654,0.0
 0011343,-0.00034257,-0.00016110,-0.00005677,0.00465023,-0.00026280,-0.
 00160922,-0.00042659,0.00101161,-0.00095128,-0.00012382,0.00007766,0.0
 0021126,0.00001022,-0.00018446,0.00043367,-0.04742467,0.11609587,-0.20
 656302,0.00245646,-0.00619582,0.00982568,0.05031289,-0.12954552,0.2253
 4172,-0.02097185,-0.01000815,-0.01206238,0.00098202,-0.00125462,-0.000
 74830,-0.00013796,0.00018053,0.00021185,-0.00009045,0.00025868,-0.0000
 7884,0.00086584,0.00011791,-0.00008610,0.00100334,0.00046247,-0.001333
 28,0.00018952,0.00038119,0.00007797,0.00002658,-0.00004449,0.00014415,
 0.00048013,-0.00017750,0.00076691,-0.18479159,-0.08530238,-0.10004565,
 0.00898456,0.00462551,0.00604128,-0.00526580,-0.00275581,-0.00356532,0
 .20293914,-0.00251560,-0.00256099,-0.00143963,0.00069762,0.00033702,0.
 00040953,-0.00011030,0.00025201,0.00002624,0.00005226,0.00002906,0.000
 18314,-0.00005095,-0.00005646,0.00004643,-0.00010187,-0.00011049,-0.00
 067677,0.00025358,0.00008088,0.00010211,-0.00011200,-0.00010308,-0.000
 05514,-0.00001204,0.00010392,0.00051201,-0.08533008,-0.09933953,-0.061
 07361,-0.02148367,-0.01242217,-0.01488893,0.01469353,0.00902487,0.0094
 9549,0.09422407,0.10383690,0.01567394,0.00861290,0.00868985,0.00000276
 ,0.00103271,0.00108498,-0.00008110,0.00004516,-0.00003439,-0.00016240,
 -0.00001615,-0.00011521,-0.00064656,-0.00004497,-0.00007204,0.00031899
 ,0.00001742,0.00156676,-0.00009310,-0.00019393,0.00018260,-0.00006836,
 0.00006288,-0.00010974,-0.00016048,-0.00017705,-0.00010981,-0.10095327
 ,-0.06097605,-0.11691509,-0.00704730,-0.00371423,-0.00571972,-0.017846
 43,-0.01216910,-0.01293053,0.10697349,0.06667423,0.12615134,-0.0746677
 4,0.00193146,-0.02103638,0.01814226,-0.00950444,0.00090112,-0.00456781
 ,0.00184585,0.00269305,-0.00048762,0.00011001,-0.00060347,-0.00236419,
 -0.00376172,-0.00098515,-0.00968129,-0.00091794,-0.01295961,0.00004326
 ,-0.00058403,0.00207310,0.00003679,-0.00083011,0.00030508,0.00006728,0
 .00029103,0.00003180,-0.02984123,-0.01497634,-0.00790707,0.00066914,-0
 .00052998,-0.00114061,0.00114430,0.00076171,-0.00147639,-0.00207786,-0
 .00008872,0.00139364,0.39519218,-0.01225688,-0.08197131,-0.01485912,-0
 .01277952,-0.02323447,-0.02342704,0.00069530,-0.00383753,-0.00055674,0
 .00122549,0.00005903,0.00037727,0.00440819,-0.00227544,-0.00387159,0.0
 1166088,0.00894113,0.00855205,-0.00061252,0.00032867,0.00009343,0.0013
 2143,-0.00000146,0.00086820,0.00140156,-0.00254698,0.00405498,-0.00756
 998,-0.00190771,-0.00001402,0.00167704,0.00006605,-0.00052826,-0.00054
 010,-0.00034854,-0.00038256,0.00079275,0.00016594,0.00002449,-0.077444
 54,0.61752424,-0.02917435,-0.00750436,-0.09360215,-0.00986884,-0.01446
 074,-0.01180589,0.00092301,-0.00133327,-0.00044643,0.00247060,0.000881
 68,0.00077015,0.01042992,0.00147635,0.00206011,-0.02453154,-0.01132171
 ,-0.02318620,0.00048404,-0.00041723,-0.00008420,0.00093110,-0.00159375
 ,0.00157087,-0.00060838,0.00316018,-0.00466533,0.01308123,0.00685616,0
 .00791545,0.00062131,-0.00002210,-0.00004408,0.00144565,0.00119137,0.0
 0001804,0.00381886,0.00107649,-0.00244002,-0.00461146,-0.04062671,0.51
 811531,-0.00474955,0.00994549,-0.01783537,-0.00019434,0.00099030,0.001
 02451,0.00024688,0.00008127,0.00006136,0.00001159,-0.00041950,-0.00002
 298,0.00007061,0.00026842,0.00005820,-0.00320682,-0.00321970,-0.002212
 05,0.00007516,-0.00006058,0.00003251,0.00015229,-0.00017958,0.00028093
 ,-0.00027099,0.00073386,-0.00142174,0.00108491,0.00104884,-0.00122492,
 -0.00012959,0.00008259,0.00003785,-0.00033983,-0.00058724,0.00041668,0
 .00022199,-0.00004337,0.00029815,-0.05616682,0.03192732,-0.04793371,0.
 06826513,-0.00453674,0.00561866,-0.01315998,-0.00060764,0.00154020,-0.
 00016111,0.00006914,0.00008474,0.00014476,0.00012812,-0.00009455,0.000
 17620,-0.00010108,-0.00003529,-0.00010718,-0.00177540,-0.00132531,-0.0
 0129410,0.00006374,-0.00005343,-0.00004072,-0.00021324,0.00032528,-0.0
 0001089,-0.00028436,0.00078788,-0.00056886,0.00067708,0.00061713,-0.00
 035483,0.00000064,-0.00003433,0.00014337,0.00005804,0.00015384,0.00006
 251,0.00024643,0.00000212,-0.00014484,0.02714444,-0.11875820,0.1073171
 4,-0.02276016,0.12257408,-0.00607433,0.00786837,-0.01601964,0.00088617
 ,0.00142573,0.00045569,-0.00002157,-0.00001370,0.00022241,-0.00041277,
 -0.00059791,-0.00013658,-0.00181578,-0.00087899,-0.00122494,-0.0020298
 2,-0.00272836,-0.00059514,0.00018411,-0.00001408,0.00013087,-0.0000506
 0,0.00019684,0.00015918,-0.00021620,0.00065062,-0.00078002,0.00142090,
 0.00100822,0.00074098,-0.00021130,-0.00004664,0.00012622,-0.00038772,-
 0.00047326,0.00084847,0.00026494,-0.00028644,0.00024464,-0.04278262,0.
 10353012,-0.22162431,0.03979089,-0.11901791,0.24682710,0.00486629,-0.0
 2040612,-0.00585004,-0.00405075,-0.00085550,-0.00236144,0.00078900,-0.
 00100366,-0.00043673,0.00018253,-0.00005195,0.00010060,0.00037461,0.00
 026879,-0.00004965,0.00102073,-0.00062882,0.00062607,-0.00004652,0.000
 17999,-0.00009328,-0.00015730,0.00031650,-0.00005827,0.00006631,0.0000
 1163,0.00027456,0.00149882,-0.00022658,-0.00025929,-0.00027103,0.00023
 196,0.00014963,-0.00011903,0.00001000,0.00002559,0.00012118,0.00029225
 ,0.00000707,-0.06244490,0.05769840,0.01442473,-0.00003374,0.00478982,0
 .00019626,0.07839884,0.00409867,-0.01343010,-0.00252391,-0.00221422,0.
 00013972,-0.00176551,0.00009656,-0.00070283,-0.00023741,0.00011637,-0.
 00007808,0.00011039,-0.00031911,0.00030409,0.00044940,0.00100785,0.000
 70930,0.00118093,-0.00003579,-0.00000769,-0.00009835,-0.00035617,0.000
 77981,-0.00035484,-0.00010243,0.00030105,0.00023016,0.00068582,-0.0000
 7314,-0.00007737,-0.00068961,0.00032068,0.00033137,-0.00002321,0.00005
 123,-0.00009095,-0.00025950,0.00034190,0.00009990,0.06661772,-0.281560
 99,-0.04704003,0.00296258,-0.01227116,-0.00346544,-0.07310926,0.300035
 22,0.00199820,-0.01750766,-0.00477453,-0.00167831,-0.00074961,-0.00122
 422,0.00021544,-0.00063617,-0.00006452,-0.00004004,-0.00032786,-0.0001
 1161,-0.00000549,0.00050778,-0.00005066,0.00105545,-0.00107042,0.00058
 463,0.00003282,-0.00000452,-0.00012677,-0.00051719,0.00043847,-0.00013
 221,0.00009093,0.00027378,0.00031813,0.00052989,0.00062157,0.00010882,
 -0.00013908,0.00015873,0.00046425,-0.00006968,0.00008268,0.00003740,-0
 .00000541,0.00014953,-0.00007717,0.01380251,-0.04064691,-0.05985444,-0
 .00700643,0.02352542,0.00781301,-0.01898234,0.05444070,0.06240286,0.00
 599716,0.00463558,0.00349115,-0.09289271,-0.02502629,-0.01146870,0.000
 87291,0.00033560,-0.00134032,0.00536288,0.00048144,0.00077848,-0.00517
 376,0.02666111,-0.00723342,-0.00076932,-0.00016863,0.00013801,-0.00001
 656,0.00030213,-0.00024908,0.00017016,-0.00018965,-0.00006112,0.000043
 35,-0.00006313,-0.00019341,0.00010026,-0.00023874,-0.00104063,0.000015
 58,-0.00020235,-0.00006932,0.00007753,-0.00003570,0.00007538,-0.000005
 74,-0.00015057,0.00013112,-0.02822558,0.04418024,0.00601485,0.00358678
 ,-0.00047961,-0.00189841,-0.00573253,-0.00111279,0.00292794,0.20250945
 ,0.00361462,0.01262393,0.00806966,-0.09066144,-0.01397136,0.00189540,0
 .00750904,0.00054696,-0.00251903,0.00732857,0.00070085,0.00016696,0.07
 025248,0.00822909,0.00964441,0.00030800,-0.00137653,-0.00118513,0.0003
 4240,0.00012047,0.00092095,-0.00006800,-0.00070868,0.00025774,-0.00065
 146,0.00029691,-0.00050535,-0.00203090,-0.00662027,-0.00297430,0.00129
 123,-0.00012410,-0.00104894,-0.00004147,0.00023132,0.00036491,-0.00153
 032,0.00008974,0.00099845,0.01676049,-0.02453452,-0.02402115,-0.003278
 15,0.00316557,0.00270669,0.00156191,0.00363670,-0.00080053,-0.09680501
 ,0.20863412,0.00152115,0.00394898,0.00145393,-0.04499245,-0.00946436,0
 .00117855,0.00239154,0.00050368,0.00001374,0.00296744,-0.00054181,0.00
 089060,0.01751898,0.01277108,-0.01272264,0.00054817,-0.00018861,-0.000
 61089,0.00000548,0.00005275,0.00041288,0.00001497,-0.00014554,0.000045
 05,-0.00016802,-0.00004022,0.00010579,-0.00064420,-0.00189020,-0.00039
 710,0.00030115,0.00002345,-0.00022637,-0.00008990,0.00006336,0.0001083
 6,-0.00018935,-0.00001150,0.00017865,0.01300905,-0.03039419,-0.0054826
 0,-0.00299321,-0.00281347,0.00421311,0.00595487,-0.00053163,-0.0010143
 8,-0.00148726,0.01295739,0.03641315,-0.04372830,-0.01376966,0.01433052
 ,-0.01641073,0.00374271,0.00739089,0.00368534,0.00047272,-0.00106411,0
 .00038501,0.00014198,0.00009328,0.02287435,-0.00455311,0.00531851,0.00
 143973,-0.00033969,0.00076526,-0.00072990,0.00017934,-0.00014198,-0.00
 036425,0.00008150,0.00009088,-0.00005170,0.00002976,0.00017471,-0.0052
 9346,-0.00656735,-0.00656384,0.00109282,0.00053940,-0.00044477,0.00024
 235,0.00005592,0.00023735,-0.00247304,-0.00021417,0.00225984,-0.144770
 15,-0.04578506,0.06208297,-0.00862364,-0.00241923,0.01315786,-0.014462
 51,0.00263651,0.00779079,-0.08591985,0.08609800,0.00633160,0.29310793,
 -0.01540507,-0.01333663,0.00003583,0.02419740,0.00428099,-0.00162580,-
 0.00405258,0.00002809,0.00134436,-0.00433721,-0.00025195,-0.00075632,-
 0.03312695,-0.05036225,-0.01463880,0.00044700,0.00157402,0.00145226,0.
 00007323,0.00003990,-0.00084237,-0.00039440,0.00074483,-0.00024776,0.0
 0065879,-0.00001474,0.00033832,-0.00164569,0.00149244,0.00012001,-0.00
 089420,0.00079083,0.00094956,0.00028633,0.00010945,-0.00064589,0.00004
 323,0.00032835,-0.00013181,-0.00682490,-0.08610792,0.02638166,-0.01749
 240,-0.00229721,0.01013614,0.03092062,0.00150429,-0.01845498,0.0478763
 8,-0.19094020,0.01570081,-0.02032958,0.33241771,0.00031183,0.00154493,
 0.00974811,0.00764016,-0.00189450,0.00183874,-0.00063347,-0.00019116,0
 .00046831,-0.00184170,-0.00036923,-0.00039841,-0.00402678,-0.01724860,
 -0.00328777,-0.00079182,0.00081294,-0.00052289,-0.00136812,-0.00064813
 ,0.00105789,-0.00038815,0.00021136,0.00008631,-0.00055102,-0.00051597,
 0.00070752,-0.00155438,-0.00036155,-0.00026910,-0.00019471,0.00009303,
 -0.00007488,-0.00036638,-0.00060024,0.00034563,-0.00018482,-0.00024318
 ,0.00042489,0.05929341,0.03780659,-0.10721428,0.03864933,0.00630448,-0
 .02140106,0.00633166,-0.00065742,-0.00429859,0.01148475,-0.00492813,-0
 .02455981,-0.11180977,-0.01911521,0.14734937\\-0.00001220,-0.00000746,
 -0.00000218,-0.00000101,0.00001326,0.00000380,-0.00000648,-0.00000460,
 0.00000241,-0.00001432,-0.00000480,-0.00000614,0.00006037,0.00001657,0
 .00000526,-0.00000266,0.00000300,0.00000284,-0.00000064,-0.00000195,-0
 .00000060,0.00000101,0.00000018,0.00000004,-0.00000133,0.00000044,0.00
 000064,0.00000225,-0.00000427,0.00000258,-0.00000042,-0.00000063,-0.00
 000046,-0.00000001,-0.00000032,0.00000022,0.00000011,-0.00000112,0.000
 00021,0.00000277,0.00000045,-0.00000572,-0.00000151,0.00000242,0.00000
 192,0.00000255,0.00000143,-0.00000412,-0.00002776,-0.00001701,-0.00000
 611,-0.00000074,0.00000441,0.00000542\\\@


 ERROR IS A HARDY PLANT... IT FLOURISHETH IN EVERY SOIL.
            MARTIN FARQUHAR TUPPER
 Job cpu time:       0 days  0 hours  0 minutes 42.9 seconds.
 Elapsed time:       0 days  0 hours  6 minutes 29.6 seconds.
 File lengths (MBytes):  RWF=    345 Int=      0 D2E=      0 Chk=     16 Scr=      1
 Normal termination of Gaussian 16 at Tue Mar 29 18:18:48 2022.
