 Entering Gaussian System, Link 0=g16
 Initial command:
 /apps/chpc/chem/gaussian16/B01/g16/l1.exe "/mnt/lustre/users/kharejane/Tebello/4105872.sched01/Gau-139714.inp" -scrdir="/mnt/lustre/users/kharejane/Tebello/4105872.sched01/"
 Entering Link 1 = /apps/chpc/chem/gaussian16/B01/g16/l1.exe PID=    139716.
  
 Copyright (c) 1988-2017, Gaussian, Inc.  All Rights Reserved.
  
 This is part of the Gaussian(R) 16 program.  It is based on
 the Gaussian(R) 09 system (copyright 2009, Gaussian, Inc.),
 the Gaussian(R) 03 system (copyright 2003, Gaussian, Inc.),
 the Gaussian(R) 98 system (copyright 1998, Gaussian, Inc.),
 the Gaussian(R) 94 system (copyright 1995, Gaussian, Inc.),
 the Gaussian 92(TM) system (copyright 1992, Gaussian, Inc.),
 the Gaussian 90(TM) system (copyright 1990, Gaussian, Inc.),
 the Gaussian 88(TM) system (copyright 1988, Gaussian, Inc.),
 the Gaussian 86(TM) system (copyright 1986, Carnegie Mellon
 University), and the Gaussian 82(TM) system (copyright 1983,
 Carnegie Mellon University). Gaussian is a federally registered
 trademark of Gaussian, Inc.
  
 This software contains proprietary and confidential information,
 including trade secrets, belonging to Gaussian, Inc.
  
 This software is provided under written license and may be
 used, copied, transmitted, or stored only in accord with that
 written license.
  
 The following legend is applicable only to US Government
 contracts under FAR:
  
                    RESTRICTED RIGHTS LEGEND
  
 Use, reproduction and disclosure by the US Government is
 subject to restrictions as set forth in subparagraphs (a)
 and (c) of the Commercial Computer Software - Restricted
 Rights clause in FAR 52.227-19.
  
 Gaussian, Inc.
 340 Quinnipiac St., Bldg. 40, Wallingford CT 06492
  
  
 ---------------------------------------------------------------
 Warning -- This program may not be used in any manner that
 competes with the business of Gaussian, Inc. or will provide
 assistance to any competitor of Gaussian, Inc.  The licensee
 of this program is prohibited from giving any competitor of
 Gaussian, Inc. access to this program.  By using this program,
 the user acknowledges that Gaussian, Inc. is engaged in the
 business of creating and licensing software in the field of
 computational chemistry and represents and warrants to the
 licensee that it is not a competitor of Gaussian, Inc. and that
 it will not use this program in any manner prohibited above.
 ---------------------------------------------------------------
  

 Cite this work as:
 Gaussian 16, Revision B.01,
 M. J. Frisch, G. W. Trucks, H. B. Schlegel, G. E. Scuseria, 
 M. A. Robb, J. R. Cheeseman, G. Scalmani, V. Barone, 
 G. A. Petersson, H. Nakatsuji, X. Li, M. Caricato, A. V. Marenich, 
 J. Bloino, B. G. Janesko, R. Gomperts, B. Mennucci, H. P. Hratchian, 
 J. V. Ortiz, A. F. Izmaylov, J. L. Sonnenberg, D. Williams-Young, 
 F. Ding, F. Lipparini, F. Egidi, J. Goings, B. Peng, A. Petrone, 
 T. Henderson, D. Ranasinghe, V. G. Zakrzewski, J. Gao, N. Rega, 
 G. Zheng, W. Liang, M. Hada, M. Ehara, K. Toyota, R. Fukuda, 
 J. Hasegawa, M. Ishida, T. Nakajima, Y. Honda, O. Kitao, H. Nakai, 
 T. Vreven, K. Throssell, J. A. Montgomery, Jr., J. E. Peralta, 
 F. Ogliaro, M. J. Bearpark, J. J. Heyd, E. N. Brothers, K. N. Kudin, 
 V. N. Staroverov, T. A. Keith, R. Kobayashi, J. Normand, 
 K. Raghavachari, A. P. Rendell, J. C. Burant, S. S. Iyengar, 
 J. Tomasi, M. Cossi, J. M. Millam, M. Klene, C. Adamo, R. Cammi, 
 J. W. Ochterski, R. L. Martin, K. Morokuma, O. Farkas, 
 J. B. Foresman, and D. J. Fox, Gaussian, Inc., Wallingford CT, 2016.
 
 ******************************************
 Gaussian 16:  ES64L-G16RevB.01 20-Dec-2017
                 2-Apr-2022 
 ******************************************
 %nprocshared=24
 Will use up to   24 processors via shared memory.
 %lindaworkers=cnode0367.cm.cluster,cnode0397.cm.cluster
 %mem=20GB
 %chk=QOOHneop-OH-Elim-TS5-b3lyp-c-H.chk
 SetLPE:    new flags="-opt 'Tsnet.Node.lindarsharg: ssh'  -nodelist 'cnode0367.cm.cluster cnode0397.cm.cluster' -env GAUSS_MDEF=2684354560 -env GAUSS_EXEDIR="/apps/chpc/chem/gaussian16/B01/g16/bsd:/apps/chpc/chem/gaussian16/B01/g16""
 Will use up to    2 processors via Linda.
 ---------------------------------------------------
 # opt=(calcfc,ts,noeigentest) freq ub3lyp cc-pvtz+d
 ---------------------------------------------------
 1/5=1,10=4,11=1,18=20,26=3,38=1/1,3;
 2/9=110,12=2,17=6,18=5,40=1/2;
 3/5=16,6=1,7=9,11=2,25=1,30=1,71=2,74=-5,116=2,140=1/1,2,3;
 4//1;
 5/5=2,38=5/2;
 8/6=4,10=90,11=11/1;
 11/6=1,8=1,9=11,15=111,16=1/1,2,10;
 10/6=1,13=1/2;
 6/7=2,8=2,9=2,10=2,28=1/1;
 7/10=1,18=20,25=1/1,2,3,16;
 1/5=1,10=4,11=1,18=20,26=3/3(2);
 2/9=110/2;
 99//99;
 2/9=110/2;
 3/5=16,6=1,7=9,11=2,25=1,30=1,71=1,74=-5,116=2/1,2,3;
 4/5=5,16=3,69=1/1;
 5/5=2,38=5/2;
 7//1,2,3,16;
 1/5=1,11=1,18=20,26=3/3(-5);
 2/9=110/2;
 6/7=2,8=2,9=2,10=2,19=2,28=1/1;
 99/9=1/99;
 ------------------------------
 QOOHneop-OH-Elim-TS5-b3lyp-c-H
 ------------------------------
 Symbolic Z-matrix:
 Charge =  0 Multiplicity = 2
 C                     0.81439  -0.0241    0.04481 
 C                     0.03745   0.28693   1.13171 
 H                    -0.5257   -0.33988   1.81053 
 H                     0.4902    1.18484   1.52996 
 H                    -1.91961   1.00891   0.74081 
 C                     1.91023  -1.09134   0.30946 
 H                     1.51902  -1.90964   0.91505 
 H                     2.27071  -1.50766  -0.63462 
 H                     2.76127  -0.65601   0.83385 
 C                     1.40555   1.10029  -0.82042 
 H                     1.74796   0.71367  -1.78213 
 H                     0.66076   1.8729   -1.01489 
 H                     2.26028   1.56515  -0.32617 
 C                    -0.3665   -0.71072  -0.73372 
 H                    -0.56566  -0.17657  -1.66468 
 H                    -0.11029  -1.74406  -0.97631 
 O                    -2.35597   0.59526  -0.02484 
 O                    -1.25274  -0.61344   0.21594 
 

 GradGradGradGradGradGradGradGradGradGradGradGradGradGradGradGradGradGrad
 Berny optimization.
 Initialization pass.
                           ----------------------------
                           !    Initial Parameters    !
                           ! (Angstroms and Degrees)  !
 --------------------------                            --------------------------
 ! Name  Definition              Value          Derivative Info.                !
 --------------------------------------------------------------------------------
 ! R1    R(1,2)                  1.3718         calculate D2E/DX2 analytically  !
 ! R2    R(1,6)                  1.5524         calculate D2E/DX2 analytically  !
 ! R3    R(1,10)                 1.537          calculate D2E/DX2 analytically  !
 ! R4    R(1,14)                 1.5723         calculate D2E/DX2 analytically  !
 ! R5    R(2,3)                  1.082          calculate D2E/DX2 analytically  !
 ! R6    R(2,4)                  1.0816         calculate D2E/DX2 analytically  !
 ! R7    R(5,17)                 0.9735         calculate D2E/DX2 analytically  !
 ! R8    R(6,7)                  1.0906         calculate D2E/DX2 analytically  !
 ! R9    R(6,8)                  1.093          calculate D2E/DX2 analytically  !
 ! R10   R(6,9)                  1.0903         calculate D2E/DX2 analytically  !
 ! R11   R(10,11)                1.0916         calculate D2E/DX2 analytically  !
 ! R12   R(10,12)                1.0906         calculate D2E/DX2 analytically  !
 ! R13   R(10,13)                1.0913         calculate D2E/DX2 analytically  !
 ! R14   R(14,15)                1.0916         calculate D2E/DX2 analytically  !
 ! R15   R(14,16)                1.0919         calculate D2E/DX2 analytically  !
 ! R16   R(14,18)                1.3026         calculate D2E/DX2 analytically  !
 ! R17   R(17,18)                1.6541         calculate D2E/DX2 analytically  !
 ! A1    A(2,1,6)              114.8733         calculate D2E/DX2 analytically  !
 ! A2    A(2,1,10)             119.8687         calculate D2E/DX2 analytically  !
 ! A3    A(2,1,14)              93.7821         calculate D2E/DX2 analytically  !
 ! A4    A(6,1,10)             109.1106         calculate D2E/DX2 analytically  !
 ! A5    A(6,1,14)             108.3226         calculate D2E/DX2 analytically  !
 ! A6    A(10,1,14)            109.2446         calculate D2E/DX2 analytically  !
 ! A7    A(1,2,3)              131.3387         calculate D2E/DX2 analytically  !
 ! A8    A(1,2,4)              104.0569         calculate D2E/DX2 analytically  !
 ! A9    A(3,2,4)              117.8896         calculate D2E/DX2 analytically  !
 ! A10   A(1,6,7)              110.9336         calculate D2E/DX2 analytically  !
 ! A11   A(1,6,8)              110.3306         calculate D2E/DX2 analytically  !
 ! A12   A(1,6,9)              111.0079         calculate D2E/DX2 analytically  !
 ! A13   A(7,6,8)              108.1892         calculate D2E/DX2 analytically  !
 ! A14   A(7,6,9)              108.2099         calculate D2E/DX2 analytically  !
 ! A15   A(8,6,9)              108.0645         calculate D2E/DX2 analytically  !
 ! A16   A(1,10,11)            110.947          calculate D2E/DX2 analytically  !
 ! A17   A(1,10,12)            110.8525         calculate D2E/DX2 analytically  !
 ! A18   A(1,10,13)            110.9715         calculate D2E/DX2 analytically  !
 ! A19   A(11,10,12)           107.9398         calculate D2E/DX2 analytically  !
 ! A20   A(11,10,13)           107.7095         calculate D2E/DX2 analytically  !
 ! A21   A(12,10,13)           108.292          calculate D2E/DX2 analytically  !
 ! A22   A(1,14,15)            110.2199         calculate D2E/DX2 analytically  !
 ! A23   A(1,14,16)            110.3072         calculate D2E/DX2 analytically  !
 ! A24   A(1,14,18)             96.7411         calculate D2E/DX2 analytically  !
 ! A25   A(15,14,16)           108.4457         calculate D2E/DX2 analytically  !
 ! A26   A(15,14,18)           117.4564         calculate D2E/DX2 analytically  !
 ! A27   A(16,14,18)           113.0973         calculate D2E/DX2 analytically  !
 ! A28   A(5,17,18)             84.091          calculate D2E/DX2 analytically  !
 ! A29   A(14,18,17)           113.7179         calculate D2E/DX2 analytically  !
 ! D1    D(6,1,2,3)            -52.3989         calculate D2E/DX2 analytically  !
 ! D2    D(6,1,2,4)             97.2007         calculate D2E/DX2 analytically  !
 ! D3    D(10,1,2,3)           174.5697         calculate D2E/DX2 analytically  !
 ! D4    D(10,1,2,4)           -35.8306         calculate D2E/DX2 analytically  !
 ! D5    D(14,1,2,3)            59.8055         calculate D2E/DX2 analytically  !
 ! D6    D(14,1,2,4)          -150.5948         calculate D2E/DX2 analytically  !
 ! D7    D(2,1,6,7)             42.6439         calculate D2E/DX2 analytically  !
 ! D8    D(2,1,6,8)            162.522          calculate D2E/DX2 analytically  !
 ! D9    D(2,1,6,9)            -77.7079         calculate D2E/DX2 analytically  !
 ! D10   D(10,1,6,7)          -179.4892         calculate D2E/DX2 analytically  !
 ! D11   D(10,1,6,8)           -59.6111         calculate D2E/DX2 analytically  !
 ! D12   D(10,1,6,9)            60.159          calculate D2E/DX2 analytically  !
 ! D13   D(14,1,6,7)           -60.6602         calculate D2E/DX2 analytically  !
 ! D14   D(14,1,6,8)            59.2179         calculate D2E/DX2 analytically  !
 ! D15   D(14,1,6,9)           178.988          calculate D2E/DX2 analytically  !
 ! D16   D(2,1,10,11)         -163.8698         calculate D2E/DX2 analytically  !
 ! D17   D(2,1,10,12)          -43.9527         calculate D2E/DX2 analytically  !
 ! D18   D(2,1,10,13)           76.4242         calculate D2E/DX2 analytically  !
 ! D19   D(6,1,10,11)           60.7063         calculate D2E/DX2 analytically  !
 ! D20   D(6,1,10,12)         -179.3767         calculate D2E/DX2 analytically  !
 ! D21   D(6,1,10,13)          -58.9997         calculate D2E/DX2 analytically  !
 ! D22   D(14,1,10,11)         -57.5462         calculate D2E/DX2 analytically  !
 ! D23   D(14,1,10,12)          62.3709         calculate D2E/DX2 analytically  !
 ! D24   D(14,1,10,13)        -177.2522         calculate D2E/DX2 analytically  !
 ! D25   D(2,1,14,15)          117.9349         calculate D2E/DX2 analytically  !
 ! D26   D(2,1,14,16)         -122.3404         calculate D2E/DX2 analytically  !
 ! D27   D(2,1,14,18)           -4.6337         calculate D2E/DX2 analytically  !
 ! D28   D(6,1,14,15)         -124.2943         calculate D2E/DX2 analytically  !
 ! D29   D(6,1,14,16)           -4.5697         calculate D2E/DX2 analytically  !
 ! D30   D(6,1,14,18)          113.137          calculate D2E/DX2 analytically  !
 ! D31   D(10,1,14,15)          -5.5502         calculate D2E/DX2 analytically  !
 ! D32   D(10,1,14,16)         114.1745         calculate D2E/DX2 analytically  !
 ! D33   D(10,1,14,18)        -128.1188         calculate D2E/DX2 analytically  !
 ! D34   D(1,14,18,17)         103.1397         calculate D2E/DX2 analytically  !
 ! D35   D(15,14,18,17)        -13.8368         calculate D2E/DX2 analytically  !
 ! D36   D(16,14,18,17)       -141.3716         calculate D2E/DX2 analytically  !
 ! D37   D(5,17,18,14)        -112.0289         calculate D2E/DX2 analytically  !
 --------------------------------------------------------------------------------
 Trust Radius=3.00D-01 FncErr=1.00D-07 GrdErr=1.00D-06 EigMax=2.50D+02 EigMin=1.00D-04
 Number of steps in this run=     93 maximum allowed number of steps=    108.
 Search for a saddle point of order  1.
 GradGradGradGradGradGradGradGradGradGradGradGradGradGradGradGradGradGrad

                          Input orientation:                          
 ---------------------------------------------------------------------
 Center     Atomic      Atomic             Coordinates (Angstroms)
 Number     Number       Type             X           Y           Z
 ---------------------------------------------------------------------
      1          6           0        0.814386   -0.024098    0.044812
      2          6           0        0.037445    0.286925    1.131711
      3          1           0       -0.525702   -0.339877    1.810534
      4          1           0        0.490196    1.184835    1.529955
      5          1           0       -1.919608    1.008913    0.740814
      6          6           0        1.910226   -1.091341    0.309459
      7          1           0        1.519023   -1.909638    0.915053
      8          1           0        2.270708   -1.507656   -0.634618
      9          1           0        2.761267   -0.656013    0.833854
     10          6           0        1.405546    1.100292   -0.820423
     11          1           0        1.747960    0.713675   -1.782135
     12          1           0        0.660762    1.872904   -1.014895
     13          1           0        2.260276    1.565148   -0.326175
     14          6           0       -0.366499   -0.710722   -0.733721
     15          1           0       -0.565665   -0.176571   -1.664684
     16          1           0       -0.110286   -1.744064   -0.976307
     17          8           0       -2.355968    0.595262   -0.024836
     18          8           0       -1.252737   -0.613437    0.215941
 ---------------------------------------------------------------------
                    Distance matrix (angstroms):
                    1          2          3          4          5
     1  C    0.000000
     2  C    1.371759   0.000000
     3  H    2.239046   1.082042   0.000000
     4  H    1.942233   1.081584   1.853516   0.000000
     5  H    3.004373   2.122293   2.215065   2.541821   0.000000
     6  C    1.552389   2.466379   2.958322   2.947385   4.389165
     7  H    2.192965   2.658365   2.728908   3.318487   4.513589
     8  H    2.187108   3.365695   3.893891   3.886529   5.077764
     9  H    2.193684   2.897768   3.443546   3.005170   4.969027
    10  C    1.536995   2.518748   3.567315   2.523745   3.674570
    11  H    2.180276   3.405654   4.380272   3.574060   4.461333
    12  H    2.178347   2.740761   3.779834   2.641741   3.238411
    13  H    2.180351   2.949621   3.994536   2.592883   4.349632
    14  C    1.572277   2.153673   2.576064   3.074296   2.746552
    15  H    2.202309   2.897999   3.479282   3.629599   3.004156
    16  H    2.203630   2.930953   3.148142   3.901331   3.714974
    17  O    3.231038   2.676024   2.755530   3.296305   0.973518
    18  O    2.156294   1.820400   1.773737   2.828114   1.830909
                    6          7          8          9         10
     6  C    0.000000
     7  H    1.090593   0.000000
     8  H    1.092953   1.768644   0.000000
     9  H    1.090308   1.766731   1.767018   0.000000
    10  C    2.516861   3.476267   2.753983   2.767529   0.000000
    11  H    2.767522   3.769484   2.554285   3.121896   1.091609
    12  H    3.478767   4.332313   3.763605   3.771659   1.090620
    13  H    2.753815   3.763541   3.088263   2.555429   1.091300
    14  C    2.533095   2.776877   2.756771   3.499029   2.535238
    15  H    3.296071   3.742257   3.298156   4.188202   2.495762
    16  H    2.482279   2.501860   2.416976   3.564597   3.226826
    17  O    4.599652   4.708872   5.118617   5.337522   3.877758
    18  O    3.200230   3.138718   3.733329   4.061509   3.328270
                   11         12         13         14         15
    11  H    0.000000
    12  H    1.764786   0.000000
    13  H    1.762752   1.768472   0.000000
    14  C    2.756631   2.794539   3.499375   0.000000
    15  H    2.481772   2.475216   3.579264   1.091639   0.000000
    16  H    3.184795   3.698440   4.122271   1.091920   1.771516
    17  O    4.465910   3.422462   4.726648   2.483164   2.547550
    18  O    3.841577   3.370211   4.169098   1.302590   2.049309
                   16         17         18
    16  H    0.000000
    17  O    3.379472   0.000000
    18  O    2.001242   1.654100   0.000000
 Stoichiometry    C5H11O2(2)
 Framework group  C1[X(C5H11O2)]
 Deg. of freedom    48
 Full point group                 C1      NOp   1
 Largest Abelian subgroup         C1      NOp   1
 Largest concise Abelian subgroup C1      NOp   1
                         Standard orientation:                         
 ---------------------------------------------------------------------
 Center     Atomic      Atomic             Coordinates (Angstroms)
 Number     Number       Type             X           Y           Z
 ---------------------------------------------------------------------
      1          6           0        0.759188    0.068761    0.117256
      2          6           0       -0.108336   -0.158222    1.155333
      3          1           0       -0.635125   -1.051477    1.464209
      4          1           0        0.217211    0.528699    1.924737
      5          1           0       -2.108738    0.503067    0.899966
      6          6           0        1.951235   -0.922193    0.033931
      7          1           0        1.620713   -1.945484    0.215657
      8          1           0        2.409335   -0.882633   -0.957596
      9          1           0        2.716732   -0.675580    0.770116
     10          6           0        1.268424    1.492716   -0.157308
     11          1           0        1.706264    1.565067   -1.154640
     12          1           0        0.453770    2.215136   -0.094858
     13          1           0        2.035975    1.778845    0.563755
     14          6           0       -0.290820   -0.327424   -0.983914
     15          1           0       -0.495514    0.525167   -1.634195
     16          1           0        0.093323   -1.145210   -1.597061
     17          8           0       -2.451577    0.408383   -0.006254
     18          8           0       -1.234935   -0.700561   -0.167731
 ---------------------------------------------------------------------
 Rotational constants (GHZ):           4.5228552           1.9056315           1.7459146
 Standard basis: CC-pVTZ+d (5D, 7F)
 There are   410 symmetry adapted cartesian basis functions of A   symmetry.
 There are   364 symmetry adapted basis functions of A   symmetry.
   364 basis functions,   551 primitive gaussians,   410 cartesian basis functions
    29 alpha electrons       28 beta electrons
       nuclear repulsion energy       342.6967234405 Hartrees.
 NAtoms=   18 NActive=   18 NUniq=   18 SFac= 1.00D+00 NAtFMM=   60 NAOKFM=F Big=F
 Integral buffers will be    131072 words long.
 Raffenetti 2 integral format.
 Two-electron integral symmetry is turned on.
 One-electron integrals computed using PRISM.
 NBasis=   364 RedAO= T EigKep=  2.51D-04  NBF=   364
 NBsUse=   364 1.00D-06 EigRej= -1.00D+00 NBFU=   364
 ExpMin= 1.03D-01 ExpMax= 1.53D+04 ExpMxC= 5.22D+02 IAcc=3 IRadAn=         5 AccDes= 0.00D+00
 Harris functional with IExCor=  402 and IRadAn=       5 diagonalized for initial guess.
 HarFok:  IExCor=  402 AccDes= 0.00D+00 IRadAn=         5 IDoV= 1 UseB2=F ITyADJ=14
 ICtDFT=  3500011 ScaDFX=  1.000000  1.000000  1.000000  1.000000
 FoFCou: FMM=F IPFlag=           0 FMFlag=      100000 FMFlg1=           0
         NFxFlg=           0 DoJE=T BraDBF=F KetDBF=T FulRan=T
         wScrn=  0.000000 ICntrl=       500 IOpCl=  0 I1Cent=   200000004 NGrid=           0
         NMat0=    1 NMatS0=      1 NMatT0=    0 NMatD0=    1 NMtDS0=    0 NMtDT0=    0
 Petite list used in FoFCou.
 Initial guess <Sx>= 0.0000 <Sy>= 0.0000 <Sz>= 0.5000 <S**2>= 0.7500 S= 0.5000
 Requested convergence on RMS density matrix=1.00D-08 within 128 cycles.
 Requested convergence on MAX density matrix=1.00D-06.
 Requested convergence on             energy=1.00D-06.
 No special actions if energy rises.
 Integral accuracy reduced to 1.0D-05 until final iterations.
 Initial convergence to 1.0D-05 achieved.  Increase integral accuracy.
 SCF Done:  E(UB3LYP) =  -347.439227807     A.U. after   22 cycles
            NFock= 22  Conv=0.53D-08     -V/T= 2.0041
 <Sx>= 0.0000 <Sy>= 0.0000 <Sz>= 0.5000 <S**2>= 0.7650 S= 0.5075
 <L.S>= 0.000000000000E+00
 Annihilation of the first spin contaminant:
 S**2 before annihilation     0.7650,   after     0.7501
 DoSCS=F DFT=T ScalE2(SS,OS)=  1.000000  1.000000
 Range of M.O.s used for correlation:     1   364
 NBasis=   364 NAE=    29 NBE=    28 NFC=     0 NFV=     0
 NROrb=    364 NOA=    29 NOB=    28 NVA=   335 NVB=   336

 **** Warning!!: The largest alpha MO coefficient is  0.12447927D+02


 **** Warning!!: The smallest alpha delta epsilon is  0.91484395D-01


 **** Warning!!: The largest beta MO coefficient is  0.12169028D+02

 Symmetrizing basis deriv contribution to polar:
 IMax=3 JMax=2 DiffMx= 0.00D+00
 G2DrvN: will do    19 centers at a time, making    1 passes.
 Calling FoFCou, ICntrl=  3107 FMM=F I1Cent=   0 AccDes= 0.00D+00.
 End of G2Drv F.D. properties file   721 does not exist.
 End of G2Drv F.D. properties file   722 does not exist.
 End of G2Drv F.D. properties file   788 does not exist.
          IDoAtm=111111111111111111
          Differentiating once with respect to nuclear coordinates.
 CalDSu exits because no D1Ps are significant.
          There are    57 degrees of freedom in the 1st order CPHF.  IDoFFX=6 NUNeed=     0.
     51 vectors produced by pass  0 Test12= 3.35D-14 1.75D-09 XBig12= 2.64D-01 2.44D-01.
 AX will form    51 AO Fock derivatives at one time.
     51 vectors produced by pass  1 Test12= 3.35D-14 1.75D-09 XBig12= 3.90D-02 2.69D-02.
     51 vectors produced by pass  2 Test12= 3.35D-14 1.75D-09 XBig12= 6.62D-04 3.84D-03.
     51 vectors produced by pass  3 Test12= 3.35D-14 1.75D-09 XBig12= 6.39D-06 2.75D-04.
     51 vectors produced by pass  4 Test12= 3.35D-14 1.75D-09 XBig12= 7.96D-08 2.88D-05.
     51 vectors produced by pass  5 Test12= 3.35D-14 1.75D-09 XBig12= 6.48D-10 2.19D-06.
     39 vectors produced by pass  6 Test12= 3.35D-14 1.75D-09 XBig12= 3.71D-12 1.77D-07.
      8 vectors produced by pass  7 Test12= 3.35D-14 1.75D-09 XBig12= 1.23D-14 1.10D-08.
 InvSVY:  IOpt=1 It=  1 EMax= 1.05D-15
 Solved reduced A of dimension   353 with    57 vectors.
 End of Minotr F.D. properties file   721 does not exist.
 End of Minotr F.D. properties file   722 does not exist.
 End of Minotr F.D. properties file   788 does not exist.

 **********************************************************************

            Population analysis using the SCF Density.

 **********************************************************************

 Orbital symmetries:
 Alpha Orbitals:
       Occupied  (A) (A) (A) (A) (A) (A) (A) (A) (A) (A) (A) (A)
                 (A) (A) (A) (A) (A) (A) (A) (A) (A) (A) (A) (A)
                 (A) (A) (A) (A) (A)
       Virtual   (A) (A) (A) (A) (A) (A) (A) (A) (A) (A) (A) (A)
                 (A) (A) (A) (A) (A) (A) (A) (A) (A) (A) (A) (A)
                 (A) (A) (A) (A) (A) (A) (A) (A) (A) (A) (A) (A)
                 (A) (A) (A) (A) (A) (A) (A) (A) (A) (A) (A) (A)
                 (A) (A) (A) (A) (A) (A) (A) (A) (A) (A) (A) (A)
                 (A) (A) (A) (A) (A) (A) (A) (A) (A) (A) (A) (A)
                 (A) (A) (A) (A) (A) (A) (A) (A) (A) (A) (A) (A)
                 (A) (A) (A) (A) (A) (A) (A) (A) (A) (A) (A) (A)
                 (A) (A) (A) (A) (A) (A) (A) (A) (A) (A) (A) (A)
                 (A) (A) (A) (A) (A) (A) (A) (A) (A) (A) (A) (A)
                 (A) (A) (A) (A) (A) (A) (A) (A) (A) (A) (A) (A)
                 (A) (A) (A) (A) (A) (A) (A) (A) (A) (A) (A) (A)
                 (A) (A) (A) (A) (A) (A) (A) (A) (A) (A) (A) (A)
                 (A) (A) (A) (A) (A) (A) (A) (A) (A) (A) (A) (A)
                 (A) (A) (A) (A) (A) (A) (A) (A) (A) (A) (A) (A)
                 (A) (A) (A) (A) (A) (A) (A) (A) (A) (A) (A) (A)
                 (A) (A) (A) (A) (A) (A) (A) (A) (A) (A) (A) (A)
                 (A) (A) (A) (A) (A) (A) (A) (A) (A) (A) (A) (A)
                 (A) (A) (A) (A) (A) (A) (A) (A) (A) (A) (A) (A)
                 (A) (A) (A) (A) (A) (A) (A) (A) (A) (A) (A) (A)
                 (A) (A) (A) (A) (A) (A) (A) (A) (A) (A) (A) (A)
                 (A) (A) (A) (A) (A) (A) (A) (A) (A) (A) (A) (A)
                 (A) (A) (A) (A) (A) (A) (A) (A) (A) (A) (A) (A)
                 (A) (A) (A) (A) (A) (A) (A) (A) (A) (A) (A) (A)
                 (A) (A) (A) (A) (A) (A) (A) (A) (A) (A) (A) (A)
                 (A) (A) (A) (A) (A) (A) (A) (A) (A) (A) (A) (A)
                 (A) (A) (A) (A) (A) (A) (A) (A) (A) (A) (A) (A)
                 (A) (A) (A) (A) (A) (A) (A) (A) (A) (A) (A)
 Beta  Orbitals:
       Occupied  (A) (A) (A) (A) (A) (A) (A) (A) (A) (A) (A) (A)
                 (A) (A) (A) (A) (A) (A) (A) (A) (A) (A) (A) (A)
                 (A) (A) (A) (A)
       Virtual   (A) (A) (A) (A) (A) (A) (A) (A) (A) (A) (A) (A)
                 (A) (A) (A) (A) (A) (A) (A) (A) (A) (A) (A) (A)
                 (A) (A) (A) (A) (A) (A) (A) (A) (A) (A) (A) (A)
                 (A) (A) (A) (A) (A) (A) (A) (A) (A) (A) (A) (A)
                 (A) (A) (A) (A) (A) (A) (A) (A) (A) (A) (A) (A)
                 (A) (A) (A) (A) (A) (A) (A) (A) (A) (A) (A) (A)
                 (A) (A) (A) (A) (A) (A) (A) (A) (A) (A) (A) (A)
                 (A) (A) (A) (A) (A) (A) (A) (A) (A) (A) (A) (A)
                 (A) (A) (A) (A) (A) (A) (A) (A) (A) (A) (A) (A)
                 (A) (A) (A) (A) (A) (A) (A) (A) (A) (A) (A) (A)
                 (A) (A) (A) (A) (A) (A) (A) (A) (A) (A) (A) (A)
                 (A) (A) (A) (A) (A) (A) (A) (A) (A) (A) (A) (A)
                 (A) (A) (A) (A) (A) (A) (A) (A) (A) (A) (A) (A)
                 (A) (A) (A) (A) (A) (A) (A) (A) (A) (A) (A) (A)
                 (A) (A) (A) (A) (A) (A) (A) (A) (A) (A) (A) (A)
                 (A) (A) (A) (A) (A) (A) (A) (A) (A) (A) (A) (A)
                 (A) (A) (A) (A) (A) (A) (A) (A) (A) (A) (A) (A)
                 (A) (A) (A) (A) (A) (A) (A) (A) (A) (A) (A) (A)
                 (A) (A) (A) (A) (A) (A) (A) (A) (A) (A) (A) (A)
                 (A) (A) (A) (A) (A) (A) (A) (A) (A) (A) (A) (A)
                 (A) (A) (A) (A) (A) (A) (A) (A) (A) (A) (A) (A)
                 (A) (A) (A) (A) (A) (A) (A) (A) (A) (A) (A) (A)
                 (A) (A) (A) (A) (A) (A) (A) (A) (A) (A) (A) (A)
                 (A) (A) (A) (A) (A) (A) (A) (A) (A) (A) (A) (A)
                 (A) (A) (A) (A) (A) (A) (A) (A) (A) (A) (A) (A)
                 (A) (A) (A) (A) (A) (A) (A) (A) (A) (A) (A) (A)
                 (A) (A) (A) (A) (A) (A) (A) (A) (A) (A) (A) (A)
                 (A) (A) (A) (A) (A) (A) (A) (A) (A) (A) (A) (A)
 The electronic state is 2-A.
 Alpha  occ. eigenvalues --  -19.19580 -19.17785 -10.22180 -10.18204 -10.17939
 Alpha  occ. eigenvalues --  -10.17169 -10.17099  -1.11799  -0.97120  -0.83319
 Alpha  occ. eigenvalues --   -0.71430  -0.69833  -0.66918  -0.54155  -0.54032
 Alpha  occ. eigenvalues --   -0.51558  -0.50044  -0.45997  -0.44102  -0.42593
 Alpha  occ. eigenvalues --   -0.40956  -0.40094  -0.37897  -0.36157  -0.34887
 Alpha  occ. eigenvalues --   -0.31984  -0.30660  -0.26903  -0.18913
 Alpha virt. eigenvalues --   -0.09765   0.02738   0.06187   0.06942   0.07815
 Alpha virt. eigenvalues --    0.08575   0.09022   0.09688   0.11457   0.11898
 Alpha virt. eigenvalues --    0.13915   0.14439   0.15566   0.16215   0.18337
 Alpha virt. eigenvalues --    0.19792   0.21828   0.26251   0.27415   0.29642
 Alpha virt. eigenvalues --    0.30523   0.31477   0.33646   0.35192   0.36393
 Alpha virt. eigenvalues --    0.37980   0.39199   0.40725   0.41927   0.43245
 Alpha virt. eigenvalues --    0.43652   0.44093   0.44610   0.45215   0.45645
 Alpha virt. eigenvalues --    0.46102   0.46500   0.48122   0.49098   0.49736
 Alpha virt. eigenvalues --    0.51207   0.53972   0.54469   0.54989   0.57945
 Alpha virt. eigenvalues --    0.59591   0.61030   0.63309   0.65389   0.68145
 Alpha virt. eigenvalues --    0.70929   0.73308   0.74651   0.76741   0.77467
 Alpha virt. eigenvalues --    0.80295   0.80955   0.84107   0.85135   0.87124
 Alpha virt. eigenvalues --    0.89458   0.90252   0.92938   0.93209   0.95326
 Alpha virt. eigenvalues --    0.96474   0.96847   0.98606   0.99475   1.00764
 Alpha virt. eigenvalues --    1.02299   1.04040   1.05217   1.07349   1.08580
 Alpha virt. eigenvalues --    1.10660   1.12578   1.14241   1.14977   1.15878
 Alpha virt. eigenvalues --    1.18223   1.19038   1.19857   1.22199   1.23459
 Alpha virt. eigenvalues --    1.24562   1.25303   1.25454   1.27888   1.29475
 Alpha virt. eigenvalues --    1.30039   1.31475   1.32910   1.33430   1.34477
 Alpha virt. eigenvalues --    1.39136   1.40416   1.42559   1.43139   1.43446
 Alpha virt. eigenvalues --    1.47090   1.48756   1.49387   1.50469   1.51801
 Alpha virt. eigenvalues --    1.52224   1.53975   1.58815   1.59818   1.62214
 Alpha virt. eigenvalues --    1.64775   1.67882   1.68885   1.73571   1.77214
 Alpha virt. eigenvalues --    1.79161   1.83281   1.88168   1.96203   1.98473
 Alpha virt. eigenvalues --    2.00318   2.03991   2.12106   2.18764   2.21012
 Alpha virt. eigenvalues --    2.27968   2.28745   2.28928   2.33547   2.37997
 Alpha virt. eigenvalues --    2.39235   2.41702   2.45533   2.47805   2.50289
 Alpha virt. eigenvalues --    2.51094   2.53585   2.56480   2.58766   2.58973
 Alpha virt. eigenvalues --    2.60813   2.63092   2.64682   2.68202   2.69947
 Alpha virt. eigenvalues --    2.71210   2.73697   2.74795   2.78973   2.79439
 Alpha virt. eigenvalues --    2.79953   2.82003   2.83920   2.84542   2.90139
 Alpha virt. eigenvalues --    2.91024   2.94401   2.95396   2.96197   2.97280
 Alpha virt. eigenvalues --    2.99595   2.99938   3.01225   3.02027   3.04134
 Alpha virt. eigenvalues --    3.05478   3.05787   3.05964   3.07635   3.10021
 Alpha virt. eigenvalues --    3.11339   3.12131   3.14123   3.14950   3.16164
 Alpha virt. eigenvalues --    3.17290   3.19458   3.21533   3.23607   3.26522
 Alpha virt. eigenvalues --    3.28733   3.29663   3.30865   3.32406   3.32858
 Alpha virt. eigenvalues --    3.35164   3.36741   3.38289   3.38781   3.40199
 Alpha virt. eigenvalues --    3.42463   3.44215   3.45629   3.47009   3.47974
 Alpha virt. eigenvalues --    3.50574   3.51098   3.52534   3.53216   3.55433
 Alpha virt. eigenvalues --    3.56046   3.59434   3.59842   3.62399   3.63873
 Alpha virt. eigenvalues --    3.64551   3.65864   3.68064   3.71897   3.73355
 Alpha virt. eigenvalues --    3.75098   3.76804   3.78288   3.79040   3.82005
 Alpha virt. eigenvalues --    3.84033   3.86622   3.86973   3.89628   3.93032
 Alpha virt. eigenvalues --    3.93826   3.94757   3.97698   3.98398   3.99515
 Alpha virt. eigenvalues --    4.00667   4.03425   4.04011   4.05219   4.06740
 Alpha virt. eigenvalues --    4.07709   4.07957   4.11029   4.11868   4.14137
 Alpha virt. eigenvalues --    4.14699   4.16544   4.17321   4.17810   4.20929
 Alpha virt. eigenvalues --    4.21591   4.22908   4.24744   4.25126   4.26845
 Alpha virt. eigenvalues --    4.27891   4.32035   4.34273   4.34705   4.37577
 Alpha virt. eigenvalues --    4.38350   4.43322   4.46434   4.47276   4.49140
 Alpha virt. eigenvalues --    4.51912   4.53692   4.59727   4.60575   4.64529
 Alpha virt. eigenvalues --    4.69565   4.71443   4.74866   4.77072   4.79233
 Alpha virt. eigenvalues --    4.80682   4.81761   4.85354   4.87696   4.88265
 Alpha virt. eigenvalues --    4.89756   4.92723   4.95415   4.96881   4.98962
 Alpha virt. eigenvalues --    5.01553   5.06348   5.07171   5.09479   5.12590
 Alpha virt. eigenvalues --    5.15202   5.17094   5.19462   5.21558   5.22122
 Alpha virt. eigenvalues --    5.22831   5.24347   5.26318   5.28827   5.29923
 Alpha virt. eigenvalues --    5.33476   5.36464   5.38064   5.38585   5.41516
 Alpha virt. eigenvalues --    5.41608   5.43185   5.47535   5.53049   5.55947
 Alpha virt. eigenvalues --    5.58118   5.63980   5.67157   5.75574   5.85226
 Alpha virt. eigenvalues --    5.86956   5.92069   5.93957   5.94684   5.96115
 Alpha virt. eigenvalues --    5.98615   6.02045   6.17827   6.25753   6.35573
 Alpha virt. eigenvalues --    6.36294   6.40929   6.51174   6.60363   6.63374
 Alpha virt. eigenvalues --    6.69442   6.84315   6.92255   6.96526   7.06012
 Alpha virt. eigenvalues --    7.17482   7.21825   7.60931  10.80472  11.21033
 Alpha virt. eigenvalues --   11.70249  13.40048  13.52430  13.83665  14.23547
  Beta  occ. eigenvalues --  -19.19254 -19.17483 -10.22124 -10.18242 -10.17071
  Beta  occ. eigenvalues --  -10.17065 -10.16782  -1.11053  -0.96334  -0.82550
  Beta  occ. eigenvalues --   -0.69960  -0.69486  -0.66719  -0.53474  -0.52668
  Beta  occ. eigenvalues --   -0.51269  -0.49554  -0.45637  -0.43799  -0.42257
  Beta  occ. eigenvalues --   -0.40542  -0.39885  -0.37487  -0.35849  -0.34429
  Beta  occ. eigenvalues --   -0.31620  -0.29919  -0.25925
  Beta virt. eigenvalues --   -0.09023  -0.06158   0.02836   0.06728   0.07099
  Beta virt. eigenvalues --    0.08000   0.08773   0.09204   0.09806   0.11535
  Beta virt. eigenvalues --    0.12308   0.14070   0.14599   0.15747   0.16689
  Beta virt. eigenvalues --    0.18619   0.20104   0.21938   0.26514   0.27640
  Beta virt. eigenvalues --    0.30096   0.30987   0.31933   0.34244   0.35939
  Beta virt. eigenvalues --    0.36926   0.38246   0.39760   0.41034   0.42296
  Beta virt. eigenvalues --    0.43399   0.43782   0.44314   0.44874   0.45375
  Beta virt. eigenvalues --    0.46089   0.46562   0.46762   0.48262   0.49191
  Beta virt. eigenvalues --    0.50080   0.51493   0.54469   0.54951   0.55292
  Beta virt. eigenvalues --    0.58325   0.59811   0.61392   0.63918   0.65721
  Beta virt. eigenvalues --    0.68588   0.71274   0.73486   0.75018   0.76981
  Beta virt. eigenvalues --    0.77742   0.80598   0.81268   0.84428   0.85362
  Beta virt. eigenvalues --    0.87431   0.89884   0.90588   0.93160   0.93346
  Beta virt. eigenvalues --    0.95551   0.96677   0.96989   0.98981   0.99565
  Beta virt. eigenvalues --    1.01153   1.02608   1.04272   1.05493   1.07754
  Beta virt. eigenvalues --    1.08757   1.11100   1.12902   1.14767   1.15327
  Beta virt. eigenvalues --    1.16060   1.18564   1.19425   1.20315   1.22627
  Beta virt. eigenvalues --    1.23805   1.24780   1.25485   1.25642   1.28162
  Beta virt. eigenvalues --    1.29953   1.30508   1.31734   1.33142   1.33919
  Beta virt. eigenvalues --    1.34744   1.39480   1.40696   1.42909   1.43289
  Beta virt. eigenvalues --    1.43750   1.47427   1.49120   1.49580   1.50653
  Beta virt. eigenvalues --    1.52243   1.52393   1.54611   1.59404   1.60167
  Beta virt. eigenvalues --    1.62599   1.65170   1.68079   1.69440   1.73852
  Beta virt. eigenvalues --    1.77572   1.79404   1.83734   1.88994   1.96717
  Beta virt. eigenvalues --    1.98855   2.00889   2.04544   2.12198   2.19610
  Beta virt. eigenvalues --    2.21324   2.28223   2.29289   2.29725   2.33806
  Beta virt. eigenvalues --    2.38492   2.39837   2.41978   2.46046   2.48249
  Beta virt. eigenvalues --    2.50876   2.52010   2.54159   2.56803   2.59101
  Beta virt. eigenvalues --    2.59800   2.61459   2.63633   2.65444   2.68520
  Beta virt. eigenvalues --    2.70730   2.71556   2.74464   2.75303   2.79125
  Beta virt. eigenvalues --    2.79688   2.80280   2.82199   2.84212   2.85097
  Beta virt. eigenvalues --    2.91234   2.91987   2.94867   2.95994   2.96623
  Beta virt. eigenvalues --    2.97508   2.99985   3.00240   3.01617   3.02996
  Beta virt. eigenvalues --    3.04621   3.05765   3.06349   3.06449   3.08477
  Beta virt. eigenvalues --    3.10673   3.11704   3.12312   3.14447   3.15387
  Beta virt. eigenvalues --    3.16718   3.17884   3.19865   3.22055   3.24173
  Beta virt. eigenvalues --    3.26950   3.29554   3.30100   3.31173   3.32647
  Beta virt. eigenvalues --    3.33165   3.35616   3.36961   3.39002   3.39258
  Beta virt. eigenvalues --    3.40548   3.42657   3.44666   3.45892   3.47351
  Beta virt. eigenvalues --    3.48586   3.50986   3.51358   3.52754   3.53393
  Beta virt. eigenvalues --    3.55733   3.56233   3.59649   3.60394   3.62598
  Beta virt. eigenvalues --    3.64174   3.64804   3.66034   3.68339   3.72180
  Beta virt. eigenvalues --    3.73613   3.75456   3.77403   3.78546   3.79344
  Beta virt. eigenvalues --    3.82243   3.84221   3.86969   3.87494   3.89943
  Beta virt. eigenvalues --    3.93184   3.94197   3.94905   3.98006   3.98738
  Beta virt. eigenvalues --    3.99749   4.00882   4.03670   4.04220   4.05329
  Beta virt. eigenvalues --    4.06951   4.07823   4.08105   4.11222   4.12073
  Beta virt. eigenvalues --    4.14275   4.14794   4.16628   4.17480   4.18067
  Beta virt. eigenvalues --    4.21059   4.21819   4.23128   4.25034   4.25523
  Beta virt. eigenvalues --    4.27065   4.28157   4.32343   4.34414   4.34904
  Beta virt. eigenvalues --    4.37798   4.38588   4.43697   4.46828   4.47574
  Beta virt. eigenvalues --    4.49329   4.52278   4.54033   4.60074   4.60838
  Beta virt. eigenvalues --    4.65105   4.69832   4.71883   4.75012   4.77675
  Beta virt. eigenvalues --    4.79462   4.81050   4.81896   4.85556   4.87950
  Beta virt. eigenvalues --    4.88523   4.90166   4.93082   4.95836   4.97347
  Beta virt. eigenvalues --    4.99339   5.01876   5.06609   5.07403   5.09769
  Beta virt. eigenvalues --    5.12926   5.15520   5.17411   5.19746   5.21962
  Beta virt. eigenvalues --    5.22404   5.23030   5.24667   5.26640   5.28995
  Beta virt. eigenvalues --    5.30308   5.33786   5.36705   5.38162   5.38885
  Beta virt. eigenvalues --    5.41672   5.42031   5.43548   5.47772   5.53360
  Beta virt. eigenvalues --    5.56287   5.58537   5.64729   5.67719   5.75914
  Beta virt. eigenvalues --    5.85701   5.87309   5.92247   5.94178   5.94850
  Beta virt. eigenvalues --    5.96495   5.98824   6.02400   6.18013   6.26612
  Beta virt. eigenvalues --    6.36092   6.36634   6.41490   6.51631   6.61006
  Beta virt. eigenvalues --    6.63554   6.70036   6.84720   6.92835   6.96943
  Beta virt. eigenvalues --    7.07137   7.18018   7.22827   7.61575  10.80765
  Beta virt. eigenvalues --   11.21411  11.70656  13.40206  13.52659  13.83799
  Beta virt. eigenvalues --   14.24529
          Condensed to atoms (all electrons):
               1          2          3          4          5          6
     1  C    5.258953   0.336695   0.008833  -0.126885   0.013078   0.353376
     2  C    0.336695   5.447070   0.430857   0.367251   0.056852  -0.089882
     3  H    0.008833   0.430857   0.571047  -0.048035   0.000673  -0.012476
     4  H   -0.126885   0.367251  -0.048035   0.701285  -0.005610   0.000715
     5  H    0.013078   0.056852   0.000673  -0.005610   0.460003   0.000939
     6  C    0.353376  -0.089882  -0.012476   0.000715   0.000939   4.981601
     7  H   -0.035187  -0.000119   0.002382   0.000278  -0.000101   0.390185
     8  H   -0.038183   0.011530   0.000301  -0.000466  -0.000085   0.389977
     9  H   -0.034552   0.001020   0.001041   0.001897  -0.000077   0.389868
    10  C    0.360422  -0.066317   0.005933  -0.017282  -0.001113  -0.060076
    11  H   -0.035319   0.007523  -0.000373  -0.000089   0.000021  -0.004052
    12  H   -0.032200   0.007877  -0.000664  -0.000445   0.000983   0.010435
    13  H   -0.034986  -0.002745   0.000357   0.005742   0.000047  -0.008094
    14  C    0.197512  -0.117595  -0.010032   0.035562  -0.012084  -0.063345
    15  H   -0.067184   0.013101  -0.001000   0.001491   0.000209   0.002341
    16  H   -0.067364   0.009677  -0.003058  -0.001313  -0.001025   0.004542
    17  O    0.004372  -0.068407   0.004024   0.000342   0.299777  -0.000524
    18  O   -0.206709  -0.012786  -0.077857   0.019424  -0.023361   0.008543
               7          8          9         10         11         12
     1  C   -0.035187  -0.038183  -0.034552   0.360422  -0.035319  -0.032200
     2  C   -0.000119   0.011530   0.001020  -0.066317   0.007523   0.007877
     3  H    0.002382   0.000301   0.001041   0.005933  -0.000373  -0.000664
     4  H    0.000278  -0.000466   0.001897  -0.017282  -0.000089  -0.000445
     5  H   -0.000101  -0.000085  -0.000077  -0.001113   0.000021   0.000983
     6  C    0.390185   0.389977   0.389868  -0.060076  -0.004052   0.010435
     7  H    0.592918  -0.028740  -0.027336   0.008689  -0.000037  -0.000577
     8  H   -0.028740   0.612373  -0.030273  -0.003763   0.002338  -0.000417
     9  H   -0.027336  -0.030273   0.599853  -0.006494  -0.000606  -0.000210
    10  C    0.008689  -0.003763  -0.006494   4.954118   0.407502   0.380951
    11  H   -0.000037   0.002338  -0.000606   0.407502   0.594824  -0.029490
    12  H   -0.000577  -0.000417  -0.000210   0.380951  -0.029490   0.599895
    13  H   -0.000129  -0.000329   0.005249   0.391686  -0.033269  -0.028944
    14  C    0.000049  -0.004616   0.009124  -0.045382  -0.007071  -0.009462
    15  H    0.000029   0.000844  -0.000505  -0.012184   0.001496   0.002835
    16  H    0.001542   0.000936  -0.000301   0.006145   0.001326   0.000343
    17  O    0.000039   0.000060   0.000042  -0.002615  -0.000195   0.004517
    18  O    0.001809   0.000221  -0.000506   0.006923   0.000249   0.000323
              13         14         15         16         17         18
     1  C   -0.034986   0.197512  -0.067184  -0.067364   0.004372  -0.206709
     2  C   -0.002745  -0.117595   0.013101   0.009677  -0.068407  -0.012786
     3  H    0.000357  -0.010032  -0.001000  -0.003058   0.004024  -0.077857
     4  H    0.005742   0.035562   0.001491  -0.001313   0.000342   0.019424
     5  H    0.000047  -0.012084   0.000209  -0.001025   0.299777  -0.023361
     6  C   -0.008094  -0.063345   0.002341   0.004542  -0.000524   0.008543
     7  H   -0.000129   0.000049   0.000029   0.001542   0.000039   0.001809
     8  H   -0.000329  -0.004616   0.000844   0.000936   0.000060   0.000221
     9  H    0.005249   0.009124  -0.000505  -0.000301   0.000042  -0.000506
    10  C    0.391686  -0.045382  -0.012184   0.006145  -0.002615   0.006923
    11  H   -0.033269  -0.007071   0.001496   0.001326  -0.000195   0.000249
    12  H   -0.028944  -0.009462   0.002835   0.000343   0.004517   0.000323
    13  H    0.609542   0.008493   0.000307  -0.000959   0.000051  -0.000945
    14  C    0.008493   4.819636   0.416624   0.397132  -0.008946   0.352757
    15  H    0.000307   0.416624   0.627326  -0.043228  -0.001109  -0.025566
    16  H   -0.000959   0.397132  -0.043228   0.645866   0.003213  -0.029114
    17  O    0.000051  -0.008946  -0.001109   0.003213   7.930129   0.077271
    18  O   -0.000945   0.352757  -0.025566  -0.029114   0.077271   8.040065
          Atomic-Atomic Spin Densities.
               1          2          3          4          5          6
     1  C    0.090908   0.054453  -0.001737  -0.014631   0.010650   0.049979
     2  C    0.054453   0.873686   0.010017  -0.010577   0.057961  -0.035031
     3  H   -0.001737   0.010017  -0.033665   0.004413   0.001281  -0.000308
     4  H   -0.014631  -0.010577   0.004413   0.022762  -0.007654  -0.010423
     5  H    0.010650   0.057961   0.001281  -0.007654   0.026527   0.000872
     6  C    0.049979  -0.035031  -0.000308  -0.010423   0.000872   0.091413
     7  H   -0.005081   0.004133  -0.000133   0.000886  -0.000115  -0.006710
     8  H   -0.010474   0.003692   0.000058   0.000815  -0.000082  -0.014804
     9  H   -0.001861   0.003759   0.000017   0.001059  -0.000042  -0.006178
    10  C   -0.010255  -0.012530  -0.000096   0.002901  -0.001465  -0.001477
    11  H    0.000828   0.000101   0.000018  -0.000247   0.000033   0.000797
    12  H    0.003573   0.006189   0.000016  -0.002774   0.001108   0.001411
    13  H    0.000381   0.000207  -0.000027   0.000430  -0.000000  -0.000453
    14  C   -0.114670  -0.054141   0.000127   0.012582  -0.008947  -0.038398
    15  H   -0.006607  -0.004485   0.000063   0.000488  -0.001022  -0.001066
    16  H    0.008665   0.000234   0.000318  -0.000204   0.000158   0.001829
    17  O   -0.016484  -0.060796  -0.001695   0.004059  -0.035923  -0.000404
    18  O   -0.036071  -0.084013   0.003055   0.006625  -0.007914  -0.006411
               7          8          9         10         11         12
     1  C   -0.005081  -0.010474  -0.001861  -0.010255   0.000828   0.003573
     2  C    0.004133   0.003692   0.003759  -0.012530   0.000101   0.006189
     3  H   -0.000133   0.000058   0.000017  -0.000096   0.000018   0.000016
     4  H    0.000886   0.000815   0.001059   0.002901  -0.000247  -0.002774
     5  H   -0.000115  -0.000082  -0.000042  -0.001465   0.000033   0.001108
     6  C   -0.006710  -0.014804  -0.006178  -0.001477   0.000797   0.001411
     7  H   -0.000692   0.002692   0.001293   0.000035  -0.000021  -0.000058
     8  H    0.002692   0.019026   0.002419  -0.000424  -0.000454  -0.000314
     9  H    0.001293   0.002419  -0.000976  -0.000095  -0.000073  -0.000120
    10  C    0.000035  -0.000424  -0.000095   0.020163   0.000273  -0.002808
    11  H   -0.000021  -0.000454  -0.000073   0.000273  -0.001506   0.000690
    12  H   -0.000058  -0.000314  -0.000120  -0.002808   0.000690   0.001429
    13  H    0.000007   0.000074  -0.000004  -0.000047   0.000023   0.000177
    14  C    0.003761   0.009154   0.001689   0.013488  -0.001243  -0.005538
    15  H    0.000107   0.000425   0.000055   0.001982  -0.000212  -0.000786
    16  H   -0.000268  -0.000987  -0.000067  -0.000414   0.000009   0.000078
    17  O    0.000072   0.000046   0.000012   0.001208  -0.000019  -0.000860
    18  O    0.001077   0.000618   0.000234   0.001621  -0.000064  -0.000724
              13         14         15         16         17         18
     1  C    0.000381  -0.114670  -0.006607   0.008665  -0.016484  -0.036071
     2  C    0.000207  -0.054141  -0.004485   0.000234  -0.060796  -0.084013
     3  H   -0.000027   0.000127   0.000063   0.000318  -0.001695   0.003055
     4  H    0.000430   0.012582   0.000488  -0.000204   0.004059   0.006625
     5  H   -0.000000  -0.008947  -0.001022   0.000158  -0.035923  -0.007914
     6  C   -0.000453  -0.038398  -0.001066   0.001829  -0.000404  -0.006411
     7  H    0.000007   0.003761   0.000107  -0.000268   0.000072   0.001077
     8  H    0.000074   0.009154   0.000425  -0.000987   0.000046   0.000618
     9  H   -0.000004   0.001689   0.000055  -0.000067   0.000012   0.000234
    10  C   -0.000047   0.013488   0.001982  -0.000414   0.001208   0.001621
    11  H    0.000023  -0.001243  -0.000212   0.000009  -0.000019  -0.000064
    12  H    0.000177  -0.005538  -0.000786   0.000078  -0.000860  -0.000724
    13  H   -0.001547   0.000322  -0.000013   0.000035  -0.000007   0.000060
    14  C    0.000322   0.145908   0.008609  -0.007048   0.011358   0.047810
    15  H   -0.000013   0.008609  -0.002164   0.000880   0.001858   0.000387
    16  H    0.000035  -0.007048   0.000880  -0.012802   0.000033   0.000612
    17  O   -0.000007   0.011358   0.001858   0.000033   0.169640   0.000179
    18  O    0.000060   0.047810   0.000387   0.000612   0.000179   0.154648
 Mulliken charges and spin densities:
               1          2
     1  C    0.145328   0.001567
     2  C   -0.331604   0.752859
     3  H    0.128044  -0.018279
     4  H    0.066139   0.010509
     5  H    0.210872   0.035425
     6  C   -0.294073   0.024639
     7  H    0.094304   0.000984
     8  H    0.088290   0.011480
     9  H    0.092766   0.001123
    10  C   -0.307141   0.012061
    11  H    0.095220  -0.001067
    12  H    0.094248   0.000688
    13  H    0.088927  -0.000383
    14  C    0.041645   0.024822
    15  H    0.084172  -0.001501
    16  H    0.075641  -0.008937
    17  O   -0.242039   0.072278
    18  O   -0.130741   0.081730
 Sum of Mulliken charges =  -0.00000   1.00000
 Mulliken charges and spin densities with hydrogens summed into heavy atoms:
               1          2
     1  C    0.145328   0.001567
     2  C   -0.137421   0.745089
     6  C   -0.018714   0.038227
    10  C   -0.028745   0.011300
    14  C    0.201459   0.014384
    17  O   -0.031167   0.107703
    18  O   -0.130741   0.081730
 APT charges:
               1
     1  C    0.252972
     2  C   -0.831085
     3  H    0.332392
     4  H    0.244579
     5  H    0.178299
     6  C   -1.081009
     7  H    0.295129
     8  H    0.350582
     9  H    0.407500
    10  C   -1.042401
    11  H    0.374096
    12  H    0.256783
    13  H    0.397471
    14  C   -0.547047
    15  H    0.301724
    16  H    0.322574
    17  O   -0.168085
    18  O   -0.044474
 Sum of APT charges =  -0.00000
 APT charges with hydrogens summed into heavy atoms:
               1
     1  C    0.252972
     2  C   -0.254114
     6  C   -0.027798
    10  C   -0.014051
    14  C    0.077251
    17  O    0.010214
    18  O   -0.044474
 Electronic spatial extent (au):  <R**2>=            809.0741
 Charge=              0.0000 electrons
 Dipole moment (field-independent basis, Debye):
    X=              1.9512    Y=              0.2122    Z=              0.0471  Tot=              1.9632
 Quadrupole moment (field-independent basis, Debye-Ang):
   XX=            -50.2944   YY=            -44.9711   ZZ=            -43.1841
   XY=             -0.4690   XZ=             -2.8082   YZ=              0.4533
 Traceless Quadrupole moment (field-independent basis, Debye-Ang):
   XX=             -4.1445   YY=              1.1788   ZZ=              2.9657
   XY=             -0.4690   XZ=             -2.8082   YZ=              0.4533
 Octapole moment (field-independent basis, Debye-Ang**2):
  XXX=             -1.3002  YYY=             -2.9775  ZZZ=             -5.3822  XYY=             -5.5556
  XXY=              1.7890  XXZ=              6.1109  XZZ=             -7.5518  YZZ=              0.1568
  YYZ=             -0.1941  XYZ=             -0.3956
 Hexadecapole moment (field-independent basis, Debye-Ang**3):
 XXXX=           -659.6471 YYYY=           -258.2824 ZZZZ=           -195.9899 XXXY=             -0.1633
 XXXZ=            -11.8653 YYYX=             -2.7042 YYYZ=              0.2486 ZZZX=             -4.2635
 ZZZY=              0.8696 XXYY=           -148.7678 XXZZ=           -124.8491 YYZZ=            -73.4820
 XXYZ=              3.8482 YYXZ=             -2.2442 ZZXY=              0.4607
 N-N= 3.426967234405D+02 E-N=-1.497008749364D+03  KE= 3.460304118279D+02
  Exact polarizability:   0.000   0.000   0.000   0.000   0.000   0.000
 Approx polarizability: 142.630 -14.336 100.012   6.425   5.348 109.290
                          Isotropic Fermi Contact Couplings
        Atom                 a.u.       MegaHertz       Gauss      10(-4) cm-1
     1  C(13)             -0.00639      -7.17893      -2.56162      -2.39463
     2  C(13)              0.15475     173.97043      62.07698      58.03029
     3  H(1)              -0.00825     -36.89356     -13.16454     -12.30637
     4  H(1)               0.00547      24.46589       8.73004       8.16094
     5  H(1)              -0.00210      -9.38924      -3.35032      -3.13191
     6  C(13)              0.05005      56.26525      20.07684      18.76807
     7  H(1)              -0.00047      -2.08748      -0.74487      -0.69631
     8  H(1)               0.00340      15.18230       5.41742       5.06427
     9  H(1)              -0.00042      -1.86091      -0.66402      -0.62073
    10  C(13)              0.00699       7.86065       2.80488       2.62203
    11  H(1)              -0.00027      -1.22066      -0.43556      -0.40717
    12  H(1)              -0.00029      -1.29019      -0.46037      -0.43036
    13  H(1)               0.00001       0.06372       0.02274       0.02126
    14  C(13)              0.02007      22.56173       8.05059       7.52578
    15  H(1)               0.00060       2.67165       0.95331       0.89117
    16  H(1)              -0.00424     -18.94720      -6.76083      -6.32011
    17  O(17)              0.08777     -53.20819     -18.98600     -17.74834
    18  O(17)              0.02031     -12.30937      -4.39229      -4.10596
 --------------------------------------------------------
       Center         ----  Spin Dipole Couplings  ----
                      3XX-RR        3YY-RR        3ZZ-RR
 --------------------------------------------------------
     1   Atom        0.020740     -0.017341     -0.003399
     2   Atom        0.412612     -0.173401     -0.239211
     3   Atom       -0.012789      0.050092     -0.037304
     4   Atom       -0.011372      0.011394     -0.000022
     5   Atom        0.017498     -0.026997      0.009498
     6   Atom        0.030318     -0.006913     -0.023405
     7   Atom       -0.001004      0.006629     -0.005624
     8   Atom        0.001438     -0.003949      0.002511
     9   Atom        0.010348     -0.006547     -0.003801
    10   Atom        0.004844      0.004775     -0.009620
    11   Atom       -0.000047     -0.001279      0.001325
    12   Atom       -0.003335      0.007184     -0.003849
    13   Atom        0.002443      0.000360     -0.002803
    14   Atom       -0.006144     -0.021606      0.027751
    15   Atom       -0.004149     -0.004812      0.008961
    16   Atom       -0.000053     -0.005629      0.005682
    17   Atom        0.172501     -0.002696     -0.169805
    18   Atom        0.485216     -0.647847      0.162631
 --------------------------------------------------------
                        XY            XZ            YZ
 --------------------------------------------------------
     1   Atom        0.007657     -0.014573      0.006736
     2   Atom       -0.465776      0.399365     -0.228833
     3   Atom        0.014980     -0.001535     -0.035508
     4   Atom       -0.007978      0.030592      0.044442
     5   Atom       -0.011050      0.016747      0.010851
     6   Atom       -0.035397     -0.019014      0.012530
     7   Atom       -0.006825     -0.003259      0.002453
     8   Atom       -0.002280     -0.005163      0.000245
     9   Atom       -0.002703      0.001355      0.000554
    10   Atom        0.019235     -0.007543     -0.008180
    11   Atom        0.003041     -0.003430     -0.002573
    12   Atom        0.003902     -0.002445     -0.005823
    13   Atom        0.006120     -0.000872     -0.001848
    14   Atom        0.018111      0.018228      0.009666
    15   Atom        0.000863      0.000789     -0.005756
    16   Atom       -0.003451     -0.004485      0.005950
    17   Atom       -0.237318      0.092768     -0.022602
    18   Atom        0.038956      0.693613     -0.228342
 --------------------------------------------------------


 ---------------------------------------------------------------------------------
              Anisotropic Spin Dipole Couplings in Principal Axis System
 ---------------------------------------------------------------------------------

       Atom             a.u.   MegaHertz   Gauss  10(-4) cm-1        Axes

              Baa    -0.0240    -3.223    -1.150    -1.075 -0.2975  0.8254 -0.4799
     1 C(13)  Bbb    -0.0040    -0.531    -0.190    -0.177  0.2873  0.5567  0.7794
              Bcc     0.0280     3.754     1.340     1.252  0.9105  0.0940 -0.4027
 
              Baa    -0.4378   -58.745   -20.962   -19.595  0.0860  0.7344  0.6733
     2 C(13)  Bbb    -0.4244   -56.953   -20.322   -18.998 -0.5848 -0.5099  0.6309
              Bcc     0.8622   115.698    41.284    38.593  0.8066 -0.4480  0.3856
 
              Baa    -0.0503   -26.821    -9.570    -8.947 -0.0997  0.3451  0.9333
     3 H(1)   Bbb    -0.0152    -8.095    -2.888    -2.700  0.9778 -0.1395  0.1560
              Bcc     0.0654    34.916    12.459    11.647  0.1841  0.9281 -0.3235
 
              Baa    -0.0572   -30.543   -10.899   -10.188 -0.5388 -0.5011  0.6772
     4 H(1)   Bbb     0.0032     1.706     0.609     0.569  0.8070 -0.5378  0.2441
              Bcc     0.0540    28.838    10.290     9.619  0.2419  0.6780  0.6941
 
              Baa    -0.0347   -18.503    -6.602    -6.172  0.2963  0.8954 -0.3323
     5 H(1)   Bbb     0.0039     2.075     0.740     0.692 -0.5296  0.4435  0.7231
              Bcc     0.0308    16.428     5.862     5.480  0.7948 -0.0383  0.6056
 
              Baa    -0.0302    -4.047    -1.444    -1.350 -0.0087 -0.4846  0.8747
     6 C(13)  Bbb    -0.0279    -3.743    -1.336    -1.249  0.5680  0.7175  0.4032
              Bcc     0.0581     7.790     2.780     2.598  0.8230 -0.5003 -0.2691
 
              Baa    -0.0074    -3.963    -1.414    -1.322  0.5496  0.1227  0.8263
     7 H(1)   Bbb    -0.0040    -2.156    -0.769    -0.719  0.6604  0.5420 -0.5197
              Bcc     0.0115     6.119     2.183     2.041 -0.5116  0.8314  0.2169
 
              Baa    -0.0053    -2.830    -1.010    -0.944  0.5099  0.8018  0.3117
     8 H(1)   Bbb    -0.0021    -1.133    -0.404    -0.378  0.5296 -0.5781  0.6207
              Bcc     0.0074     3.963     1.414     1.322 -0.6779  0.1514  0.7194
 
              Baa    -0.0071    -3.812    -1.360    -1.272  0.1659  0.9598 -0.2264
     9 H(1)   Bbb    -0.0037    -1.992    -0.711    -0.664 -0.0478  0.2371  0.9703
              Bcc     0.0109     5.804     2.071     1.936  0.9850 -0.1501  0.0852
 
              Baa    -0.0145    -1.952    -0.697    -0.651 -0.6284  0.7343  0.2569
    10 C(13)  Bbb    -0.0128    -1.723    -0.615    -0.575  0.3857  0.0073  0.9226
              Bcc     0.0274     3.675     1.311     1.226  0.6756  0.6788 -0.2877
 
              Baa    -0.0038    -2.017    -0.720    -0.673 -0.6741  0.7340 -0.0830
    11 H(1)   Bbb    -0.0024    -1.293    -0.461    -0.431  0.4457  0.4938  0.7467
              Bcc     0.0062     3.310     1.181     1.104 -0.5890 -0.4663  0.6600
 
              Baa    -0.0066    -3.523    -1.257    -1.175  0.3313  0.2860  0.8991
    12 H(1)   Bbb    -0.0045    -2.412    -0.861    -0.805  0.8943 -0.3990 -0.2027
              Bcc     0.0111     5.935     2.118     1.980  0.3008  0.8712 -0.3879
 
              Baa    -0.0052    -2.749    -0.981    -0.917 -0.5543  0.7418  0.3774
    13 H(1)   Bbb    -0.0028    -1.483    -0.529    -0.495  0.3703 -0.1863  0.9100
              Bcc     0.0079     4.233     1.510     1.412  0.7454  0.6442 -0.1715
 
              Baa    -0.0336    -4.515    -1.611    -1.506 -0.5675  0.8224  0.0390
    14 C(13)  Bbb    -0.0065    -0.867    -0.309    -0.289  0.6951  0.5039 -0.5127
              Bcc     0.0401     5.382     1.920     1.795  0.4414  0.2639  0.8577
 
              Baa    -0.0073    -3.882    -1.385    -1.295 -0.3277  0.8854  0.3298
    15 H(1)   Bbb    -0.0038    -2.021    -0.721    -0.674  0.9443  0.3179  0.0851
              Bcc     0.0111     5.903     2.106     1.969  0.0295 -0.3393  0.9402
 
              Baa    -0.0085    -4.524    -1.614    -1.509  0.2065  0.9237 -0.3227
    16 H(1)   Bbb    -0.0025    -1.337    -0.477    -0.446  0.8699 -0.0223  0.4928
              Bcc     0.0110     5.861     2.091     1.955 -0.4480  0.3825  0.8081
 
              Baa    -0.2116    15.310     5.463     5.107 -0.4557 -0.4336  0.7774
    17 O(17)  Bbb    -0.1415    10.240     3.654     3.416  0.3579  0.7104  0.6060
              Bcc     0.3531   -25.550    -9.117    -8.523  0.8150 -0.5543  0.1686
 
              Baa    -0.7643    55.308    19.735    18.449 -0.2523  0.8787  0.4053
    18 O(17)  Bbb    -0.2792    20.201     7.208     6.738 -0.5788 -0.4727  0.6645
              Bcc     1.0435   -75.508   -26.943   -25.187  0.7754 -0.0669  0.6279
 

 ---------------------------------------------------------------------------------

 Calling FoFJK, ICntrl=    100147 FMM=F ISym2X=0 I1Cent= 0 IOpClX= 1 NMat=1 NMatS=1 NMatT=0.
 ***** Axes restored to original set *****
 -------------------------------------------------------------------
 Center     Atomic                   Forces (Hartrees/Bohr)
 Number     Number              X              Y              Z
 -------------------------------------------------------------------
      1        6           0.045984042   -0.056733293   -0.092770211
      2        6           0.024470951    0.076241331    0.116606545
      3        1           0.029337817    0.003567608    0.015308903
      4        1          -0.010882239    0.017409345    0.021648994
      5        1          -0.010716400    0.013551624   -0.002666896
      6        6           0.003262043    0.002011877    0.000644646
      7        1          -0.000013214    0.000058229   -0.000084486
      8        1           0.001216639    0.000694651    0.000770722
      9        1           0.000720622   -0.000248965    0.000830887
     10        6          -0.000330605    0.006156614    0.012316454
     11        1          -0.000567628   -0.001773005    0.001761956
     12        1          -0.000079340    0.000715080   -0.000167318
     13        1           0.000746288    0.001963702   -0.000378381
     14        6           0.068291760    0.000692689   -0.057556082
     15        1          -0.005172883   -0.001067599    0.001435096
     16        1          -0.012161303   -0.006449976   -0.002237734
     17        8           0.026634592   -0.027086548    0.005208809
     18        8          -0.160741144   -0.029703365   -0.020671905
 -------------------------------------------------------------------
 Cartesian Forces:  Max     0.160741144 RMS     0.036840757
 FormGI is forming the generalized inverse of G from B-inverse, IUseBI=4.

 GradGradGradGradGradGradGradGradGradGradGradGradGradGradGradGradGradGrad
 Berny optimization.
 Internal  Forces:  Max     0.223336522 RMS     0.042022380
 Search for a saddle point.
 Step number   1 out of a maximum of   93
 All quantities printed in internal units (Hartrees-Bohrs-Radians)
 Swapping is turned off.
 Second derivative matrix not updated -- analytic derivatives used.
 ITU=  0
     Eigenvalues ---   -0.24026  -0.02934  -0.00281   0.00241   0.00315
     Eigenvalues ---    0.00835   0.01283   0.01697   0.02262   0.04456
     Eigenvalues ---    0.04545   0.04578   0.04657   0.04887   0.05634
     Eigenvalues ---    0.07533   0.08080   0.08612   0.09568   0.11219
     Eigenvalues ---    0.12041   0.12185   0.13958   0.14243   0.14418
     Eigenvalues ---    0.15023   0.15344   0.15871   0.19722   0.20810
     Eigenvalues ---    0.21805   0.25458   0.27681   0.28523   0.32421
     Eigenvalues ---    0.32784   0.33015   0.33175   0.33249   0.33437
     Eigenvalues ---    0.34056   0.34136   0.34208   0.34726   0.46674
     Eigenvalues ---    0.53044   0.59855   1.00251
 Eigenvectors required to have negative eigenvalues:
                          R17       A24       D5        A3        D27
   1                    0.80967  -0.20299   0.16041  -0.14713   0.14396
                          D6        R4        A5        A23       D33
   1                    0.13316  -0.13119   0.12778   0.11297   0.10690
 RFO step:  Lambda0=6.586516820D-02 Lambda=-1.36159868D-01.
 Linear search not attempted -- option 19 set.
 Maximum step size (   0.300) exceeded in Quadratic search.
    -- Step size scaled by   0.547
 Iteration  1 RMS(Cart)=  0.15469233 RMS(Int)=  0.01273111
 Iteration  2 RMS(Cart)=  0.01412451 RMS(Int)=  0.00106840
 Iteration  3 RMS(Cart)=  0.00024369 RMS(Int)=  0.00104122
 Iteration  4 RMS(Cart)=  0.00000090 RMS(Int)=  0.00104122
 Variable       Old X    -DE/DX   Delta X   Delta X   Delta X     New X
                                 (Linear)    (Quad)   (Total)
    R1        2.59225   0.11941   0.00000   0.07389   0.07389   2.66614
    R2        2.93359   0.00230   0.00000  -0.00446  -0.00446   2.92913
    R3        2.90450  -0.00254   0.00000  -0.00988  -0.00988   2.89462
    R4        2.97117   0.13024   0.00000   0.00550   0.00550   2.97668
    R5        2.04476  -0.00773   0.00000   0.00548   0.00548   2.05025
    R6        2.04390   0.01787   0.00000   0.00980   0.00980   2.05370
    R7        1.83968  -0.00114   0.00000  -0.00907  -0.00907   1.83061
    R8        2.06092  -0.00009   0.00000  -0.00019  -0.00019   2.06073
    R9        2.06538  -0.00053   0.00000   0.00021   0.00021   2.06559
   R10        2.06038   0.00086   0.00000   0.00093   0.00093   2.06131
   R11        2.06284  -0.00110   0.00000  -0.00265  -0.00265   2.06019
   R12        2.06097   0.00059   0.00000   0.00096   0.00096   2.06193
   R13        2.06226   0.00125   0.00000   0.00193   0.00193   2.06419
   R14        2.06290  -0.00080   0.00000   0.00162   0.00162   2.06452
   R15        2.06343   0.00375   0.00000   0.00023   0.00023   2.06366
   R16        2.46154   0.08209   0.00000   0.08218   0.08218   2.54372
   R17        3.12580  -0.02088   0.00000   0.09528   0.09528   3.22108
    A1        2.00492  -0.02957   0.00000  -0.04538  -0.04522   1.95970
    A2        2.09210  -0.03184   0.00000   0.04549   0.04528   2.13739
    A3        1.63681   0.09293   0.00000  -0.01973  -0.01883   1.61798
    A4        1.90434   0.03763   0.00000   0.00975   0.01006   1.91440
    A5        1.89059  -0.02468   0.00000   0.03864   0.03842   1.92901
    A6        1.90668  -0.04393   0.00000  -0.03144  -0.03124   1.87544
    A7        2.29229  -0.01284   0.00000  -0.18162  -0.18567   2.10662
    A8        1.81613   0.03014   0.00000   0.10586   0.10156   1.91770
    A9        2.05756  -0.02012   0.00000  -0.00472  -0.01011   2.04745
   A10        1.93616  -0.00027   0.00000   0.00094   0.00094   1.93709
   A11        1.92563   0.00105   0.00000   0.00763   0.00762   1.93325
   A12        1.93745   0.00047   0.00000  -0.00070  -0.00070   1.93675
   A13        1.88826  -0.00002   0.00000  -0.00204  -0.00205   1.88620
   A14        1.88862  -0.00036   0.00000  -0.00168  -0.00168   1.88694
   A15        1.88608  -0.00091   0.00000  -0.00449  -0.00449   1.88159
   A16        1.93639  -0.00380   0.00000  -0.01341  -0.01339   1.92300
   A17        1.93474   0.00075   0.00000   0.00592   0.00591   1.94065
   A18        1.93682   0.00278   0.00000   0.00850   0.00849   1.94531
   A19        1.88390   0.00123   0.00000   0.00115   0.00116   1.88507
   A20        1.87988   0.00042   0.00000   0.00143   0.00146   1.88135
   A21        1.89005  -0.00138   0.00000  -0.00372  -0.00376   1.88629
   A22        1.92370  -0.05219   0.00000  -0.01427  -0.01379   1.90991
   A23        1.92522  -0.04204   0.00000   0.05206   0.05102   1.97625
   A24        1.68845   0.22334   0.00000   0.04534   0.04430   1.73276
   A25        1.89274   0.02005   0.00000   0.00553   0.00485   1.89758
   A26        2.05000  -0.07436   0.00000  -0.08634  -0.08648   1.96353
   A27        1.97392  -0.06207   0.00000   0.00895   0.00606   1.97998
   A28        1.46766   0.03203   0.00000   0.02869   0.02869   1.49636
   A29        1.98475  -0.01726   0.00000  -0.02149  -0.02149   1.96326
    D1       -0.91453   0.00546   0.00000   0.16927   0.16776  -0.74678
    D2        1.69647  -0.00316   0.00000   0.02499   0.02551   1.72198
    D3        3.04682   0.01692   0.00000   0.15530   0.15428  -3.08209
    D4       -0.62536   0.00830   0.00000   0.01102   0.01204  -0.61332
    D5        1.04380   0.01885   0.00000   0.19080   0.19028   1.23408
    D6       -2.62838   0.01023   0.00000   0.04651   0.04803  -2.58034
    D7        0.74428   0.04067   0.00000  -0.02460  -0.02462   0.71965
    D8        2.83654   0.04116   0.00000  -0.02156  -0.02157   2.81497
    D9       -1.35626   0.04101   0.00000  -0.02264  -0.02266  -1.37892
   D10       -3.13268   0.00266   0.00000   0.00777   0.00743  -3.12525
   D11       -1.04041   0.00315   0.00000   0.01082   0.01048  -1.02993
   D12        1.04997   0.00299   0.00000   0.00973   0.00939   1.05936
   D13       -1.05872  -0.04297   0.00000  -0.00213  -0.00178  -1.06050
   D14        1.03355  -0.04249   0.00000   0.00091   0.00127   1.03482
   D15        3.12393  -0.04264   0.00000  -0.00017   0.00018   3.12411
   D16       -2.86007  -0.03583   0.00000   0.00789   0.00827  -2.85180
   D17       -0.76712  -0.03630   0.00000   0.00440   0.00477  -0.76235
   D18        1.33385  -0.03569   0.00000   0.00933   0.00973   1.34359
   D19        1.05952   0.00106   0.00000   0.01910   0.01876   1.07828
   D20       -3.13071   0.00059   0.00000   0.01561   0.01525  -3.11546
   D21       -1.02974   0.00121   0.00000   0.02054   0.02022  -1.00952
   D22       -1.00437   0.03447   0.00000  -0.01499  -0.01503  -1.01940
   D23        1.08858   0.03400   0.00000  -0.01848  -0.01853   1.07005
   D24       -3.09363   0.03462   0.00000  -0.01355  -0.01357  -3.10720
   D25        2.05835   0.01810   0.00000   0.12210   0.12241   2.18077
   D26       -2.13524  -0.01695   0.00000   0.15296   0.15261  -1.98263
   D27       -0.08087   0.00724   0.00000   0.20178   0.20287   0.12200
   D28       -2.16935   0.01796   0.00000   0.07454   0.07448  -2.09486
   D29       -0.07976  -0.01708   0.00000   0.10539   0.10468   0.02492
   D30        1.97461   0.00710   0.00000   0.15422   0.15494   2.12955
   D31       -0.09687   0.02390   0.00000   0.09077   0.09039  -0.00647
   D32        1.99272  -0.01115   0.00000   0.12163   0.12059   2.11331
   D33       -2.23610   0.01304   0.00000   0.17045   0.17085  -2.06525
   D34        1.80013   0.00813   0.00000  -0.09455  -0.09503   1.70510
   D35       -0.24150  -0.04363   0.00000  -0.07238  -0.07149  -0.31299
   D36       -2.46740   0.05767   0.00000  -0.00837  -0.00879  -2.47619
   D37       -1.95527   0.00190   0.00000   0.00030   0.00030  -1.95497
         Item               Value     Threshold  Converged?
 Maximum Force            0.223337     0.000450     NO 
 RMS     Force            0.042022     0.000300     NO 
 Maximum Displacement     0.587428     0.001800     NO 
 RMS     Displacement     0.156163     0.001200     NO 
 Predicted change in Energy=-3.856610D-02
 GradGradGradGradGradGradGradGradGradGradGradGradGradGradGradGradGradGrad

                          Input orientation:                          
 ---------------------------------------------------------------------
 Center     Atomic      Atomic             Coordinates (Angstroms)
 Number     Number       Type             X           Y           Z
 ---------------------------------------------------------------------
      1          6           0        0.824139   -0.053327    0.060588
      2          6           0        0.045389    0.174414    1.214802
      3          1           0       -0.255203   -0.650730    1.851892
      4          1           0        0.368133    1.089841    1.703579
      5          1           0       -1.907504    1.267093    0.559807
      6          6           0        1.966759   -1.069678    0.313635
      7          1           0        1.621074   -1.900657    0.929384
      8          1           0        2.338049   -1.478227   -0.629775
      9          1           0        2.805420   -0.594902    0.824593
     10          6           0        1.334922    1.087445   -0.824879
     11          1           0        1.650332    0.699289   -1.793590
     12          1           0        0.556140    1.831998   -0.997193
     13          1           0        2.191711    1.591668   -0.372291
     14          6           0       -0.370309   -0.743284   -0.699987
     15          1           0       -0.535683   -0.235861   -1.653256
     16          1           0       -0.202440   -1.805031   -0.892530
     17          8           0       -2.293471    0.853502   -0.226569
     18          8           0       -1.356123   -0.509014    0.186134
 ---------------------------------------------------------------------
                    Distance matrix (angstroms):
                    1          2          3          4          5
     1  C    0.000000
     2  C    1.410860   0.000000
     3  H    2.175003   1.084943   0.000000
     4  H    2.052850   1.086772   1.854760   0.000000
     5  H    3.074833   2.331686   2.842117   2.553068   0.000000
     6  C    1.550027   2.459985   2.734751   3.025073   4.531116
     7  H    2.191470   2.621100   2.435930   3.333515   4.756269
     8  H    2.190632   3.374904   3.683528   3.989998   5.193901
     9  H    2.191457   2.891692   3.228912   3.090525   5.074327
    10  C    1.531767   2.580081   3.565789   2.706988   3.530292
    11  H    2.164949   3.449893   4.329336   3.745231   4.303380
    12  H    2.178342   2.810938   3.865165   2.807189   2.968654
    13  H    2.182577   3.022279   3.995338   2.808292   4.216363
    14  C    1.575189   2.163652   2.556149   3.111715   2.826954
    15  H    2.195380   2.954949   3.540741   3.720579   3.006395
    16  H    2.242937   2.901804   2.977758   3.930091   3.801903
    17  O    3.259492   2.830014   3.276774   3.296280   0.968719
    18  O    2.230909   1.868012   2.001714   2.798577   1.896894
                    6          7          8          9         10
     6  C    0.000000
     7  H    1.090491   0.000000
     8  H    1.093065   1.767336   0.000000
     9  H    1.090799   1.765971   1.764621   0.000000
    10  C    2.519645   3.476791   2.761703   2.777303   0.000000
    11  H    2.769435   3.764992   2.563006   3.140708   1.090206
    12  H    3.482505   4.333417   3.777273   3.777303   1.091126
    13  H    2.757510   3.770453   3.084148   2.567150   1.092320
    14  C    2.568238   2.821341   2.807182   3.525850   2.504991
    15  H    3.290308   3.754088   3.293831   4.175119   2.436495
    16  H    2.588629   2.579480   2.574864   3.668807   3.276350
    17  O    4.705316   4.923950   5.201011   5.403842   3.684826
    18  O    3.372261   3.369391   3.905379   4.211110   3.288244
                   11         12         13         14         15
    11  H    0.000000
    12  H    1.764805   0.000000
    13  H    1.763384   1.767302   0.000000
    14  C    2.712927   2.752947   3.481857   0.000000
    15  H    2.381777   2.428690   3.524118   1.092497   0.000000
    16  H    3.242883   3.716770   4.188098   1.092043   1.775401
    17  O    4.246519   3.109919   4.547855   2.544092   2.512363
    18  O    3.797114   3.246128   4.160748   1.346077   2.032508
                   16         17         18
    16  H    0.000000
    17  O    3.447276   0.000000
    18  O    2.043076   1.704521   0.000000
 Stoichiometry    C5H11O2(2)
 Framework group  C1[X(C5H11O2)]
 Deg. of freedom    48
 Full point group                 C1      NOp   1
 Largest Abelian subgroup         C1      NOp   1
 Largest concise Abelian subgroup C1      NOp   1
                         Standard orientation:                         
 ---------------------------------------------------------------------
 Center     Atomic      Atomic             Coordinates (Angstroms)
 Number     Number       Type             X           Y           Z
 ---------------------------------------------------------------------
      1          6           0        0.777011    0.073068    0.112807
      2          6           0       -0.019097   -0.461825    1.147519
      3          1           0       -0.144508   -1.534435    1.251831
      4          1           0        0.122147    0.114559    2.057961
      5          1           0       -2.155778    0.451658    0.955430
      6          6           0        2.100058   -0.711985   -0.076462
      7          1           0        1.931364   -1.786456    0.002433
      8          1           0        2.534558   -0.508184   -1.058535
      9          1           0        2.834117   -0.427603    0.678605
     10          6           0        1.043685    1.574980   -0.026679
     11          1           0        1.419118    1.799128   -1.025357
     12          1           0        0.131719    2.153579    0.128552
     13          1           0        1.789098    1.917164    0.694732
     14          6           0       -0.266094   -0.326730   -0.997739
     15          1           0       -0.538249    0.559024   -1.576463
     16          1           0        0.105588   -1.092137   -1.682256
     17          8           0       -2.461002    0.438687    0.036145
     18          8           0       -1.269318   -0.755105   -0.209095
 ---------------------------------------------------------------------
 Rotational constants (GHZ):           4.3837596           1.8806346           1.7066901
 Standard basis: CC-pVTZ+d (5D, 7F)
 There are   410 symmetry adapted cartesian basis functions of A   symmetry.
 There are   364 symmetry adapted basis functions of A   symmetry.
   364 basis functions,   551 primitive gaussians,   410 cartesian basis functions
    29 alpha electrons       28 beta electrons
       nuclear repulsion energy       338.1992227839 Hartrees.
 NAtoms=   18 NActive=   18 NUniq=   18 SFac= 1.00D+00 NAtFMM=   60 NAOKFM=F Big=F
 Integral buffers will be    131072 words long.
 Raffenetti 2 integral format.
 Two-electron integral symmetry is turned on.
 One-electron integrals computed using PRISM.
 NBasis=   364 RedAO= T EigKep=  3.06D-04  NBF=   364
 NBsUse=   364 1.00D-06 EigRej= -1.00D+00 NBFU=   364
 Initial guess from the checkpoint file:  "QOOHneop-OH-Elim-TS5-b3lyp-c-H.chk"
 B after Tr=     0.000000    0.000000   -0.000000
         Rot=    0.997773   -0.056141   -0.008183   -0.035088 Ang=  -7.65 deg.
 Initial guess <Sx>= 0.0000 <Sy>= 0.0000 <Sz>= 0.5000 <S**2>= 0.7648 S= 0.5074
 ExpMin= 1.03D-01 ExpMax= 1.53D+04 ExpMxC= 5.22D+02 IAcc=3 IRadAn=         5 AccDes= 0.00D+00
 Harris functional with IExCor=  402 and IRadAn=       5 diagonalized for initial guess.
 HarFok:  IExCor=  402 AccDes= 0.00D+00 IRadAn=         5 IDoV= 1 UseB2=F ITyADJ=14
 ICtDFT=  3500011 ScaDFX=  1.000000  1.000000  1.000000  1.000000
 FoFCou: FMM=F IPFlag=           0 FMFlag=      100000 FMFlg1=           0
         NFxFlg=           0 DoJE=T BraDBF=F KetDBF=T FulRan=T
         wScrn=  0.000000 ICntrl=       500 IOpCl=  0 I1Cent=   200000004 NGrid=           0
         NMat0=    1 NMatS0=      1 NMatT0=    0 NMatD0=    1 NMtDS0=    0 NMtDT0=    0
 Petite list used in FoFCou.
 Requested convergence on RMS density matrix=1.00D-08 within 128 cycles.
 Requested convergence on MAX density matrix=1.00D-06.
 Requested convergence on             energy=1.00D-06.
 No special actions if energy rises.
 Integral accuracy reduced to 1.0D-05 until final iterations.
 Initial convergence to 1.0D-05 achieved.  Increase integral accuracy.
[...]
 3,0.0744657,0.031752,0.0296732,-0.0020611,0.032085,0.0170701,0.0745647
 ,0.0070526,0.125733,0.0083171,-0.0860177,0.0488804,-0.0399919,-0.09082
 36,0.0624142,0.026704,0.0803245,0.0179824,0.0124672,0.0336043,0.025692
 6,0.0642495,0.0310841,-0.0132275,0.0917406,-0.0662248,-0.1091201,-0.08
 5978,0.0010511,-0.0601366,-0.0543825,0.0331464,-0.0540889,-0.1097917,-
 0.0154276,0.0063236,0.0651851,0.0122617,0.0223546,0.0504504,-0.0003371
 ,0.0437752,0.0352462,0.0435777,0.1006221,0.021501,-0.0118695,0.0508348
 ,0.0006357,0.0334478,-0.0659444,0.1020743,-0.0145098,-0.1079162,-0.008
 6583,0.1079515,-0.0128935,0.058946,-0.0624508,0.0175344,-0.0027192,0.0
 052152,0.0547765,-0.075516,-0.0732933,-0.0583988,-0.0483974,0.0326166,
 0.0035079,-0.1145209,-0.0405532,-0.0158907,0.2719541,-0.0580856,-0.103
 3373,-0.0489083,0.4085886,0.1359247,-0.0060045,0.0928321,0.4987564,0.0
 453259,0.0017581,-0.0084002,0.0243358,0.0059721,0.0741916,0.0241547,0.
 0220225,-0.1317701,0.0002356,-0.0516527,0.0027653,-0.0186213,-0.197583
 2,-0.049259,0.0271836,0.0106678,0.0084655,-1.4480284,0.0372038,-0.6967
 324,-0.0108261,-0.3555724,-0.0888208,-0.5485672,-0.0706724,-0.5509444,
 1.0355178,0.1622448,1.050952,0.096636,-0.3390076,-0.0585007,1.0562143,
 -0.0676527,0.2801762\Polar=105.8196381,-1.5968453,65.0950762,14.061317
 ,0.1597874,74.2253894\Quadrupole=-0.642267,-0.0809497,0.7232167,1.8125
 385,-2.7595061,0.3523297\PG=C01 [X(C5H11O2)]\NImag=1\\0.48223111,-0.00
 678847,0.48101794,-0.03557744,-0.01512903,0.44434162,-0.05703631,-0.00
 302803,0.03956150,0.08894124,0.00858636,-0.08914875,-0.02307458,0.0684
 3084,0.63241184,0.06628081,-0.02469513,-0.16756913,-0.15589881,0.00457
 591,0.46059175,-0.00089847,-0.00929973,0.00667969,-0.03652348,-0.04682
 867,0.05023206,0.03712004,0.00188053,0.00646297,-0.00567789,-0.0512997
 7,-0.21602874,0.13280843,0.05408461,0.21918884,0.00439177,0.01962129,-
 0.00843445,0.05265863,0.13354843,-0.16578985,-0.05405828,-0.14283992,0
 .16980044,0.00614770,0.01058413,0.00449398,-0.02583832,-0.02732502,0.0
 0473540,0.00405003,-0.00523436,-0.00168027,0.02144669,-0.00217632,-0.0
 0077894,0.00173105,-0.02259450,-0.30532658,-0.10119930,-0.00127761,-0.
 01330319,-0.00984736,0.02413693,0.31573585,-0.00225510,-0.01974510,-0.
 00394401,0.00496530,-0.10223870,-0.08862984,0.00254592,0.01764796,0.00
 997704,-0.00346371,0.10806125,0.08904820,-0.00073586,0.00092909,-0.000
 01098,-0.00197403,0.00019119,-0.00037064,0.00016157,0.00005397,-0.0000
 7816,0.00012153,-0.00004402,-0.00002504,0.19491197,0.00051980,-0.00024
 302,0.00038295,0.00001434,0.00023906,-0.00011850,0.00005906,-0.0000020
 8,0.00005363,-0.00004968,-0.00007853,0.00000802,0.07601490,0.03591558,
 -0.00043602,0.00083978,0.00040337,-0.00255075,-0.00030563,-0.00138293,
 0.00003757,0.00006617,-0.00003410,-0.00015049,0.00002938,-0.00003464,-
 0.21104479,-0.10521966,0.32383350,-0.11267543,0.04439862,-0.00328717,-
 0.00674086,0.01003724,0.00797598,0.00132354,0.00018161,-0.00050726,-0.
 00098009,-0.00027807,-0.00048497,-0.00024608,0.00008497,-0.00022790,0.
 52192789,0.04447661,-0.13161685,0.00597434,0.01047813,-0.01039552,-0.0
 0667650,-0.00157369,0.00133466,0.00138366,0.00080964,-0.00010836,0.000
 29673,-0.00014513,0.00010547,-0.00033360,0.06091708,0.49889351,0.00112
 469,0.00219513,-0.07516512,0.01849038,-0.02591717,-0.00159867,-0.00041
 781,-0.00020806,0.00133091,0.00096385,-0.00076218,-0.00348355,-0.00043
 760,-0.00006229,-0.00006084,-0.00304288,-0.00143259,0.56286451,0.00823
 664,0.01642677,-0.00948255,0.00065272,0.00002095,-0.00087530,0.0001118
 1,-0.00016711,0.00012449,-0.00003004,-0.00005643,-0.00004480,-0.000019
 04,0.00000477,0.00002775,-0.09810962,-0.09135479,0.04990849,0.10483611
 ,-0.01160659,-0.02117982,0.01070594,-0.00112780,0.00073791,0.00138597,
 0.00046626,0.00018673,-0.00100180,-0.00001812,0.00028366,-0.00020861,0
 .00006147,-0.00003512,0.00001023,-0.08931165,-0.20703025,0.08762426,0.
 09696360,0.22761291,0.00019189,-0.00000429,-0.00212398,-0.00066213,-0.
 00107636,0.00040046,-0.00000179,-0.00000307,0.00007404,0.00008908,0.00
 006709,0.00009582,0.00000203,0.00003870,-0.00000930,0.04913003,0.08824
 259,-0.09549849,-0.05465859,-0.09736665,0.10001258,-0.00736389,0.00528
 590,0.02024911,-0.00100370,0.00407701,-0.00050444,0.00002099,-0.000097
 45,-0.00027282,-0.00057737,0.00024646,0.00069271,0.00006817,0.00002920
 ,-0.00003331,-0.06567033,0.01695172,0.06419028,-0.00443494,0.00407606,
 0.01311554,0.06914570,0.00743766,-0.00760897,-0.02429377,0.00229482,-0
 .00364619,0.00151547,0.00004050,0.00009771,-0.00018106,0.00032499,0.00
 006583,-0.00089074,-0.00007891,-0.00003165,0.00005373,0.01683761,-0.06
 302990,-0.05944056,-0.00634594,0.00744412,0.02421890,-0.02201331,0.067
 23478,-0.00048821,0.00102767,0.00127674,0.00054942,0.00004153,0.001288
 05,-0.00032791,0.00000807,0.00015200,0.00014611,-0.00008105,0.00018400
 ,-0.00004145,-0.00002130,0.00003937,0.06470174,-0.06005413,-0.26939429
 ,0.00285202,-0.00322056,-0.01224342,-0.07194194,0.06614487,0.29248963,
 -0.01843833,-0.00485217,-0.01005166,0.00213720,-0.00065061,0.00041060,
 -0.00029790,0.00001292,0.00019717,-0.00023445,0.00008337,0.00007194,-0
 .00005866,0.00000923,-0.00006628,-0.22038065,-0.05085073,-0.11018094,-
 0.01122051,-0.00299383,-0.00702408,0.00852557,0.00213168,0.00458006,0.
 24096012,0.02217648,0.00529725,0.01435361,-0.00168694,0.00113037,-0.00
 010953,0.00000444,-0.00003927,-0.00014556,0.00008447,-0.00003628,0.000
 04121,0.00015568,-0.00004183,0.00009672,-0.05170425,-0.06209725,-0.032
 17299,-0.02009151,-0.00568769,-0.01433173,-0.00648919,-0.00263911,-0.0
 0338967,0.05359711,0.06602351,-0.00003903,0.00015465,-0.00092125,0.000
 08020,0.00047754,0.00032991,0.00001164,0.00011463,0.00001667,-0.000069
 36,0.00000870,0.00023869,0.00008250,0.00001281,-0.00000750,-0.11022185
 ,-0.03183822,-0.11729160,0.01249112,0.00260577,0.00787017,-0.02529196,
 -0.00711083,-0.01507819,0.12218394,0.03528782,0.12325753,-0.09558710,-
 0.03221371,0.01791920,-0.00696158,-0.00930711,0.00973950,-0.00056014,0
 .00043969,0.00053560,0.00118210,-0.00057357,-0.00044665,0.00007350,-0.
 00006000,-0.00001904,0.01013377,0.01666721,-0.00882482,-0.00240539,0.0
 0507546,-0.00060983,0.00033967,-0.00014537,-0.00026612,0.00058698,0.00
 053376,-0.00010959,0.55206002,-0.03114717,-0.13897671,0.03151441,-0.00
 022349,0.00569631,0.00244991,0.00082678,0.00018088,-0.00293681,0.00100
 863,0.00065134,-0.00142521,-0.00010408,-0.00004814,0.00013509,-0.00886
 778,-0.03050894,0.01332551,0.00284659,-0.00325535,-0.00004628,-0.00116
 124,0.00132013,0.00023989,-0.00126791,0.00166383,-0.00031194,-0.044193
 32,0.49711457,0.01801772,0.03159629,-0.09026005,0.01869395,0.02728461,
 -0.02202944,0.00286804,-0.00094006,-0.00398779,-0.00049639,0.00110436,
 0.00184162,-0.00011187,-0.00004766,-0.00007652,-0.00042273,0.00452714,
 -0.00075049,-0.00007272,-0.00062552,0.00033730,0.00014794,-0.00142017,
 0.00034109,0.00019290,0.00025345,-0.00012945,0.01911469,0.03811547,0.5
 5334735,-0.00601768,0.00330879,0.01314860,-0.00054878,-0.00299729,0.00
 101602,-0.00046138,0.00012097,0.00068637,-0.00001688,0.00003579,-0.000
 16957,0.00004316,0.00001542,-0.00003917,0.00020172,0.00080822,-0.00051
 928,-0.00013334,-0.00000797,-0.00013331,0.00043504,-0.00014339,-0.0001
 9367,0.00005779,-0.00008457,-0.00013417,-0.07356782,0.01766183,0.07516
 575,0.07649446,-0.00897866,0.00473731,0.02507383,-0.00199350,-0.004614
 37,0.00193153,-0.00071821,0.00053457,0.00127820,-0.00005659,0.00008055
 ,0.00021550,0.00002219,-0.00000394,-0.00000339,-0.00030210,0.00169278,
 0.00055232,-0.00004082,0.00028468,-0.00027324,0.00013002,-0.00034842,-
 0.00029082,0.00012151,-0.00011799,-0.00000412,0.01829999,-0.05970045,-
 0.05354131,-0.01772293,0.06358097,0.00418074,-0.00316628,-0.01266584,0
 .00117683,0.00311209,0.00004844,0.00048424,-0.00012834,-0.00051645,-0.
 00020705,0.00011817,0.00031168,-0.00005530,-0.00002696,0.00004488,-0.0
 0009583,-0.00108208,0.00020000,-0.00010633,0.00004723,0.00041473,-0.00
 034031,0.00072620,0.00043335,0.00001017,0.00006045,-0.00009783,0.07612
 156,-0.05148342,-0.26754238,-0.08532721,0.05572639,0.29152072,0.009422
 21,-0.01226812,0.00068989,0.00036581,-0.00003919,-0.00040602,0.0000557
 6,-0.00007856,-0.00019865,0.00010462,0.00020706,-0.00026323,-0.0000224
 2,0.00001207,0.00003100,-0.00101702,-0.00220443,0.00114465,0.00071679,
 -0.00074832,0.00016686,-0.00011653,-0.00003969,-0.00003438,0.00020478,
 -0.00013608,0.00025721,-0.15900117,0.13066834,-0.00920282,-0.00653669,
 0.00626851,-0.00079280,0.17006343,0.01700780,-0.02127745,0.00092343,0.
 00055733,0.00046378,-0.00137829,0.00002955,0.00021620,0.00003479,-0.00
 008094,0.00043455,0.00054809,-0.00004515,0.00000562,-0.00002716,-0.003
 98061,-0.00346248,0.00275423,0.00107573,-0.00141577,0.00024639,-0.0001
 7721,0.00035961,-0.00006233,0.00004303,0.00023928,0.00006223,0.1275039
 3,-0.19633611,0.00977485,0.00364731,-0.00490308,0.00010955,-0.14026666
 ,0.21611950,-0.00913916,0.01019217,-0.00218340,-0.00090804,0.00071064,
 0.00066531,-0.00011075,-0.00027455,0.00003590,-0.00002564,-0.00015448,
 -0.00050800,0.00005074,0.00002800,-0.00002486,0.00165712,0.00176139,-0
 .00096644,-0.00034992,0.00085412,0.00049961,-0.00013399,0.00031849,0.0
 0029313,0.00033985,-0.00024916,0.00008713,-0.00830106,0.00911275,-0.04
 866870,0.01970568,-0.02313602,0.00268577,0.00871059,-0.01259945,0.0490
 4634,-0.01270638,-0.00331974,-0.00726022,0.00128159,-0.00001113,-0.000
 64931,0.00001878,0.00020214,0.00014237,-0.00037660,0.00034581,0.000503
 22,0.00000448,-0.00002603,-0.00000247,0.00027394,0.00091983,-0.0001568
 8,0.00012125,0.00004667,0.00023623,0.00006193,0.00001122,0.00004984,0.
 00064984,-0.00022845,0.00010242,-0.20506703,-0.05592920,-0.11141249,0.
 00938122,0.00338246,0.00560810,-0.01579990,-0.00642254,-0.01134035,0.2
 2289022,-0.02127483,-0.00805987,-0.01463947,0.00142278,0.00072550,-0.0
 0081167,0.00003671,0.00000100,-0.00002274,0.00000033,0.00032954,0.0002
 5742,-0.00001408,-0.00000514,-0.00003482,-0.00078519,0.00126673,-0.001
 14111,0.00024780,0.00035964,0.00019407,0.00001389,-0.00012727,0.000035
 33,0.00059324,-0.00033928,0.00045171,-0.05502246,-0.06726100,-0.039103
 71,-0.00539448,-0.00277193,-0.00377447,0.01875374,0.00826446,0.0145236
 9,0.06431379,0.07202846,0.01155448,0.00406664,0.00674949,-0.00012235,-
 0.00007412,0.00125571,-0.00004863,-0.00004071,0.00017875,-0.00018480,-
 0.00027425,0.00002621,0.00004021,0.00000482,0.00000396,0.00024232,-0.0
 0063022,0.00022786,0.00017552,-0.00014982,0.00004460,-0.00013534,0.000
 04507,-0.00002304,-0.00001082,-0.00018188,0.00017646,-0.11242252,-0.04
 031358,-0.12731887,-0.02393134,-0.00762512,-0.01580238,-0.00020771,0.0
 0009150,-0.00123983,0.12313203,0.04235010,0.13522341,-0.12596068,-0.02
 193800,-0.03963390,0.01127111,-0.00291450,-0.00954357,-0.00129561,-0.0
 0010525,0.00052491,-0.00194818,0.00130159,0.00146782,-0.00431311,0.001
 01127,-0.00153936,-0.02226384,0.00104715,-0.01046055,0.00143887,-0.001
 49709,0.00056437,0.00085975,-0.00063861,0.00012312,-0.00015067,0.00157
 897,0.00093616,-0.01876084,-0.01207863,-0.00723107,0.00085763,0.001234
 55,-0.00059627,0.00091056,0.00165116,-0.00031250,0.00039338,-0.0010160
 5,0.00138123,0.39319374,-0.02140345,-0.07774091,0.00279278,-0.00158488
 ,-0.00000590,-0.01322731,0.00037868,0.00013726,0.00031373,0.00051777,-
 0.00031569,-0.00049160,-0.00086788,0.00085685,-0.00105172,0.02096677,0
 .00425574,0.01325803,0.00098902,-0.00003229,0.00120800,-0.00010048,0.0
 0065395,-0.00069585,0.00320576,-0.00432124,-0.00000082,-0.02563335,-0.
 01066393,-0.01560984,0.00096123,0.00110673,-0.00033997,-0.00039480,-0.
 00004876,-0.00054933,-0.00320603,-0.00471545,0.00241402,0.03768532,0.5
 6911600,-0.04435648,-0.00303745,-0.08497569,-0.01597619,-0.01885096,-0
 .03799371,0.00103556,0.00047214,0.00024931,0.00054818,-0.00042403,-0.0
 0297856,-0.00157095,0.00005855,-0.00326096,-0.00271034,0.00231646,-0.0
 0055990,-0.00017544,-0.00082992,0.00033246,0.00084063,-0.00022824,0.00
 015373,0.00004633,-0.00062955,0.00127623,0.00786932,0.00058811,0.00615
 108,0.00169833,0.00057177,-0.00013477,-0.00010337,0.00032521,0.0005642
 7,0.00113350,0.00218711,-0.00099480,0.03811029,-0.04436725,0.56524886,
 -0.00094109,0.00891938,-0.02440155,-0.00399348,-0.00167752,-0.00125955
 ,0.00061858,-0.00005410,-0.00003263,0.00013400,-0.00012264,-0.00069198
 ,0.00006926,0.00019564,-0.00009292,-0.00080468,-0.00064890,-0.00063962
 ,-0.00002256,-0.00007479,-0.00003169,-0.00015489,0.00027880,0.00028285
 ,-0.00058043,0.00037491,0.00023566,0.00165984,0.00131188,-0.00061037,-
 0.00040771,0.00003132,0.00049477,0.00007774,-0.00040655,0.00003945,0.0
 0033021,0.00020998,0.00018697,-0.04950649,0.00951175,-0.02892571,0.052
 83794,-0.00263881,0.00149900,-0.00675957,-0.00143727,-0.00015259,-0.00
 174463,-0.00008298,-0.00015969,-0.00025162,0.00008548,0.00001585,-0.00
 017159,-0.00000316,-0.00030496,-0.00029166,-0.00004739,-0.00030458,0.0
 0020626,-0.00006717,0.00036449,-0.00021910,0.00013041,0.00001014,0.000
 02157,0.00019147,0.00026844,-0.00013168,-0.00069672,0.00074251,-0.0006
 9428,0.00010694,0.00020031,-0.00000918,0.00014517,0.00005092,-0.000258
 25,0.00009450,0.00002115,-0.00000208,0.00954476,-0.09576187,0.09950334
 ,-0.01074557,0.09651176,-0.00091529,0.00378331,-0.00783469,-0.00093463
 ,-0.00062409,-0.00205733,-0.00012441,-0.00003184,-0.00019667,-0.000218
 38,0.00012272,-0.00037807,-0.00083529,0.00009101,0.00043667,-0.0007360
 1,-0.00068300,-0.00076850,0.00008620,-0.00006714,0.00007827,-0.0001531
 6,0.00021740,0.00009652,-0.00028753,0.00021183,-0.00006995,0.00128040,
 0.00109029,0.00089417,-0.00065156,-0.00041316,0.00055128,-0.00007108,-
 0.00057103,-0.00012087,0.00027003,0.00010383,0.00040691,-0.02198023,0.
 09368569,-0.25914249,0.02074586,-0.09667435,0.28983206,-0.00734688,-0.
 02517004,0.00132647,-0.00074461,0.00106120,0.00053508,-0.00013560,-0.0
 0003768,-0.00039654,0.00052334,-0.00011187,-0.00015868,0.00008760,0.00
 030577,0.00026864,0.00134624,-0.00178263,0.00069025,-0.00009505,0.0006
 3875,-0.00053504,-0.00025074,0.00009372,0.00028921,0.00033708,0.000238
 86,0.00009805,-0.00368371,-0.00076992,-0.00372593,0.00002391,0.0001471
 4,0.00010300,0.00014563,0.00016771,-0.00007567,-0.00094213,-0.00137137
 ,0.00067278,-0.06067597,-0.06133056,-0.00289053,0.00342841,0.00280182,
 -0.00156792,0.06630228,-0.00126022,-0.00421827,0.00183174,-0.00036038,
 -0.00033773,-0.00048394,-0.00008855,-0.00007542,-0.00029144,-0.0001167
 0,0.00011668,-0.00011034,-0.00007154,-0.00036504,0.00013645,0.00156627
 ,0.00062056,0.00076190,-0.00027063,0.00088008,-0.00043254,-0.00041688,
 0.00012640,0.00008172,0.00031088,0.00034692,-0.00007464,-0.00055736,0.
 00059485,-0.00120812,0.00008926,0.00003499,0.00001519,0.00017738,0.000
 27306,0.00001356,-0.00020111,-0.00019948,-0.00004992,-0.05880311,-0.28
 195877,0.01014472,-0.00490929,-0.01147168,0.00134224,0.05678973,0.3108
 6677,-0.00413026,-0.01143990,0.00027160,-0.00071138,0.00043346,-0.0002
 1290,-0.00007136,0.00005679,-0.00027667,0.00020064,0.00017959,-0.00003
 723,0.00011525,-0.00016739,0.00016323,0.00055359,-0.00066036,0.0013831
 8,-0.00009049,0.00022988,-0.00018252,-0.00008123,0.00026190,0.00003038
 ,0.00030422,-0.00010046,-0.00003962,-0.00072127,0.00010272,-0.00096182
 ,-0.00023957,0.00004573,0.00020021,0.00005785,-0.00028663,-0.00012615,
 0.00001838,-0.00045495,0.00040883,-0.00102540,0.01137799,-0.05347574,0
 .00639681,0.02845743,0.00137397,-0.00335598,0.00095573,0.05551116,0.01
 036289,-0.00722500,-0.01904161,-0.08457252,0.00183295,-0.05060316,0.00
 105022,0.00002634,0.00065113,0.00135226,0.00033857,0.00123274,-0.17694
 576,-0.07875863,0.22860512,0.00204976,0.00063524,0.00242029,-0.0001266
 3,-0.00014247,-0.00042330,-0.00058671,0.00106183,0.00115433,0.00154741
 ,-0.00063253,0.00014067,0.00022974,0.00104399,0.00126783,-0.00044419,-
 0.00038196,0.00116830,-0.00034516,-0.00047016,-0.00015591,0.00100350,0
 .00047249,-0.00005887,-0.01410230,0.00242372,-0.00245049,0.00067000,-0
 .00198613,-0.00185428,0.00242656,-0.00151731,-0.00142572,0.19194996,0.
 00021809,0.00105142,0.00008299,0.00020381,0.00059186,-0.00084667,0.000
 00453,0.00009928,-0.00011346,0.00005745,0.00025312,0.00012034,-0.07291
 332,-0.03537036,0.10831447,0.00010191,-0.00005681,0.00018386,-0.000027
 03,0.00007489,-0.00007014,-0.00005475,0.00004245,0.00000583,0.00011486
 ,-0.00003338,-0.00004001,0.00058225,0.00014277,0.00023755,-0.00002656,
 0.00003224,0.00004824,0.00006939,0.00003685,-0.00009103,0.00013374,0.0
 0011322,-0.00016616,0.00584308,0.00004718,0.00489527,-0.00004878,-0.00
 018938,-0.00027977,-0.00058683,0.00167769,0.00112615,0.07190677,0.0420
 6660,0.01020755,-0.00723236,-0.01049963,-0.04681395,0.00023380,-0.0304
 0863,0.00039214,-0.00018585,0.00067796,0.00082610,0.00037162,0.0008699
 7,0.19873917,0.10651454,-0.33131456,0.00233919,0.00147387,0.00256098,-
 0.00014537,-0.00022068,-0.00025662,-0.00043107,0.00067199,0.00064025,0
 .00137684,-0.00102701,-0.00006693,0.00024070,0.00041790,0.00135559,-0.
 00030749,-0.00024122,0.00063513,-0.00034808,-0.00024294,-0.00018914,0.
 00080971,0.00056249,-0.00015570,0.01080121,0.00633022,0.01587993,0.001
 55257,-0.00071644,0.00053652,0.00069164,-0.00052334,-0.00123763,-0.232
 59117,-0.10714480,0.35313214,-0.07069244,0.03625034,0.04467865,0.12128
 799,-0.00248670,0.07918537,-0.00435873,0.00007149,-0.00268785,-0.00506
 032,0.00053944,-0.00347594,-0.01122629,0.00061788,-0.01276759,-0.00836
 826,-0.00515053,-0.00425250,0.00048294,0.00020036,0.00058374,0.0007022
 8,-0.00110760,-0.00143504,-0.00364515,0.00230883,-0.00075361,-0.000670
 84,0.00037468,-0.00218245,0.00063955,0.00055708,-0.00182660,0.00077155
 ,0.00016629,0.00034954,-0.00151829,-0.00118628,-0.00026317,-0.10994734
 ,0.03788141,0.04787736,-0.00341466,0.00460466,0.00794727,-0.00074634,0
 .00963956,0.00420593,0.06448097,-0.00557859,0.05266031,0.03128336,0.00
 497120,0.00078366,-0.00579278,0.00193450,-0.01234025,0.00662427,0.0039
 3831,0.00116827,0.00139803,-0.00472839,0.00198060,-0.00191463,-0.00314
 121,-0.00059275,-0.00241438,0.00018495,0.00044149,0.00027545,-0.000153
 81,0.00040718,-0.00039235,-0.00043017,0.00007637,0.00020923,0.00020018
 ,0.00038372,0.00033640,-0.00069932,-0.00135655,0.00029696,-0.00037858,
 0.00017506,0.00004720,-0.00012579,0.00097982,-0.00020253,-0.00010594,0
 .00036972,0.00053572,0.03809341,-0.10060891,-0.05269527,-0.00214551,0.
 00866019,-0.00130394,0.02891621,-0.01691160,-0.03011767,0.01137229,-0.
 01057964,0.00095822,-0.07770232,0.12696361,-0.01861268,0.01097261,0.01
 353442,0.08840200,0.00174359,0.05309281,-0.00912592,-0.00084393,-0.003
 25703,-0.00550724,0.00094872,-0.00259932,0.01555216,-0.00152928,0.0112
 8124,-0.00486302,-0.00258547,-0.00302954,0.00033591,0.00022732,0.00015
 428,0.00008336,-0.00060866,-0.00067930,-0.00209272,0.00203246,0.000449
 52,-0.00110005,-0.00057481,-0.00254270,0.00022556,0.00013314,-0.000286
 54,0.00057009,0.00029757,0.00014994,-0.00118412,-0.00068279,0.00083243
 ,0.03841377,-0.05504677,-0.14633924,0.02675109,-0.02026416,-0.02363780
 ,0.00803117,-0.01210897,-0.00279230,0.07196408,-0.00626266,-0.00215964
 ,-0.20784343,0.08415207,0.10782878\\-0.00000241,0.00001459,-0.00002181
 ,0.00000223,0.00000564,0.00000009,-0.00000756,-0.00000369,-0.00000681,
 -0.00000698,-0.00000097,0.00000015,0.00000194,-0.00000003,0.00000095,-
 0.00000364,-0.00000267,0.00000409,0.00000145,0.00000096,0.00000246,-0.
 00000258,-0.00000179,-0.00000048,0.00000138,0.00000109,-0.00000325,0.0
 0000578,-0.00000025,0.00000541,0.00000041,-0.00000020,-0.00000013,-0.0
 0000023,-0.00000020,-0.00000059,-0.00000032,0.00000026,-0.00000016,0.0
 0001127,-0.00002013,-0.00000365,0.00000060,0.00000307,0.00000122,-0.00
 000319,-0.00000057,-0.00000023,-0.00000061,0.00000032,0.00000141,0.000
 00245,0.00000457,0.00002133\\\@


 Money is a good servant but a bad master.
                        -- French Proverb
 Job cpu time:       0 days  0 hours  0 minutes 46.3 seconds.
 Elapsed time:       0 days  0 hours  6 minutes 16.6 seconds.
 File lengths (MBytes):  RWF=    345 Int=      0 D2E=      0 Chk=     16 Scr=      1
 Normal termination of Gaussian 16 at Sat Apr  2 22:19:58 2022.
