 Entering Gaussian System, Link 0=g16
 Input=CH3CH2_w1u.com
 Output=CH3CH2_w1u.log
 Initial command:
 /home/saurabh/gaussian/g16/l1.exe "/home/saurabh/gaussian/gauss_scr/Gau-14306.inp" -scrdir="/home/saurabh/gaussian/gauss_scr/"
 Entering Link 1 = /home/saurabh/gaussian/g16/l1.exe PID=     14307.
  
 Copyright (c) 1988-2019, Gaussian, Inc.  All Rights Reserved.
  
 This is part of the Gaussian(R) 16 program.  It is based on
 the Gaussian(R) 09 system (copyright 2009, Gaussian, Inc.),
 the Gaussian(R) 03 system (copyright 2003, Gaussian, Inc.),
 the Gaussian(R) 98 system (copyright 1998, Gaussian, Inc.),
 the Gaussian(R) 94 system (copyright 1995, Gaussian, Inc.),
 the Gaussian 92(TM) system (copyright 1992, Gaussian, Inc.),
 the Gaussian 90(TM) system (copyright 1990, Gaussian, Inc.),
 the Gaussian 88(TM) system (copyright 1988, Gaussian, Inc.),
 the Gaussian 86(TM) system (copyright 1986, Carnegie Mellon
 University), and the Gaussian 82(TM) system (copyright 1983,
 Carnegie Mellon University). Gaussian is a federally registered
 trademark of Gaussian, Inc.
  
 This software contains proprietary and confidential information,
 including trade secrets, belonging to Gaussian, Inc.
  
 This software is provided under written license and may be
 used, copied, transmitted, or stored only in accord with that
 written license.
  
 The following legend is applicable only to US Government
 contracts under FAR:
  
                    RESTRICTED RIGHTS LEGEND
  
 Use, reproduction and disclosure by the US Government is
 subject to restrictions as set forth in subparagraphs (a)
 and (c) of the Commercial Computer Software - Restricted
 Rights clause in FAR 52.227-19.
  
 Gaussian, Inc.
 340 Quinnipiac St., Bldg. 40, Wallingford CT 06492
  
  
 ---------------------------------------------------------------
 Warning -- This program may not be used in any manner that
 competes with the business of Gaussian, Inc. or will provide
 assistance to any competitor of Gaussian, Inc.  The licensee
 of this program is prohibited from giving any competitor of
 Gaussian, Inc. access to this program.  By using this program,
 the user acknowledges that Gaussian, Inc. is engaged in the
 business of creating and licensing software in the field of
 computational chemistry and represents and warrants to the
 licensee that it is not a competitor of Gaussian, Inc. and that
 it will not use this program in any manner prohibited above.
 ---------------------------------------------------------------
  

 Cite this work as:
 Gaussian 16, Revision C.01,
 M. J. Frisch, G. W. Trucks, H. B. Schlegel, G. E. Scuseria, 
 M. A. Robb, J. R. Cheeseman, G. Scalmani, V. Barone, 
 G. A. Petersson, H. Nakatsuji, X. Li, M. Caricato, A. V. Marenich, 
 J. Bloino, B. G. Janesko, R. Gomperts, B. Mennucci, H. P. Hratchian, 
 J. V. Ortiz, A. F. Izmaylov, J. L. Sonnenberg, D. Williams-Young, 
 F. Ding, F. Lipparini, F. Egidi, J. Goings, B. Peng, A. Petrone, 
 T. Henderson, D. Ranasinghe, V. G. Zakrzewski, J. Gao, N. Rega, 
 G. Zheng, W. Liang, M. Hada, M. Ehara, K. Toyota, R. Fukuda, 
 J. Hasegawa, M. Ishida, T. Nakajima, Y. Honda, O. Kitao, H. Nakai, 
 T. Vreven, K. Throssell, J. A. Montgomery, Jr., J. E. Peralta, 
 F. Ogliaro, M. J. Bearpark, J. J. Heyd, E. N. Brothers, K. N. Kudin, 
 V. N. Staroverov, T. A. Keith, R. Kobayashi, J. Normand, 
 K. Raghavachari, A. P. Rendell, J. C. Burant, S. S. Iyengar, 
 J. Tomasi, M. Cossi, J. M. Millam, M. Klene, C. Adamo, R. Cammi, 
 J. W. Ochterski, R. L. Martin, K. Morokuma, O. Farkas, 
 J. B. Foresman, and D. J. Fox, Gaussian, Inc., Wallingford CT, 2019.
 
 ******************************************
 Gaussian 16:  ES64L-G16RevC.01  3-Jul-2019
                22-Feb-2022 
 ******************************************
 %nproc=4
 Will use up to    4 processors via shared memory.
 %mem=16GB
 %chk=CH3CH2_w1u.chk
 ----------------------------------------------------------------------
 #p w1u scf(verytight, maxcycles=1000) opt(calcfc, maxcyc=1000) int(gri
 d=ultrafine)
 ----------------------------------------------------------------------
 1/6=1000,10=4,18=20,19=15,26=4,38=1/1,3;
 2/9=110,12=2,17=6,18=5,40=1/2;
 3/5=16,6=1,7=9,11=2,25=1,30=1,71=2,74=-5,75=-5,140=1/1,2,3;
 4//1;
 5/5=2,7=1000,17=3,38=5/2;
 8/6=4,10=90,11=11/1;
 11/6=1,8=1,9=11,15=111,16=1/1,2,10;
 10/6=1,13=1/2;
 6/7=2,8=2,9=2,10=2,28=1/1;
 7/10=1,25=1/1,2,3,16;
 1/6=1000,10=4,18=20,19=15,26=4/3(2);
 2/9=110/2;
 99//99;
 2/9=110/2;
 3/5=16,6=1,7=9,11=2,25=1,30=1,71=1,74=-5,75=-5/1,2,3;
 4/5=5,16=3,69=1/1;
 5/5=2,7=1000,17=3,38=5/2;
 7//1,2,3,16;
 1/6=1000,18=20,19=15,26=4/3(-5);
 2/9=110/2;
 6/7=2,8=2,9=2,10=2,19=2,28=1/1;
 99/9=1/99;
 Leave Link    1 at Tue Feb 22 15:07:48 2022, MaxMem=  2147483648 cpu:               0.2 elap:               0.0
 (Enter /home/saurabh/gaussian/g16/l101.exe)
 ----------
 CH3CH2_w1u
 ----------
 Symbolic Z-matrix:
 Charge =  0 Multiplicity = 2
 C                    -4.48772   2.12977   0.07331 
 C                    -3.10827   2.71804  -0.15831 
 H                    -4.54749   1.12546  -0.39532 
 H                    -5.26077   2.78988  -0.37351 
 H                    -4.67302   2.03352   1.16337 
 H                    -2.91268   2.81063  -1.2474 
 H                    -3.03845   3.72042   0.31426 
 
 ITRead=  0  0  0  0  0  0  0
 MicOpt= -1 -1 -1 -1 -1 -1 -1
 NAtoms=      7 NQM=        7 NQMF=       0 NMMI=      0 NMMIF=      0
                NMic=       0 NMicF=      0.
                    Isotopes and Nuclear Properties:
 (Nuclear quadrupole moments (NQMom) in fm**2, nuclear magnetic moments (NMagM)
  in nuclear magnetons)

  Atom         1           2           3           4           5           6           7
 IAtWgt=          12          12           1           1           1           1           1
 AtmWgt=  12.0000000  12.0000000   1.0078250   1.0078250   1.0078250   1.0078250   1.0078250
 NucSpn=           0           0           1           1           1           1           1
 AtZEff=  -0.0000000  -0.0000000  -0.0000000  -0.0000000  -0.0000000  -0.0000000  -0.0000000
 NQMom=    0.0000000   0.0000000   0.0000000   0.0000000   0.0000000   0.0000000   0.0000000
 NMagM=    0.0000000   0.0000000   2.7928460   2.7928460   2.7928460   2.7928460   2.7928460
 AtZNuc=   6.0000000   6.0000000   1.0000000   1.0000000   1.0000000   1.0000000   1.0000000
 Leave Link  101 at Tue Feb 22 15:07:48 2022, MaxMem=  2147483648 cpu:               1.4 elap:               0.4
 (Enter /home/saurabh/gaussian/g16/l103.exe)

 GradGradGradGradGradGradGradGradGradGradGradGradGradGradGradGradGradGrad
 Berny optimization.
 Initialization pass.
                           ----------------------------
                           !    Initial Parameters    !
                           ! (Angstroms and Degrees)  !
 --------------------------                            --------------------------
 ! Name  Definition              Value          Derivative Info.                !
 --------------------------------------------------------------------------------
 ! R1    R(1,2)                  1.5174         calculate D2E/DX2 analytically  !
 ! R2    R(1,3)                  1.1099         calculate D2E/DX2 analytically  !
 ! R3    R(1,4)                  1.1104         calculate D2E/DX2 analytically  !
 ! R4    R(1,5)                  1.1099         calculate D2E/DX2 analytically  !
 ! R5    R(2,6)                  1.1104         calculate D2E/DX2 analytically  !
 ! R6    R(2,7)                  1.1104         calculate D2E/DX2 analytically  !
 ! A1    A(2,1,3)              109.5912         calculate D2E/DX2 analytically  !
 ! A2    A(2,1,4)              109.9377         calculate D2E/DX2 analytically  !
 ! A3    A(2,1,5)              109.5913         calculate D2E/DX2 analytically  !
 ! A4    A(3,1,4)              109.3013         calculate D2E/DX2 analytically  !
 ! A5    A(3,1,5)              109.1009         calculate D2E/DX2 analytically  !
 ! A6    A(4,1,5)              109.3009         calculate D2E/DX2 analytically  !
 ! A7    A(1,2,6)              110.0091         calculate D2E/DX2 analytically  !
 ! A8    A(1,2,7)              110.0088         calculate D2E/DX2 analytically  !
 ! A9    A(6,2,7)              109.3343         calculate D2E/DX2 analytically  !
 ! D1    D(3,1,2,6)             59.902          calculate D2E/DX2 analytically  !
 ! D2    D(3,1,2,7)           -179.595          calculate D2E/DX2 analytically  !
 ! D3    D(4,1,2,6)            -60.2516         calculate D2E/DX2 analytically  !
 ! D4    D(4,1,2,7)             60.2515         calculate D2E/DX2 analytically  !
 ! D5    D(5,1,2,6)            179.5953         calculate D2E/DX2 analytically  !
 ! D6    D(5,1,2,7)            -59.9016         calculate D2E/DX2 analytically  !
 --------------------------------------------------------------------------------
 Trust Radius=3.00D-01 FncErr=1.00D-07 GrdErr=1.00D-06 EigMax=2.50D+02 EigMin=1.00D-04
 Number of steps in this run=    100 maximum allowed number of steps=    100.
 GradGradGradGradGradGradGradGradGradGradGradGradGradGradGradGradGradGrad

 Leave Link  103 at Tue Feb 22 15:07:48 2022, MaxMem=  2147483648 cpu:               0.1 elap:               0.0
 (Enter /home/saurabh/gaussian/g16/l202.exe)
                          Input orientation:                          
 ---------------------------------------------------------------------
 Center     Atomic      Atomic             Coordinates (Angstroms)
 Number     Number       Type             X           Y           Z
 ---------------------------------------------------------------------
      1          6           0       -4.487720    2.129770    0.073310
      2          6           0       -3.108270    2.718040   -0.158310
      3          1           0       -4.547490    1.125460   -0.395320
      4          1           0       -5.260770    2.789880   -0.373510
      5          1           0       -4.673020    2.033520    1.163370
      6          1           0       -2.912680    2.810630   -1.247400
      7          1           0       -3.038450    3.720420    0.314260
 ---------------------------------------------------------------------
                    Distance matrix (angstroms):
                    1          2          3          4          5
     1  C    0.000000
     2  C    1.517429   0.000000
     3  H    1.109876   2.159592   0.000000
     4  H    1.110405   2.164423   1.810949   0.000000
     5  H    1.109879   2.159594   1.808271   1.810947   0.000000
     6  H    2.165317   1.110381   2.497687   2.505522   3.084560
     7  H    2.165319   1.110389   3.084562   2.505522   2.497687
                    6          7
     6  H    0.000000
     7  H    1.811717   0.000000
 Stoichiometry    C2H5(2)
 Framework group  C1[X(C2H5)]
 Deg. of freedom    15
 Full point group                 C1      NOp   1
 Largest Abelian subgroup         C1      NOp   1
 Largest concise Abelian subgroup C1      NOp   1
                         Standard orientation:                         
 ---------------------------------------------------------------------
 Center     Atomic      Atomic             Coordinates (Angstroms)
 Number     Number       Type             X           Y           Z
 ---------------------------------------------------------------------
      1          6           0        0.695185   -0.000001    0.015861
      2          6           0       -0.813081   -0.000002   -0.150648
      3          1           0        1.122722   -0.904137   -0.465360
      4          1           0        0.957001    0.000008    1.094959
      5          1           0        1.122723    0.904134   -0.465369
      6          1           0       -1.247534   -0.905853    0.322248
      7          1           0       -1.247532    0.905864    0.322240
 ---------------------------------------------------------------------
 Rotational constants (GHZ):          94.0050878          22.5376672          21.3680953
 Leave Link  202 at Tue Feb 22 15:07:48 2022, MaxMem=  2147483648 cpu:               0.1 elap:               0.0
 (Enter /home/saurabh/gaussian/g16/l301.exe)
 Standard basis: CC-pVTZ+d (5D, 7F)
 Ernie: Thresh=  0.10000D-02 Tol=  0.10000D-05 Strict=F.
 Ernie:  6 primitive shells out of 92 were deleted.
 There are   145 symmetry adapted cartesian basis functions of A   symmetry.
 There are   130 symmetry adapted basis functions of A   symmetry.
   130 basis functions,   189 primitive gaussians,   145 cartesian basis functions
     9 alpha electrons        8 beta electrons
       nuclear repulsion energy        36.5524869423 Hartrees.
 IExCor=  402 DFT=T Ex+Corr=B3LYP ExCW=0 ScaHFX=  0.200000
 ScaDFX=  0.800000  0.720000  1.000000  0.810000 ScalE2=  1.000000  1.000000
 IRadAn=      5 IRanWt=     -1 IRanGd=            0 ICorTp=0 IEmpDi=  4
 NAtoms=    7 NActive=    7 NUniq=    7 SFac= 1.00D+00 NAtFMM=   60 NAOKFM=F Big=F
 Integral buffers will be    131072 words long.
 Raffenetti 2 integral format.
 Two-electron integral symmetry is turned on.
 Leave Link  301 at Tue Feb 22 15:07:48 2022, MaxMem=  2147483648 cpu:               0.3 elap:               0.1
 (Enter /home/saurabh/gaussian/g16/l302.exe)
 NPDir=0 NMtPBC=     1 NCelOv=     1 NCel=       1 NClECP=     1 NCelD=      1
         NCelK=      1 NCelE2=     1 NClLst=     1 CellRange=     0.0.
 One-electron integrals computed using PRISM.
 One-electron integral symmetry used in STVInt
 NBasis=   130 RedAO= T EigKep=  1.38D-03  NBF=   130
 NBsUse=   130 1.00D-06 EigRej= -1.00D+00 NBFU=   130
 Precomputing XC quadrature grid using
 IXCGrd= 4 IRadAn=           5 IRanWt=          -1 IRanGd=           0 AccXCQ= 0.00D+00.
 Generated NRdTot=       0 NPtTot=           0 NUsed=           0 NTot=          32
 NSgBfM=   145   145   145   145   145 MxSgAt=     7 MxSgA2=     7.
 Leave Link  302 at Tue Feb 22 15:07:49 2022, MaxMem=  2147483648 cpu:               0.7 elap:               0.2
 (Enter /home/saurabh/gaussian/g16/l303.exe)
 DipDrv:  MaxL=1.
 Leave Link  303 at Tue Feb 22 15:07:49 2022, MaxMem=  2147483648 cpu:               0.1 elap:               0.1
 (Enter /home/saurabh/gaussian/g16/l401.exe)
 ExpMin= 1.03D-01 ExpMax= 8.24D+03 ExpMxC= 2.81D+02 IAcc=3 IRadAn=         5 AccDes= 0.00D+00
 Harris functional with IExCor=  402 and IRadAn=       5 diagonalized for initial guess.
 HarFok:  IExCor=  402 AccDes= 0.00D+00 IRadAn=         5 IDoV= 1 UseB2=F ITyADJ=14
 ICtDFT=  3500011 ScaDFX=  1.000000  1.000000  1.000000  1.000000
 FoFCou: FMM=F IPFlag=           0 FMFlag=      100000 FMFlg1=           0
         NFxFlg=           0 DoJE=T BraDBF=F KetDBF=T FulRan=T
         wScrn=  0.000000 ICntrl=       500 IOpCl=  0 I1Cent=   200000004 NGrid=           0
         NMat0=    1 NMatS0=      1 NMatT0=    0 NMatD0=    1 NMtDS0=    0 NMtDT0=    0
 Petite list used in FoFCou.
 Harris En= -79.1864536041396    
 JPrj=0 DoOrth=F DoCkMO=F.
 Initial guess <Sx>= 0.0000 <Sy>= 0.0000 <Sz>= 0.5000 <S**2>= 0.7500 S= 0.5000
 Leave Link  401 at Tue Feb 22 15:07:49 2022, MaxMem=  2147483648 cpu:               2.1 elap:               0.5
 (Enter /home/saurabh/gaussian/g16/l502.exe)
 Keep R1 and R2 ints in memory in canonical form, NReq=76403626.
 FoFCou: FMM=F IPFlag=           0 FMFlag=           0 FMFlg1=           0
         NFxFlg=           0 DoJE=F BraDBF=F KetDBF=F FulRan=T
         wScrn=  0.000000 ICntrl=       600 IOpCl=  0 I1Cent=           0 NGrid=           0
         NMat0=    1 NMatS0=   8515 NMatT0=    0 NMatD0=    1 NMtDS0=    0 NMtDT0=    0
 Symmetry not used in FoFCou.
 Two-electron integral symmetry not used.
 UHF open shell SCF:
 Using DIIS extrapolation, IDIIS=  1040.
 NGot=  2147483648 LenX=  2074925394 LenY=  2074903928
 Requested convergence on RMS density matrix=1.00D-08 within1000 cycles.
 Requested convergence on MAX density matrix=1.00D-06.
 Requested convergence on             energy=1.00D-06.
 No special actions if energy rises.
 Integral accuracy reduced to 1.0D-05 until final iterations.

 Cycle   1  Pass 0  IDiag  1:
 E= -79.0829946546567    
 DIIS: error= 3.98D-02 at cycle   1 NSaved=   1.
 NSaved= 1 IEnMin= 1 EnMin= -79.0829946546567     IErMin= 1 ErrMin= 3.98D-02
 ErrMax= 3.98D-02  0.00D+00 EMaxC= 1.00D-01 BMatC= 3.73D-01 BMatP= 3.73D-01
 IDIUse=3 WtCom= 6.02D-01 WtEn= 3.98D-01
 Coeff-Com:  0.100D+01
 Coeff-En:   0.100D+01
 Coeff:      0.100D+01
 Gap=     0.218 Goal=   None    Shift=    0.000
 Gap=     0.278 Goal=   None    Shift=    0.000
 GapD=    0.218 DampG=1.000 DampE=0.500 DampFc=0.5000 IDamp=-1.
 Damping current iteration by 5.00D-01
 RMSDP=3.17D-03 MaxDP=1.03D-01              OVMax= 1.85D-01

 Cycle   2  Pass 0  IDiag  1:
 E= -79.1247673344946     Delta-E=       -0.041772679838 Rises=F Damp=T
 DIIS: error= 6.98D-03 at cycle   2 NSaved=   2.
 NSaved= 2 IEnMin= 2 EnMin= -79.1247673344946     IErMin= 2 ErrMin= 6.98D-03
 ErrMax= 6.98D-03  0.00D+00 EMaxC= 1.00D-01 BMatC= 1.73D-02 BMatP= 3.73D-01
 IDIUse=3 WtCom= 9.30D-01 WtEn= 6.98D-02
 Coeff-Com:  0.666D-01 0.933D+00
 Coeff-En:   0.138D+00 0.862D+00
 Coeff:      0.716D-01 0.928D+00
 Gap=     0.274 Goal=   None    Shift=    0.000
 Gap=     0.290 Goal=   None    Shift=    0.000
 RMSDP=4.93D-04 MaxDP=1.47D-02 DE=-4.18D-02 OVMax= 1.03D-01

 Cycle   3  Pass 0  IDiag  1:
 E= -79.1786576901046     Delta-E=       -0.053890355610 Rises=F Damp=F
 DIIS: error= 2.56D-03 at cycle   3 NSaved=   3.
 NSaved= 3 IEnMin= 3 EnMin= -79.1786576901046     IErMin= 3 ErrMin= 2.56D-03
 ErrMax= 2.56D-03  0.00D+00 EMaxC= 1.00D-01 BMatC= 1.45D-03 BMatP= 1.73D-02
 IDIUse=3 WtCom= 9.74D-01 WtEn= 2.56D-02
 Coeff-Com: -0.276D-01 0.139D+00 0.889D+00
 Coeff-En:   0.000D+00 0.000D+00 0.100D+01
 Coeff:     -0.269D-01 0.135D+00 0.892D+00
 Gap=     0.276 Goal=   None    Shift=    0.000
 Gap=     0.268 Goal=   None    Shift=    0.000
 RMSDP=1.04D-04 MaxDP=1.98D-03 DE=-5.39D-02 OVMax= 7.16D-03

 Cycle   4  Pass 0  IDiag  1:
 E= -79.1790431653710     Delta-E=       -0.000385475266 Rises=F Damp=F
 DIIS: error= 5.92D-04 at cycle   4 NSaved=   4.
 NSaved= 4 IEnMin= 4 EnMin= -79.1790431653710     IErMin= 4 ErrMin= 5.92D-04
 ErrMax= 5.92D-04  0.00D+00 EMaxC= 1.00D-01 BMatC= 1.06D-04 BMatP= 1.45D-03
 IDIUse=3 WtCom= 9.94D-01 WtEn= 5.92D-03
 Coeff-Com: -0.797D-02-0.107D-02 0.224D+00 0.785D+00
 Coeff-En:   0.000D+00 0.000D+00 0.000D+00 0.100D+01
 Coeff:     -0.792D-02-0.107D-02 0.222D+00 0.787D+00
 Gap=     0.276 Goal=   None    Shift=    0.000
 Gap=     0.269 Goal=   None    Shift=    0.000
 RMSDP=3.22D-05 MaxDP=1.07D-03 DE=-3.85D-04 OVMax= 2.50D-03

 Cycle   5  Pass 0  IDiag  1:
 E= -79.1790708517221     Delta-E=       -0.000027686351 Rises=F Damp=F
 DIIS: error= 2.35D-04 at cycle   5 NSaved=   5.
 NSaved= 5 IEnMin= 5 EnMin= -79.1790708517221     IErMin= 5 ErrMin= 2.35D-04
 ErrMax= 2.35D-04  0.00D+00 EMaxC= 1.00D-01 BMatC= 1.33D-05 BMatP= 1.06D-04
 IDIUse=3 WtCom= 9.98D-01 WtEn= 2.35D-03
 Coeff-Com: -0.163D-02-0.660D-02 0.420D-01 0.274D+00 0.692D+00
 Coeff-En:   0.000D+00 0.000D+00 0.000D+00 0.000D+00 0.100D+01
 Coeff:     -0.162D-02-0.659D-02 0.419D-01 0.273D+00 0.693D+00
 Gap=     0.277 Goal=   None    Shift=    0.000
 Gap=     0.269 Goal=   None    Shift=    0.000
 RMSDP=1.29D-05 MaxDP=7.35D-04 DE=-2.77D-05 OVMax= 1.01D-03

 Cycle   6  Pass 0  IDiag  1:
 E= -79.1790744497722     Delta-E=       -0.000003598050 Rises=F Damp=F
 DIIS: error= 1.11D-04 at cycle   6 NSaved=   6.
 NSaved= 6 IEnMin= 6 EnMin= -79.1790744497722     IErMin= 6 ErrMin= 1.11D-04
 ErrMax= 1.11D-04  0.00D+00 EMaxC= 1.00D-01 BMatC= 2.80D-06 BMatP= 1.33D-05
 IDIUse=3 WtCom= 9.99D-01 WtEn= 1.11D-03
 Coeff-Com:  0.137D-02-0.245D-02-0.382D-01-0.887D-01 0.278D+00 0.850D+00
 Coeff-En:   0.000D+00 0.000D+00 0.000D+00 0.000D+00 0.000D+00 0.100D+01
 Coeff:      0.137D-02-0.245D-02-0.382D-01-0.886D-01 0.278D+00 0.850D+00
 Gap=     0.277 Goal=   None    Shift=    0.000
 Gap=     0.269 Goal=   None    Shift=    0.000
 RMSDP=5.79D-06 MaxDP=2.67D-04 DE=-3.60D-06 OVMax= 5.34D-04

 Initial convergence to 1.0D-05 achieved.  Increase integral accuracy.
 Cycle   7  Pass 1  IDiag  1:
 E= -79.1790746489449     Delta-E=       -0.000000199173 Rises=F Damp=F
 DIIS: error= 2.76D-05 at cycle   1 NSaved=   1.
 NSaved= 1 IEnMin= 1 EnMin= -79.1790746489449     IErMin= 1 ErrMin= 2.76D-05
 ErrMax= 2.76D-05  0.00D+00 EMaxC= 1.00D-01 BMatC= 1.17D-07 BMatP= 1.17D-07
 IDIUse=1 WtCom= 1.00D+00 WtEn= 0.00D+00
 Coeff-Com:  0.100D+01
 Coeff:      0.100D+01
 Gap=     0.277 Goal=   None    Shift=    0.000
 Gap=     0.269 Goal=   None    Shift=    0.000
 RMSDP=5.79D-06 MaxDP=2.67D-04 DE=-1.99D-07 OVMax= 1.30D-04

 Cycle   8  Pass 1  IDiag  1:
 E= -79.1790746917637     Delta-E=       -0.000000042819 Rises=F Damp=F
 DIIS: error= 1.55D-05 at cycle   2 NSaved=   2.
 NSaved= 2 IEnMin= 2 EnMin= -79.1790746917637     IErMin= 2 ErrMin= 1.55D-05
 ErrMax= 1.55D-05  0.00D+00 EMaxC= 1.00D-01 BMatC= 6.10D-08 BMatP= 1.17D-07
 IDIUse=1 WtCom= 1.00D+00 WtEn= 0.00D+00
 Coeff-Com:  0.386D+00 0.614D+00
 Coeff:      0.386D+00 0.614D+00
 Gap=     0.277 Goal=   None    Shift=    0.000
 Gap=     0.269 Goal=   None    Shift=    0.000
 RMSDP=7.33D-07 MaxDP=2.13D-05 DE=-4.28D-08 OVMax= 5.92D-05

 Cycle   9  Pass 1  IDiag  1:
 E= -79.1790747092994     Delta-E=       -0.000000017536 Rises=F Damp=F
 DIIS: error= 7.28D-06 at cycle   3 NSaved=   3.
 NSaved= 3 IEnMin= 3 EnMin= -79.1790747092994     IErMin= 3 ErrMin= 7.28D-06
 ErrMax= 7.28D-06  0.00D+00 EMaxC= 1.00D-01 BMatC= 9.26D-09 BMatP= 6.10D-08
 IDIUse=1 WtCom= 1.00D+00 WtEn= 0.00D+00
 Coeff-Com: -0.118D+00 0.152D+00 0.967D+00
 Coeff:     -0.118D+00 0.152D+00 0.967D+00
 Gap=     0.277 Goal=   None    Shift=    0.000
 Gap=     0.269 Goal=   None    Shift=    0.000
 RMSDP=4.50D-07 MaxDP=1.37D-05 DE=-1.75D-08 OVMax= 3.48D-05

 Cycle  10  Pass 1  IDiag  1:
 E= -79.1790747132780     Delta-E=       -0.000000003979 Rises=F Damp=F
 DIIS: error= 3.42D-06 at cycle   4 NSaved=   4.
 NSaved= 4 IEnMin= 4 EnMin= -79.1790747132780     IErMin= 4 ErrMin= 3.42D-06
 ErrMax= 3.42D-06  0.00D+00 EMaxC= 1.00D-01 BMatC= 2.24D-09 BMatP= 9.26D-09
 IDIUse=1 WtCom= 1.00D+00 WtEn= 0.00D+00
 Coeff-Com: -0.148D+00-0.726D-01 0.435D+00 0.786D+00
 Coeff:     -0.148D+00-0.726D-01 0.435D+00 0.786D+00
 Gap=     0.277 Goal=   None    Shift=    0.000
 Gap=     0.269 Goal=   None    Shift=    0.000
 RMSDP=1.97D-07 MaxDP=6.21D-06 DE=-3.98D-09 OVMax= 1.45D-05

 Cycle  11  Pass 1  IDiag  1:
 E= -79.1790747140967     Delta-E=       -0.000000000819 Rises=F Damp=F
 DIIS: error= 2.66D-07 at cycle   5 NSaved=   5.
 NSaved= 5 IEnMin= 5 EnMin= -79.1790747140967     IErMin= 5 ErrMin= 2.66D-07
 ErrMax= 2.66D-07  0.00D+00 EMaxC= 1.00D-01 BMatC= 1.75D-11 BMatP= 2.24D-09
 IDIUse=1 WtCom= 1.00D+00 WtEn= 0.00D+00
 Coeff-Com: -0.299D-01-0.183D-01 0.753D-01 0.173D+00 0.799D+00
 Coeff:     -0.299D-01-0.183D-01 0.753D-01 0.173D+00 0.799D+00
 Gap=     0.277 Goal=   None    Shift=    0.000
 Gap=     0.269 Goal=   None    Shift=    0.000
 RMSDP=1.67D-08 MaxDP=4.31D-07 DE=-8.19D-10 OVMax= 1.10D-06

 Cycle  12  Pass 1  IDiag  1:
 E= -79.1790747141019     Delta-E=       -0.000000000005 Rises=F Damp=F
 DIIS: error= 1.26D-07 at cycle   6 NSaved=   6.
 NSaved= 6 IEnMin= 6 EnMin= -79.1790747141019     IErMin= 6 ErrMin= 1.26D-07
 ErrMax= 1.26D-07  0.00D+00 EMaxC= 1.00D-01 BMatC= 3.55D-12 BMatP= 1.75D-11
 IDIUse=1 WtCom= 1.00D+00 WtEn= 0.00D+00
 Coeff-Com:  0.329D-02 0.805D-04-0.137D-01-0.123D-01 0.269D+00 0.754D+00
 Coeff:      0.329D-02 0.805D-04-0.137D-01-0.123D-01 0.269D+00 0.754D+00
 Gap=     0.277 Goal=   None    Shift=    0.000
 Gap=     0.269 Goal=   None    Shift=    0.000
 RMSDP=7.51D-09 MaxDP=2.29D-07 DE=-5.20D-12 OVMax= 4.53D-07

 SCF Done:  E(UB3LYP) =  -79.1790747141     A.U. after   12 cycles
            NFock= 12  Conv=0.75D-08     -V/T= 2.0092
 <Sx>= 0.0000 <Sy>= 0.0000 <Sz>= 0.5000 <S**2>= 0.7530 S= 0.5015
 <L.S>=  0.00000000000    
 KE= 7.845611046491D+01 PE=-2.557443202816D+02 EE= 6.155664816028D+01
 Annihilation of the first spin contaminant:
 S**2 before annihilation     0.7530,   after     0.7500
 Leave Link  502 at Tue Feb 22 15:07:56 2022, MaxMem=  2147483648 cpu:              21.9 elap:               6.6
 (Enter /home/saurabh/gaussian/g16/l801.exe)
 DoSCS=F DFT=T ScalE2(SS,OS)=  1.000000  1.000000
 Range of M.O.s used for correlation:     1   130
 NBasis=   130 NAE=     9 NBE=     8 NFC=     0 NFV=     0
 NROrb=    130 NOA=     9 NOB=     8 NVA=   121 NVB=   122

 **** Warning!!: The largest alpha MO coefficient is  0.11617073D+02


 **** Warning!!: The largest beta MO coefficient is  0.11613653D+02

 Leave Link  801 at Tue Feb 22 15:07:56 2022, MaxMem=  2147483648 cpu:               0.1 elap:               0.1
 (Enter /home/saurabh/gaussian/g16/l1101.exe)
 Using compressed storage, NAtomX=     7.
 Will process      8 centers per pass.
 Leave Link 1101 at Tue Feb 22 15:07:56 2022, MaxMem=  2147483648 cpu:               0.6 elap:               0.2
 (Enter /home/saurabh/gaussian/g16/l1102.exe)
 Symmetrizing basis deriv contribution to polar:
 IMax=3 JMax=2 DiffMx= 0.00D+00
 Leave Link 1102 at Tue Feb 22 15:07:56 2022, MaxMem=  2147483648 cpu:               0.1 elap:               0.1
 (Enter /home/saurabh/gaussian/g16/l1110.exe)
 Forming Gx(P) for the SCF density, NAtomX=     7.
 Integral derivatives from FoFJK, PRISM(SPDF).
 Do as many integral derivatives as possible in FoFJK.
 G2DrvN: MDV=    2147482791.
 G2DrvN: will do     8 centers at a time, making    1 passes.
 Calling FoFCou, ICntrl=  3107 FMM=F I1Cent=   0 AccDes= 0.00D+00.
 FoFJK:  IHMeth= 1 ICntrl=    3107 DoSepK=F KAlg= 0 I1Cent=           0 FoldK=F
 IRaf=         0 NMat=       1 IRICut=       1 DoRegI=T DoRafI=F ISym2E= 0 IDoP0=0 IntGTp=1.
 FoFCou: FMM=F IPFlag=           0 FMFlag=      100000 FMFlg1=           0
         NFxFlg=           0 DoJE=F BraDBF=F KetDBF=F FulRan=T
         wScrn=  0.000000 ICntrl=      3107 IOpCl=  1 I1Cent=           0 NGrid=           0
         NMat0=    1 NMatS0=      1 NMatT0=    0 NMatD0=    1 NMtDS0=    0 NMtDT0=    0
 Symmetry not used in FoFCou.
 End of G2Drv F.D. properties file   721 does not exist.
 End of G2Drv F.D. properties file   722 does not exist.
 End of G2Drv F.D. properties file   788 does not exist.
 Leave Link 1110 at Tue Feb 22 15:08:07 2022, MaxMem=  2147483648 cpu:              44.6 elap:              11.2
 (Enter /home/saurabh/gaussian/g16/l1002.exe)
 Minotr:  UHF open shell wavefunction.
          IDoAtm=1111111
          Direct CPHF calculation.
          Differentiating once with respect to nuclear coordinates.
          Requested convergence is 1.0D-08 RMS, and 1.0D-07 maximum.
          Secondary convergence is 1.0D-12 RMS, and 1.0D-12 maximum.
          NewPWx=T KeepS1=F KeepF1=F KeepIn=T MapXYZ=F SortEE=F KeepMc=T.
         2073 words used for storage of precomputed grid.
 Keep R1 and R2 ints in memory in canonical form, NReq=76396515.
 FoFCou: FMM=F IPFlag=           0 FMFlag=           0 FMFlg1=           0
         NFxFlg=           0 DoJE=F BraDBF=F KetDBF=F FulRan=T
         wScrn=  0.000000 ICntrl=       600 IOpCl=  0 I1Cent=           0 NGrid=           0
         NMat0=    1 NMatS0=   8515 NMatT0=    0 NMatD0=    1 NMtDS0=    0 NMtDT0=    0
 Symmetry not used in FoFCou.
 Two-electron integral symmetry not used.
          MDV=    2147483648 using IRadAn=       1.
          Solving linear equations simultaneously, MaxMat=       0.
          There are    24 degrees of freedom in the 1st order CPHF.  IDoFFX=6 NUNeed=     0.
     18 vectors produced by pass  0 Test12= 8.60D-15 4.17D-09 XBig12= 1.54D-01 1.34D-01.
 AX will form    18 AO Fock derivatives at one time.
     18 vectors produced by pass  1 Test12= 8.60D-15 4.17D-09 XBig12= 1.11D-02 3.17D-02.
     18 vectors produced by pass  2 Test12= 8.60D-15 4.17D-09 XBig12= 4.65D-04 5.69D-03.
     18 vectors produced by pass  3 Test12= 8.60D-15 4.17D-09 XBig12= 7.62D-06 5.96D-04.
     18 vectors produced by pass  4 Test12= 8.60D-15 4.17D-09 XBig12= 4.18D-08 4.53D-05.
     18 vectors produced by pass  5 Test12= 8.60D-15 4.17D-09 XBig12= 1.57D-10 2.28D-06.
     10 vectors produced by pass  6 Test12= 8.60D-15 4.17D-09 XBig12= 6.82D-13 1.32D-07.
      3 vectors produced by pass  7 Test12= 8.60D-15 4.17D-09 XBig12= 2.30D-15 9.89D-09.
 InvSVY:  IOpt=1 It=  1 EMax= 1.22D-15
 Solved reduced A of dimension   121 with    18 vectors.
 End of Minotr F.D. properties file   721 does not exist.
 End of Minotr F.D. properties file   722 does not exist.
 End of Minotr F.D. properties file   788 does not exist.
 Leave Link 1002 at Tue Feb 22 15:08:19 2022, MaxMem=  2147483648 cpu:              47.0 elap:              11.8
 (Enter /home/saurabh/gaussian/g16/l601.exe)
 Copying SCF densities to generalized density rwf, IOpCl= 1 IROHF=0.

 **********************************************************************

            Population analysis using the SCF Density.

 **********************************************************************

 Orbital symmetries:
 Alpha Orbitals:
       Occupied  (A) (A) (A) (A) (A) (A) (A) (A) (A)
       Virtual   (A) (A) (A) (A) (A) (A) (A) (A) (A) (A) (A) (A)
                 (A) (A) (A) (A) (A) (A) (A) (A) (A) (A) (A) (A)
                 (A) (A) (A) (A) (A) (A) (A) (A) (A) (A) (A) (A)
                 (A) (A) (A) (A) (A) (A) (A) (A) (A) (A) (A) (A)
                 (A) (A) (A) (A) (A) (A) (A) (A) (A) (A) (A) (A)
                 (A) (A) (A) (A) (A) (A) (A) (A) (A) (A) (A) (A)
                 (A) (A) (A) (A) (A) (A) (A) (A) (A) (A) (A) (A)
                 (A) (A) (A) (A) (A) (A) (A) (A) (A) (A) (A) (A)
                 (A) (A) (A) (A) (A) (A) (A) (A) (A) (A) (A) (A)
                 (A) (A) (A) (A) (A) (A) (A) (A) (A) (A) (A) (A)
                 (A)
 Beta  Orbitals:
       Occupied  (A) (A) (A) (A) (A) (A) (A) (A)
       Virtual   (A) (A) (A) (A) (A) (A) (A) (A) (A) (A) (A) (A)
                 (A) (A) (A) (A) (A) (A) (A) (A) (A) (A) (A) (A)
                 (A) (A) (A) (A) (A) (A) (A) (A) (A) (A) (A) (A)
                 (A) (A) (A) (A) (A) (A) (A) (A) (A) (A) (A) (A)
                 (A) (A) (A) (A) (A) (A) (A) (A) (A) (A) (A) (A)
                 (A) (A) (A) (A) (A) (A) (A) (A) (A) (A) (A) (A)
                 (A) (A) (A) (A) (A) (A) (A) (A) (A) (A) (A) (A)
                 (A) (A) (A) (A) (A) (A) (A) (A) (A) (A) (A) (A)
                 (A) (A) (A) (A) (A) (A) (A) (A) (A) (A) (A) (A)
                 (A) (A) (A) (A) (A) (A) (A) (A) (A) (A) (A) (A)
                 (A) (A)
 The electronic state is 2-A.
 Alpha  occ. eigenvalues --  -10.19318 -10.17646  -0.75824  -0.60386  -0.44666
 Alpha  occ. eigenvalues --   -0.42569  -0.37185  -0.35126  -0.23868
 Alpha virt. eigenvalues --    0.03806   0.07907   0.09433   0.10562   0.12283
 Alpha virt. eigenvalues --    0.18976   0.25191   0.26506   0.27390   0.28381
 Alpha virt. eigenvalues --    0.31292   0.38304   0.43063   0.44073   0.45520
 Alpha virt. eigenvalues --    0.47586   0.47637   0.49654   0.55971   0.55996
 Alpha virt. eigenvalues --    0.64218   0.75534   0.77767   0.84513   0.88712
 Alpha virt. eigenvalues --    0.91571   0.96265   0.98998   1.04384   1.06275
 Alpha virt. eigenvalues --    1.07411   1.09320   1.12702   1.15361   1.19107
 Alpha virt. eigenvalues --    1.21465   1.26509   1.29516   1.35412   1.35937
 Alpha virt. eigenvalues --    1.40259   1.45691   1.47782   1.52506   2.05937
 Alpha virt. eigenvalues --    2.17877   2.18650   2.22330   2.34632   2.34786
 Alpha virt. eigenvalues --    2.38336   2.46499   2.50706   2.58055   2.65488
 Alpha virt. eigenvalues --    2.65518   2.70886   2.74652   2.80038   2.84546
 Alpha virt. eigenvalues --    2.85941   2.88817   2.90355   2.98989   3.01040
 Alpha virt. eigenvalues --    3.03715   3.03905   3.07512   3.12445   3.13265
 Alpha virt. eigenvalues --    3.19660   3.26801   3.28520   3.31663   3.37951
 Alpha virt. eigenvalues --    3.40628   3.41962   3.46397   3.47730   3.65366
 Alpha virt. eigenvalues --    3.68551   3.71164   3.75355   3.75781   3.79809
 Alpha virt. eigenvalues --    3.83108   3.84398   3.90903   3.95423   3.96904
 Alpha virt. eigenvalues --    4.00270   4.02758   4.05293   4.06605   4.19668
 Alpha virt. eigenvalues --    4.22740   4.28668   4.31000   4.33829   4.46041
 Alpha virt. eigenvalues --    4.68376   4.70870   4.76321   4.76947   4.78274
 Alpha virt. eigenvalues --    4.87349   4.89073   4.91883   5.09887   5.20643
 Alpha virt. eigenvalues --    5.21438   5.21760   5.23997   5.30085   5.41762
 Alpha virt. eigenvalues --    5.43981   5.79117   5.79303   5.83325  11.23273
 Alpha virt. eigenvalues --   12.86208
  Beta  occ. eigenvalues --  -10.17841 -10.17669  -0.74288  -0.58313  -0.44064
  Beta  occ. eigenvalues --   -0.41016  -0.36377  -0.34545
  Beta virt. eigenvalues --   -0.07627   0.04054   0.08267   0.09618   0.10791
  Beta virt. eigenvalues --    0.12779   0.19713   0.25481   0.26608   0.27819
  Beta virt. eigenvalues --    0.28970   0.36012   0.40132   0.43332   0.45072
  Beta virt. eigenvalues --    0.45741   0.48285   0.48370   0.51285   0.57061
  Beta virt. eigenvalues --    0.57163   0.64601   0.77016   0.78013   0.84823
  Beta virt. eigenvalues --    0.90485   0.91854   0.97096   0.99349   1.05243
  Beta virt. eigenvalues --    1.07181   1.09101   1.09820   1.13036   1.16292
  Beta virt. eigenvalues --    1.20120   1.23500   1.26822   1.29943   1.36458
  Beta virt. eigenvalues --    1.36557   1.41737   1.46262   1.48641   1.53409
  Beta virt. eigenvalues --    2.10296   2.18253   2.20396   2.24499   2.35445
  Beta virt. eigenvalues --    2.35707   2.39815   2.47379   2.52864   2.59393
  Beta virt. eigenvalues --    2.66780   2.66819   2.72000   2.75641   2.81047
  Beta virt. eigenvalues --    2.86996   2.87437   2.90725   2.91191   3.00427
  Beta virt. eigenvalues --    3.03122   3.04457   3.06398   3.07763   3.16062
  Beta virt. eigenvalues --    3.16091   3.21798   3.27991   3.28925   3.32557
  Beta virt. eigenvalues --    3.38974   3.41102   3.42668   3.46729   3.48529
  Beta virt. eigenvalues --    3.66063   3.69604   3.72027   3.76022   3.76658
  Beta virt. eigenvalues --    3.80058   3.84007   3.84819   3.91296   3.96124
  Beta virt. eigenvalues --    3.97719   4.01590   4.03783   4.06205   4.07131
  Beta virt. eigenvalues --    4.20190   4.23071   4.29441   4.31296   4.35767
  Beta virt. eigenvalues --    4.46624   4.69138   4.72420   4.76818   4.77252
  Beta virt. eigenvalues --    4.79325   4.88110   4.90538   4.92914   5.10548
  Beta virt. eigenvalues --    5.21120   5.21973   5.22203   5.24725   5.30892
  Beta virt. eigenvalues --    5.42429   5.44907   5.79797   5.80049   5.83676
  Beta virt. eigenvalues --   11.25061  12.86392
          Condensed to atoms (all electrons):
               1          2          3          4          5          6
     1  C    4.814789   0.336510   0.398855   0.397009   0.398855  -0.046200
     2  C    0.336510   5.197466  -0.035747  -0.042904  -0.035746   0.399738
     3  H    0.398855  -0.035747   0.602608  -0.030724  -0.029396  -0.007540
     4  H    0.397009  -0.042904  -0.030724   0.613937  -0.030724  -0.002667
     5  H    0.398855  -0.035746  -0.029396  -0.030724   0.602609   0.007825
     6  H   -0.046200   0.399738  -0.007540  -0.002667   0.007825   0.600931
     7  H   -0.046200   0.399736   0.007825  -0.002667  -0.007540  -0.044937
               7
     1  C   -0.046200
     2  C    0.399736
     3  H    0.007825
     4  H   -0.002667
     5  H   -0.007540
     6  H   -0.044937
     7  H    0.600937
          Atomic-Atomic Spin Densities.
               1          2          3          4          5          6
     1  C   -0.022484  -0.033339   0.003347   0.017507   0.003347   0.002609
     2  C   -0.033339   1.047966  -0.004640  -0.029241  -0.004640   0.002844
     3  H    0.003347  -0.004640   0.010589  -0.006853   0.002305   0.001467
     4  H    0.017507  -0.029241  -0.006853   0.086636  -0.006854  -0.003732
     5  H    0.003347  -0.004640   0.002305  -0.006854   0.010590   0.000161
     6  H    0.002609   0.002844   0.001467  -0.003732   0.000161  -0.020625
     7  H    0.002609   0.002843   0.000161  -0.003732   0.001467   0.006341
               7
     1  C    0.002609
     2  C    0.002843
     3  H    0.000161
     4  H   -0.003732
     5  H    0.001467
     6  H    0.006341
     7  H   -0.020626
 Mulliken charges and spin densities:
               1          2
     1  C   -0.253618  -0.026403
     2  C   -0.219053   0.981793
     3  H    0.094119   0.006376
     4  H    0.098739   0.053731
     5  H    0.094118   0.006377
     6  H    0.092849  -0.010936
     7  H    0.092845  -0.010937
 Sum of Mulliken charges =  -0.00000   1.00000
 Mulliken charges and spin densities with hydrogens summed into heavy atoms:
               1          2
     1  C    0.033358   0.040081
     2  C   -0.033358   0.959919
 APT charges:
               1
     1  C   -0.851793
     2  C   -0.584141
     3  H    0.293714
     4  H    0.285664
     5  H    0.293714
     6  H    0.281422
     7  H    0.281419
 Sum of APT charges =  -0.00000
 APT charges with hydrogens summed into heavy atoms:
               1
     1  C    0.021299
     2  C   -0.021299
 Electronic spatial extent (au):  <R**2>=             99.7234
 Charge=             -0.0000 electrons
 Dipole moment (field-independent basis, Debye):
    X=              0.3939    Y=             -0.0000    Z=              0.6204  Tot=              0.7349
 Quadrupole moment (field-independent basis, Debye-Ang):
   XX=            -15.4116   YY=            -14.0991   ZZ=            -14.9480
   XY=              0.0000   XZ=             -0.7454   YZ=              0.0000
 Traceless Quadrupole moment (field-independent basis, Debye-Ang):
   XX=             -0.5920   YY=              0.7204   ZZ=             -0.1284
   XY=              0.0000   XZ=             -0.7454   YZ=              0.0000
 Octapole moment (field-independent basis, Debye-Ang**2):
  XXX=              1.2100  YYY=             -0.0000  ZZZ=              1.7125  XYY=              0.1527
  XXY=             -0.0000  XXZ=              1.1001  XZZ=              1.2854  YZZ=             -0.0000
  YYZ=              0.1352  XYZ=              0.0000
 Hexadecapole moment (field-independent basis, Debye-Ang**3):
 XXXX=            -90.5271 YYYY=            -30.5184 ZZZZ=            -26.1791 XXXY=              0.0000
 XXXZ=             -2.0377 YYYX=             -0.0000 YYYZ=             -0.0000 ZZZX=             -0.3844
 ZZZY=              0.0000 XXYY=            -18.5869 XXZZ=            -19.2890 YYZZ=             -9.5375
 XXYZ=             -0.0000 YYXZ=             -1.6421 ZZXY=              0.0000
 N-N= 3.655248694233D+01 E-N=-2.557443305698D+02  KE= 7.845611046491D+01
  Exact polarizability:       0.000       0.000       0.000       0.000       0.000       0.000
 Approx polarizability:      35.725      -0.000      34.802      -0.201       0.000      31.235
                          Isotropic Fermi Contact Couplings
        Atom                 a.u.       MegaHertz       Gauss      10(-4) cm-1
     1  C(13)             -0.01201     -13.50079      -4.81742      -4.50338
     2  C(13)              0.26415     296.95114     105.95955      99.05224
     3  H(1)               0.00499      22.30015       7.95725       7.43853
     4  H(1)               0.02927     130.85339      46.69174      43.64799
     5  H(1)               0.00499      22.30039       7.95733       7.43861
     6  H(1)              -0.00146      -6.53157      -2.33063      -2.17870
     7  H(1)              -0.00146      -6.53201      -2.33078      -2.17884
 --------------------------------------------------------
       Center         ----  Spin Dipole Couplings  ----
                      3XX-RR        3YY-RR        3ZZ-RR
 --------------------------------------------------------
     1   Atom        0.020942     -0.027689      0.006746
     2   Atom       -0.446991     -0.518438      0.965428
     3   Atom        0.013207     -0.003838     -0.009369
     4   Atom        0.005631     -0.010915      0.005284
     5   Atom        0.013207     -0.003838     -0.009369
     6   Atom       -0.035311      0.030810      0.004501
     7   Atom       -0.035311      0.030811      0.004500
 --------------------------------------------------------
                        XY            XZ            YZ
 --------------------------------------------------------
     1   Atom        0.000000      0.031929      0.000000
     2   Atom        0.000001      0.333294      0.000007
     3   Atom       -0.012282     -0.001216      0.000605
     4   Atom        0.000000      0.007868      0.000000
     5   Atom        0.012282     -0.001216     -0.000605
     6   Atom        0.046113     -0.004579     -0.030971
     7   Atom       -0.046112     -0.004578      0.030970
 --------------------------------------------------------


 ---------------------------------------------------------------------------------
              Anisotropic Spin Dipole Couplings in Principal Axis System
 ---------------------------------------------------------------------------------

       Atom             a.u.   MegaHertz   Gauss  10(-4) cm-1        Axes

              Baa    -0.0277    -3.716    -1.326    -1.239  0.0000  1.0000 -0.0000
     1 C(13)  Bbb    -0.0189    -2.531    -0.903    -0.844 -0.6257  0.0000  0.7801
              Bcc     0.0466     6.247     2.229     2.084  0.7801  0.0000  0.6257
 
              Baa    -0.5217   -70.006   -24.980   -23.351  0.9758  0.0001 -0.2187
     2 C(13)  Bbb    -0.5184   -69.569   -24.824   -23.206 -0.0001  1.0000  0.0000
              Bcc     1.0401   139.575    49.804    46.557  0.2187  0.0000  0.9758
 
              Baa    -0.0103    -5.478    -1.955    -1.827  0.4647  0.8848  0.0338
     3 H(1)   Bbb    -0.0094    -5.032    -1.796    -1.678  0.0257 -0.0516  0.9983
              Bcc     0.0197    10.510     3.750     3.506  0.8851 -0.4631 -0.0467
 
              Baa    -0.0109    -5.824    -2.078    -1.943  0.0000  1.0000 -0.0000
     4 H(1)   Bbb    -0.0024    -1.287    -0.459    -0.429 -0.6993  0.0000  0.7149
              Bcc     0.0133     7.111     2.537     2.372  0.7149  0.0000  0.6993
 
              Baa    -0.0103    -5.478    -1.955    -1.827 -0.4647  0.8848 -0.0338
     5 H(1)   Bbb    -0.0094    -5.032    -1.796    -1.678  0.0256  0.0516  0.9983
              Bcc     0.0197    10.510     3.750     3.506  0.8851  0.4631 -0.0467
 
              Baa    -0.0608   -32.414   -11.566   -10.812  0.8552 -0.4889 -0.1720
     6 H(1)   Bbb    -0.0077    -4.087    -1.458    -1.363  0.3488  0.2974  0.8888
              Bcc     0.0684    36.501    13.024    12.175  0.3833  0.8201 -0.4249
 
              Baa    -0.0608   -32.414   -11.566   -10.812  0.8552  0.4889 -0.1720
     7 H(1)   Bbb    -0.0077    -4.087    -1.458    -1.363  0.3488 -0.2974  0.8888
              Bcc     0.0684    36.501    13.024    12.175 -0.3833  0.8201  0.4249
 

 ---------------------------------------------------------------------------------

 No NMR shielding tensors so no spin-rotation constants.
 Leave Link  601 at Tue Feb 22 15:08:19 2022, MaxMem=  2147483648 cpu:               0.9 elap:               0.2
 (Enter /home/saurabh/gaussian/g16/l701.exe)
 ... and contract with generalized density number  0.
 Compute integral second derivatives.
 Leave Link  701 at Tue Feb 22 15:08:19 2022, MaxMem=  2147483648 cpu:               0.6 elap:               0.2
 (Enter /home/saurabh/gaussian/g16/l702.exe)
 L702 exits ... SP integral derivatives will be done elsewhere.
 Leave Link  702 at Tue Feb 22 15:08:19 2022, MaxMem=  2147483648 cpu:               0.1 elap:               0.0
 (Enter /home/saurabh/gaussian/g16/l703.exe)
 Integral derivatives from FoFJK, PRISM(SPDF).
 Compute integral second derivatives, UseDBF=F ICtDFT=           0.
 Calling FoFJK, ICntrl=    100127 FMM=F ISym2X=0 I1Cent= 0 IOpClX= 1 NMat=1 NMatS=1 NMatT=0.
 FoFJK:  IHMeth= 1 ICntrl=  100127 DoSepK=F KAlg= 0 I1Cent=           0 FoldK=F
 IRaf=         0 NMat=       1 IRICut=       1 DoRegI=T DoRafI=F ISym2E= 0 IDoP0=0 IntGTp=1.
 FoFCou: FMM=F IPFlag=           0 FMFlag=      100000 FMFlg1=         800
         NFxFlg=           0 DoJE=F BraDBF=F KetDBF=F FulRan=T
         wScrn=  0.000000 ICntrl=    100127 IOpCl=  1 I1Cent=           0 NGrid=           0
         NMat0=    1 NMatS0=      1 NMatT0=    0 NMatD0=    1 NMtDS0=    0 NMtDT0=    0
 Symmetry not used in FoFCou.
 Leave Link  703 at Tue Feb 22 15:08:44 2022, MaxMem=  2147483648 cpu:              96.3 elap:              24.1
 (Enter /home/saurabh/gaussian/g16/l716.exe)
 Dipole        = 1.54965654D-01-5.16827609D-07 2.44098328D-01
 Polarizability= 0.00000000D+00 0.00000000D+00 0.00000000D+00
                 0.00000000D+00 0.00000000D+00 0.00000000D+00
 ***** Axes restored to original set *****
 -------------------------------------------------------------------
 Center     Atomic                   Forces (Hartrees/Bohr)
 Number     Number              X              Y              Z
 -------------------------------------------------------------------
      1        6           0.014286714   -0.014615802    0.009666997
      2        6          -0.035719909    0.033365535   -0.022310194
      3        1          -0.004886080    0.010367596    0.005502461
      4        1           0.005469820   -0.006181590    0.004041419
      5        1          -0.003457029    0.000034357   -0.012235787
      6        1           0.011657952   -0.007899685    0.013819607
      7        1           0.012648533   -0.015070411    0.001515498
 -------------------------------------------------------------------
 Cartesian Forces:  Max     0.035719909 RMS     0.014775399
 Force constants in Cartesian coordinates: 
                1             2             3             4             5 
      1  0.412551D+00
      2 -0.162630D-01  0.503372D+00
      3  0.514749D-03  0.105976D-01  0.517671D+00
      4 -0.159552D+00 -0.355401D-01  0.143055D-01  0.292032D+00
      5 -0.554063D-01 -0.889565D-01  0.702491D-03  0.867112D-01  0.377888D+00
      6  0.258794D-01  0.230243D-02 -0.793487D-01 -0.666299D-01  0.735061D-01
      7 -0.471767D-01 -0.781243D-02 -0.264345D-02 -0.365727D-02 -0.288643D-01
      8 -0.840827D-02 -0.230138D+00 -0.843342D-01 -0.302693D-02 -0.116347D-01
      9 -0.242949D-02 -0.841753D-01 -0.938607D-01 -0.191494D-02  0.375892D-02
     10 -0.145240D+00  0.986095D-01 -0.655363D-01 -0.296530D-01  0.112218D-01
     11  0.894216D-01 -0.124836D+00  0.538278D-01 -0.962457D-02  0.805194D-02
     12 -0.601837D-01  0.545678D-01 -0.814376D-01  0.325381D-02 -0.403878D-02
     13 -0.518622D-01 -0.301820D-02  0.332021D-01 -0.776156D-02 -0.218658D-02
     14 -0.351202D-02 -0.550614D-01  0.164073D-01 -0.160430D-02 -0.133179D-03
     15  0.336230D-01  0.163361D-01 -0.264248D+00  0.367147D-02  0.754407D-03
     16 -0.608514D-02 -0.487918D-02  0.329195D-01 -0.478780D-01 -0.867320D-02
     17 -0.447582D-02  0.454074D-02  0.104966D-01 -0.126220D-01 -0.498227D-01
     18  0.281140D-03 -0.274635D-03 -0.439295D-02  0.495480D-01  0.711158D-02
     19 -0.263483D-02 -0.310966D-01 -0.127621D-01 -0.435307D-01 -0.280255D-02
     20 -0.135621D-02 -0.892007D-02 -0.769762D-02 -0.242933D-01 -0.235393D+00
     21  0.231491D-02  0.645954D-03  0.561727D-02 -0.223392D-02 -0.817947D-01
                6             7             8             9            10 
      6  0.443904D+00
      7 -0.144124D-01  0.546504D-01
      8 -0.589825D-02  0.141698D-01  0.253186D+00
      9  0.259057D-02  0.476725D-02  0.951642D-01  0.951073D-01
     10 -0.889083D-02  0.164015D-02 -0.105400D-02  0.126772D-02  0.165373D+00
     11 -0.571764D-02  0.189461D-01 -0.162332D-01  0.116456D-01 -0.102176D+00
     12  0.218296D-02  0.956714D-02 -0.766619D-02  0.509939D-02  0.692725D-01
     13  0.315604D-01 -0.921546D-03  0.729156D-03 -0.219721D-02  0.415554D-02
     14  0.125393D-01  0.522970D-02  0.403376D-02 -0.272505D-01 -0.356595D-02
     15 -0.480672D-02  0.162154D-02  0.100858D-02 -0.112796D-01  0.186577D-02
     16  0.246524D-01  0.101516D-02  0.165619D-03 -0.998877D-03  0.191682D-02
     17  0.236609D-01  0.143142D-02  0.480517D-03  0.480516D-03 -0.170892D-02
     18 -0.272878D+00  0.000000D+00  0.547882D-03  0.649158D-03  0.725025D-03
     19  0.784093D-02 -0.555019D-02 -0.257537D-02  0.150554D-02  0.180752D-02
     20 -0.100393D+00 -0.310030D-02  0.306176D-03  0.376622D-03 -0.132626D-02
     21 -0.916441D-01  0.110009D-02  0.117796D-02  0.169378D-02  0.129602D-02
               11            12            13            14            15 
     11  0.135207D+00
     12 -0.611648D-01  0.855528D-01
     13  0.128048D-02 -0.209086D-01  0.608701D-01
     14 -0.190139D-02  0.180380D-01  0.554688D-02  0.524812D-01
     15  0.727300D-03 -0.117481D-01 -0.416767D-01 -0.204391D-01  0.289589D+00
     16  0.879604D-03 -0.893369D-03 -0.548808D-02 -0.306190D-02  0.563658D-03
     17 -0.196402D-03  0.441272D-03 -0.306190D-02  0.297204D-03  0.113365D-02
     18 -0.597939D-04  0.173110D-03  0.127487D-02  0.374566D-03  0.164063D-02
     19  0.127289D-02 -0.107796D-03  0.100775D-02  0.967594D-03  0.331234D-03
     20 -0.913733D-04 -0.177318D-03  0.710157D-03  0.283724D-03  0.479067D-03
     21  0.741528D-03  0.177375D-03 -0.125487D-02  0.330518D-03  0.853380D-03
               16            17            18            19            20 
     16  0.502770D-01
     17  0.167799D-01  0.418012D-01
     18 -0.553487D-01 -0.935187D-02  0.286265D+00
     19  0.624221D-02  0.365732D-02  0.351981D-02  0.426582D-01
     20 -0.121081D-02  0.289937D-02  0.165227D-02  0.305767D-01  0.240915D+00
     21 -0.894627D-03 -0.268610D-01 -0.114563D-01 -0.327597D-03  0.105760D+00
               21 
     21  0.947587D-01
 FormGI is forming the generalized inverse of G from B-inverse, IUseBI=4.
 Force constants in internal coordinates: 
                1             2             3             4             5 
      1  0.267473D+00
      2  0.873365D-02  0.298744D+00
      3  0.115992D-01  0.325524D-02  0.294438D+00
      4  0.873360D-02  0.298582D-02  0.325537D-02  0.298740D+00
      5  0.583710D-02  0.734287D-03  0.593322D-03 -0.901795D-03  0.298388D+00
      6  0.583729D-02 -0.901798D-03  0.593333D-03  0.734302D-03  0.219732D-02
      7  0.184362D-01  0.317389D-02 -0.624577D-02 -0.602250D-02 -0.157209D-02
      8  0.148901D-01 -0.694635D-02  0.143643D-02 -0.694638D-02 -0.493553D-03
      9  0.184363D-01 -0.602248D-02 -0.624579D-02  0.317381D-02  0.468246D-02
     10 -0.180404D-01  0.567360D-02  0.622691D-02 -0.107704D-02 -0.105093D-03
     11 -0.161137D-01  0.531191D-02 -0.135462D-02  0.531198D-02 -0.101392D-02
     12 -0.180404D-01 -0.107705D-02  0.622694D-02  0.567371D-02 -0.151493D-02
     13  0.244907D-01 -0.111073D-02 -0.559145D-03  0.449730D-02  0.835229D-02
     14  0.244907D-01  0.449731D-02 -0.559149D-03 -0.111075D-02 -0.751120D-02
     15 -0.178867D-01 -0.123367D-02 -0.335247D-03 -0.123365D-02  0.528900D-02
     16 -0.593231D-02 -0.859899D-03  0.522084D-02 -0.453261D-02 -0.428124D-02
     17  0.309036D-02 -0.232315D-03  0.409247D-02 -0.390504D-02  0.281510D-02
     18 -0.451136D-02 -0.551694D-02  0.564194D-03  0.488942D-02 -0.286002D-02
     19  0.451131D-02 -0.488936D-02 -0.564183D-03  0.551700D-02  0.423632D-02
     20 -0.309041D-02  0.390500D-02 -0.409249D-02  0.232315D-03 -0.361826D-02
     21  0.593226D-02  0.453259D-02 -0.522086D-02  0.859892D-03  0.347808D-02
                6             7             8             9            10 
      6  0.298374D+00
      7  0.468250D-02  0.108077D+00
      8 -0.493546D-03 -0.167003D-01  0.930219D-01
      9 -0.157213D-02 -0.205285D-01 -0.167000D-01  0.108077D+00
     10 -0.151496D-02 -0.395449D-01 -0.337522D-01  0.655658D-02  0.523839D-01
     11 -0.101392D-02 -0.383691D-01  0.717513D-02 -0.383693D-01  0.792780D-02
     12 -0.105099D-03  0.655650D-02 -0.337522D-01 -0.395449D-01  0.698214D-02
     13 -0.751138D-02 -0.965270D-02 -0.657950D-02  0.205539D-01  0.308356D-02
     14  0.835229D-02  0.205539D-01 -0.657950D-02 -0.965268D-02 -0.397892D-02
     15  0.528916D-02 -0.313560D-02  0.206216D-02 -0.313557D-02  0.110026D-02
     16 -0.347814D-02 -0.986905D-03  0.874807D-02 -0.868315D-02  0.986462D-02
     17  0.361834D-02  0.206962D-02  0.292150D-02 -0.562665D-02  0.106589D-01
     18 -0.423640D-02 -0.954218D-02  0.291327D-02  0.648562D-02 -0.892400D-02
     19  0.286008D-02 -0.648565D-02 -0.291330D-02  0.954212D-02 -0.812974D-02
     20 -0.281516D-02  0.562665D-02 -0.292147D-02 -0.206961D-02 -0.630053D-03
     21  0.428132D-02  0.868318D-02 -0.874804D-02  0.986896D-03  0.164204D-03
               11            12            13            14            15 
     11  0.543434D-01
     12  0.792778D-02  0.523838D-01
     13 -0.343763D-02 -0.397886D-02  0.127817D+00
     14 -0.343764D-02  0.308350D-02 -0.776377D-02  0.127817D+00
     15  0.203241D-02  0.110024D-02 -0.478228D-01 -0.478233D-01  0.503033D-01
     16 -0.886360D-02 -0.164221D-03 -0.115412D-01 -0.809881D-02 -0.512035D-04
     17 -0.107233D-01  0.630031D-03  0.563305D-02  0.907548D-02  0.140248D-02
     18  0.929860D-03  0.812985D-02 -0.520165D-02 -0.119726D-01 -0.726835D-03
     19 -0.929834D-03  0.892411D-02  0.119726D-01  0.520168D-02  0.726846D-03
     20  0.107233D-01 -0.106590D-01 -0.907547D-02 -0.563310D-02 -0.140246D-02
     21  0.886360D-02 -0.986472D-02  0.809878D-02  0.115412D-01  0.512182D-04
               16            17            18            19            20 
     16  0.181457D-01
     17  0.556827D-02  0.166797D-01
     18  0.116210D-02 -0.106823D-01  0.163232D-01
     19 -0.114153D-01  0.429079D-03  0.447877D-02  0.163232D-01
     20  0.135821D-02 -0.975319D-02  0.429062D-03 -0.106823D-01  0.166797D-01
     21 -0.112192D-01  0.135822D-02 -0.114154D-01  0.116209D-02  0.556828D-02
               21 
     21  0.181457D-01
 Leave Link  716 at Tue Feb 22 15:08:44 2022, MaxMem=  2147483648 cpu:               0.1 elap:               0.1
 (Enter /home/saurabh/gaussian/g16/l103.exe)

 GradGradGradGradGradGradGradGradGradGradGradGradGradGradGradGradGradGrad
 Berny optimization.
 Red2BG is reusing G-inverse.
 Internal  Forces:  Max     0.018900487 RMS     0.009895944
 Search for a local minimum.
 Step number   1 out of a maximum of  100
 All quantities printed in internal units (Hartrees-Bohrs-Radians)
 RMS Force = .98959D-02 SwitMx=.10000D-02 MixMth= 1
 Mixed Optimization -- RFO/linear search
 Second derivative matrix not updated -- analytic derivatives used.
 ITU=  0
     Eigenvalues ---    0.00239   0.03839   0.05473   0.05640   0.11105
     Eigenvalues ---    0.11497   0.13241   0.16004   0.17229   0.28283
     Eigenvalues ---    0.29362   0.29720   0.29853   0.30263   0.31521
 RFO step:  Lambda=-1.55142555D-02 EMin= 2.38572916D-03
 Linear search not attempted -- first point.
 Iteration  1 RMS(Cart)=  0.06898862 RMS(Int)=  0.01220121
 Iteration  2 RMS(Cart)=  0.00912660 RMS(Int)=  0.00889614
 Iteration  3 RMS(Cart)=  0.00008378 RMS(Int)=  0.00889580
 Iteration  4 RMS(Cart)=  0.00000197 RMS(Int)=  0.00889580
 Iteration  5 RMS(Cart)=  0.00000005 RMS(Int)=  0.00889580
 ITry= 1 IFail=0 DXMaxC= 1.23D-01 DCOld= 1.00D+10 DXMaxT= 3.00D-01 DXLimC= 3.00D+00 Rises=F
 Variable       Old X    -DE/DX   Delta X   Delta X   Delta X     New X
                                 (Linear)    (Quad)   (Total)
    R1        2.86753  -0.00528   0.00000  -0.05490  -0.05490   2.81262
    R2        2.09736  -0.01144   0.00000  -0.03510  -0.03510   2.06226
    R3        2.09836  -0.00911   0.00000  -0.02053  -0.02053   2.07783
    R4        2.09737  -0.01144   0.00000  -0.03511  -0.03511   2.06226
    R5        2.09832  -0.01216   0.00000  -0.04969  -0.04969   2.04862
    R6        2.09833  -0.01216   0.00000  -0.04971  -0.04971   2.04862
    A1        1.91273   0.00701   0.00000   0.03709   0.03638   1.94911
    A2        1.91877  -0.00147   0.00000   0.01714   0.01693   1.93571
    A3        1.91273   0.00701   0.00000   0.03709   0.03638   1.94911
    A4        1.90767  -0.00399   0.00000  -0.03878  -0.03897   1.86870
    A5        1.90417  -0.00463   0.00000  -0.01440  -0.01550   1.88867
    A6        1.90766  -0.00399   0.00000  -0.03877  -0.03896   1.86870
    A7        1.92002   0.01890   0.00000   0.12780   0.10791   2.02793
    A8        1.92002   0.01890   0.00000   0.12780   0.10792   2.02793
    A9        1.90824  -0.00488   0.00000   0.09902   0.07251   1.98075
    D1        1.04549  -0.01047   0.00000  -0.15674  -0.16234   0.88315
    D2       -3.13452   0.00756   0.00000   0.12895   0.13384  -3.00068
    D3       -1.05159  -0.00901   0.00000  -0.14284  -0.14809  -1.19968
    D4        1.05159   0.00901   0.00000   0.14285   0.14809   1.19968
    D5        3.13453  -0.00756   0.00000  -0.12895  -0.13385   3.00068
    D6       -1.04548   0.01047   0.00000   0.15674   0.16233  -0.88315
         Item               Value     Threshold  Converged?
 Maximum Force            0.018900     0.000450     NO 
 RMS     Force            0.009896     0.000300     NO 
 Maximum Displacement     0.122617     0.001800     NO 
 RMS     Displacement     0.065770     0.001200     NO 
 Predicted change in Energy=-9.118657D-03
 Lowest energy point so far.  Saving SCF results.
 GradGradGradGradGradGradGradGradGradGradGradGradGradGradGradGradGradGrad

 Leave Link  103 at Tue Feb 22 15:08:44 2022, MaxMem=  2147483648 cpu:               0.1 elap:               0.0
 (Enter /home/saurabh/gaussian/g16/l202.exe)
                          Input orientation:                          
 ---------------------------------------------------------------------
 Center     Atomic      Atomic             Coordinates (Angstroms)
 Number     Number       Type             X           Y           Z
 ---------------------------------------------------------------------
      1          6           0       -4.488336    2.135660    0.069831
      2          6           0       -3.173156    2.778613   -0.198821
      3          1           0       -4.553084    1.145354   -0.384083
      4          1           0       -5.310631    2.735632   -0.345924
      5          1           0       -4.675828    2.033262    1.140017
      6          1           0       -2.850750    2.794361   -1.233734
      7          1           0       -2.976615    3.704839    0.329114
 ---------------------------------------------------------------------
                    Distance matrix (angstroms):
                    1          2          3          4          5
     1  C    0.000000
     2  C    1.488376   0.000000
     3  H    1.091300   2.146173   0.000000
     4  H    1.099540   2.142962   1.761908   0.000000
     5  H    1.091300   2.146173   1.768143   1.761907   0.000000
     6  H    2.194278   1.084084   2.517751   2.615850   3.089478
     7  H    2.194277   1.084083   3.089477   2.615850   2.517749
                    6          7
     6  H    0.000000
     7  H    1.813093   0.000000
 Stoichiometry    C2H5(2)
 Framework group  C1[X(C2H5)]
 Deg. of freedom    15
 Full point group                 C1      NOp   1
 RotChk:  IX=0 Diff= 3.18D-02
 Largest Abelian subgroup         C1      NOp   1
 Largest concise Abelian subgroup C1      NOp   1
                         Standard orientation:                         
 ---------------------------------------------------------------------
 Center     Atomic      Atomic             Coordinates (Angstroms)
 Number     Number       Type             X           Y           Z
 ---------------------------------------------------------------------
      1          6           0        0.687537   -0.000000    0.007569
      2          6           0       -0.796736    0.000000   -0.102872
      3          1           0        1.126372   -0.884071   -0.458025
      4          1           0        1.002625   -0.000001    1.060996
      5          1           0        1.126372    0.884072   -0.458023
      6          1           0       -1.300088   -0.906546    0.213434
      7          1           0       -1.300086    0.906546    0.213433
 ---------------------------------------------------------------------
 Rotational constants (GHZ):         101.4032884          22.9524882          21.5069047
 Leave Link  202 at Tue Feb 22 15:08:44 2022, MaxMem=  2147483648 cpu:               0.1 elap:               0.0
 (Enter /home/saurabh/gaussian/g16/l301.exe)
 Standard basis: CC-pVTZ+d (5D, 7F)
 Ernie: Thresh=  0.10000D-02 Tol=  0.10000D-05 Strict=F.
 Ernie:  6 primitive shells out of 92 were deleted.
 There are   145 symmetry adapted cartesian basis functions of A   symmetry.
 There are   130 symmetry adapted basis functions of A   symmetry.
   130 basis functions,   189 primitive gaussians,   145 cartesian basis functions
     9 alpha electrons        8 beta electrons
       nuclear repulsion energy        37.0572719870 Hartrees.
 IExCor=  402 DFT=T Ex+Corr=B3LYP ExCW=0 ScaHFX=  0.200000
 ScaDFX=  0.800000  0.720000  1.000000  0.810000 ScalE2=  1.000000  1.000000
 IRadAn=      5 IRanWt=     -1 IRanGd=            0 ICorTp=0 IEmpDi=  4
 NAtoms=    7 NActive=    7 NUniq=    7 SFac= 1.00D+00 NAtFMM=   60 NAOKFM=F Big=F
 Integral buffers will be    131072 words long.
 Raffenetti 2 integral format.
 Two-electron integral symmetry is turned on.
 Leave Link  301 at Tue Feb 22 15:08:44 2022, MaxMem=  2147483648 cpu:               0.2 elap:               0.1
 (Enter /home/saurabh/gaussian/g16/l302.exe)
 NPDir=0 NMtPBC=     1 NCelOv=     1 NCel=       1 NClECP=     1 NCelD=      1
         NCelK=      1 NCelE2=     1 NClLst=     1 CellRange=     0.0.
 One-electron integrals computed using PRISM.
 One-electron integral symmetry used in STVInt
 NBasis=   130 RedAO= T EigKep=  1.28D-03  NBF=   130
 NBsUse=   130 1.00D-06 EigRej= -1.00D+00 NBFU=   130
 Precomputing XC quadrature grid using
 IXCGrd= 4 IRadAn=           5 IRanWt=          -1 IRanGd=           0 AccXCQ= 0.00D+00.
 Generated NRdTot=       0 NPtTot=           0 NUsed=           0 NTot=          32
 NSgBfM=   145   145   145   145   145 MxSgAt=     7 MxSgA2=     7.
 Leave Link  302 at Tue Feb 22 15:08:44 2022, MaxMem=  2147483648 cpu:               0.6 elap:               0.2
 (Enter /home/saurabh/gaussian/g16/l303.exe)
 DipDrv:  MaxL=1.
 Leave Link  303 at Tue Feb 22 15:08:44 2022, MaxMem=  2147483648 cpu:               0.1 elap:               0.0
 (Enter /home/saurabh/gaussian/g16/l401.exe)
 Initial guess from the checkpoint file:  "CH3CH2_w1u.chk"
 B after Tr=    -0.000000   -0.000000   -0.000000
         Rot=    1.000000   -0.000003   -0.000306   -0.000000 Ang=  -0.04 deg.
 Guess basis will be translated and rotated to current coordinates.
 JPrj=2 DoOrth=T DoCkMO=T.
 Initial guess <Sx>= 0.0000 <Sy>= 0.0000 <Sz>= 0.5000 <S**2>= 0.7529 S= 0.5014
 Generating alternative initial guess.
 ExpMin= 1.03D-01 ExpMax= 8.24D+03 ExpMxC= 2.81D+02 IAcc=3 IRadAn=         5 AccDes= 0.00D+00
 Harris functional with IExCor=  402 and IRadAn=       5 diagonalized for initial guess.
 HarFok:  IExCor=  402 AccDes= 0.00D+00 IRadAn=         5 IDoV= 1 UseB2=F ITyADJ=14
 ICtDFT=  3500011 ScaDFX=  1.000000  1.000000  1.000000  1.000000
 FoFCou: FMM=F IPFlag=           0 FMFlag=      100000 FMFlg1=           0
         NFxFlg=           0 DoJE=T BraDBF=F KetDBF=T FulRan=T
         wScrn=  0.000000 ICntrl=       500 IOpCl=  0 I1Cent=   200000004 NGrid=           0
         NMat0=    1 NMatS0=      1 NMatT0=    0 NMatD0=    1 NMtDS0=    0 NMtDT0=    0
 Petite list used in FoFCou.
 Harris En= -79.2061479109745    
 Leave Link  401 at Tue Feb 22 15:08:45 2022, MaxMem=  2147483648 cpu:               1.9 elap:               0.5
 (Enter /home/saurabh/gaussian/g16/l502.exe)
 Keep R1 and R2 ints in memory in canonical form, NReq=76403626.
 FoFCou: FMM=F IPFlag=           0 FMFlag=           0 FMFlg1=           0
         NFxFlg=           0 DoJE=F BraDBF=F KetDBF=F FulRan=T
         wScrn=  0.000000 ICntrl=       600 IOpCl=  0 I1Cent=           0 NGrid=           0
         NMat0=    1 NMatS0=   8515 NMatT0=    0 NMatD0=    1 NMtDS0=    0 NMtDT0=    0
 Symmetry not used in FoFCou.
 Two-electron integral symmetry not used.
 UHF open shell SCF:
 Using DIIS extrapolation, IDIIS=  1040.
 NGot=  2147483648 LenX=  2074925394 LenY=  2074903928
 Requested convergence on RMS density matrix=1.00D-08 within1000 cycles.
 Requested convergence on MAX density matrix=1.00D-06.
 Requested convergence on             energy=1.00D-06.
 No special actions if energy rises.
 Integral accuracy reduced to 1.0D-05 until final iterations.

 Cycle   1  Pass 0  IDiag  1:
 E= -79.1842401542008    
 DIIS: error= 1.03D-02 at cycle   1 NSaved=   1.
 NSaved= 1 IEnMin= 1 EnMin= -79.1842401542008     IErMin= 1 ErrMin= 1.03D-02
 ErrMax= 1.03D-02  0.00D+00 EMaxC= 1.00D-01 BMatC= 2.03D-02 BMatP= 2.03D-02
 IDIUse=3 WtCom= 8.97D-01 WtEn= 1.03D-01
 Coeff-Com:  0.100D+01
 Coeff-En:   0.100D+01
 Coeff:      0.100D+01
 Recover alternate guess density for next cycle.
 RMSDP=1.68D-03 MaxDP=2.96D-02              OVMax= 0.00D+00

 Cycle   2  Pass 0  IDiag  1:
 E= -79.0840418877836     Delta-E=        0.100198266417 Rises=F Damp=F
 Switch densities from cycles 1 and 2 for lowest energy.
 DIIS: error= 4.19D-02 at cycle   2 NSaved=   2.
 NSaved= 2 IEnMin= 1 EnMin= -79.1842401542008     IErMin= 1 ErrMin= 1.03D-02
 ErrMax= 4.19D-02  0.00D+00 EMaxC= 1.00D+00 BMatC= 4.11D-01 BMatP= 2.03D-02
 IDIUse=1 WtCom= 1.00D+00 WtEn= 0.00D+00
 Coeff-Com:  0.917D+00 0.832D-01
 Coeff:      0.917D+00 0.832D-01
 Gap=     0.265 Goal=   None    Shift=    0.000
 Gap=     0.299 Goal=   None    Shift=    0.000
 RMSDP=4.43D-04 MaxDP=1.91D-02 DE= 1.00D-01 OVMax= 9.81D-02

 Cycle   3  Pass 0  IDiag  1:
 E= -79.1883648186976     Delta-E=       -0.104322930914 Rises=F Damp=F
 DIIS: error= 2.70D-03 at cycle   3 NSaved=   3.
 NSaved= 3 IEnMin= 3 EnMin= -79.1883648186976     IErMin= 3 ErrMin= 2.70D-03
 ErrMax= 2.70D-03  0.00D+00 EMaxC= 1.00D+00 BMatC= 1.59D-03 BMatP= 2.03D-02
 IDIUse=1 WtCom= 1.00D+00 WtEn= 0.00D+00
 Coeff-Com: -0.245D-02 0.513D-01 0.951D+00
 Coeff:     -0.245D-02 0.513D-01 0.951D+00
 Gap=     0.262 Goal=   None    Shift=    0.000
 Gap=     0.290 Goal=   None    Shift=    0.000
 RMSDP=1.33D-04 MaxDP=3.85D-03 DE=-1.04D-01 OVMax= 9.65D-03

 Cycle   4  Pass 0  IDiag  1:
 E= -79.1888011048533     Delta-E=       -0.000436286156 Rises=F Damp=F
 DIIS: error= 6.43D-04 at cycle   4 NSaved=   4.
 NSaved= 4 IEnMin= 4 EnMin= -79.1888011048533     IErMin= 4 ErrMin= 6.43D-04
 ErrMax= 6.43D-04  0.00D+00 EMaxC= 1.00D+00 BMatC= 1.48D-04 BMatP= 1.59D-03
 IDIUse=1 WtCom= 1.00D+00 WtEn= 0.00D+00
 Coeff-Com: -0.142D-01 0.109D-01 0.309D+00 0.694D+00
 Coeff:     -0.142D-01 0.109D-01 0.309D+00 0.694D+00
 Gap=     0.264 Goal=   None    Shift=    0.000
 Gap=     0.289 Goal=   None    Shift=    0.000
 RMSDP=3.70D-05 MaxDP=1.07D-03 DE=-4.36D-04 OVMax= 2.76D-03

 Cycle   5  Pass 0  IDiag  1:
 E= -79.1888350131480     Delta-E=       -0.000033908295 Rises=F Damp=F
 DIIS: error= 2.89D-04 at cycle   5 NSaved=   5.
 NSaved= 5 IEnMin= 5 EnMin= -79.1888350131480     IErMin= 5 ErrMin= 2.89D-04
 ErrMax= 2.89D-04  0.00D+00 EMaxC= 1.00D+00 BMatC= 2.65D-05 BMatP= 1.48D-04
 IDIUse=1 WtCom= 1.00D+00 WtEn= 0.00D+00
 Coeff-Com: -0.468D-02-0.306D-02-0.674D-03 0.290D+00 0.719D+00
 Coeff:     -0.468D-02-0.306D-02-0.674D-03 0.290D+00 0.719D+00
 Gap=     0.263 Goal=   None    Shift=    0.000
 Gap=     0.290 Goal=   None    Shift=    0.000
 RMSDP=1.72D-05 MaxDP=9.07D-04 DE=-3.39D-05 OVMax= 1.26D-03

 Cycle   6  Pass 0  IDiag  1:
 E= -79.1888426299062     Delta-E=       -0.000007616758 Rises=F Damp=F
 DIIS: error= 7.88D-05 at cycle   6 NSaved=   6.
 NSaved= 6 IEnMin= 6 EnMin= -79.1888426299062     IErMin= 6 ErrMin= 7.88D-05
 ErrMax= 7.88D-05  0.00D+00 EMaxC= 1.00D+00 BMatC= 1.58D-06 BMatP= 2.65D-05
 IDIUse=1 WtCom= 1.00D+00 WtEn= 0.00D+00
 Coeff-Com:  0.318D-03-0.155D-02-0.396D-01-0.295D-01 0.143D+00 0.927D+00
 Coeff:      0.318D-03-0.155D-02-0.396D-01-0.295D-01 0.143D+00 0.927D+00
 Gap=     0.263 Goal=   None    Shift=    0.000
 Gap=     0.290 Goal=   None    Shift=    0.000
 RMSDP=7.01D-06 MaxDP=2.46D-04 DE=-7.62D-06 OVMax= 5.77D-04

 Initial convergence to 1.0D-05 achieved.  Increase integral accuracy.
 Cycle   7  Pass 1  IDiag  1:
 E= -79.1888405213444     Delta-E=        0.000002108562 Rises=F Damp=F
 DIIS: error= 1.55D-05 at cycle   1 NSaved=   1.
 NSaved= 1 IEnMin= 1 EnMin= -79.1888405213444     IErMin= 1 ErrMin= 1.55D-05
 ErrMax= 1.55D-05  0.00D+00 EMaxC= 1.00D+00 BMatC= 6.85D-08 BMatP= 6.85D-08
 IDIUse=1 WtCom= 1.00D+00 WtEn= 0.00D+00
 Coeff-Com:  0.100D+01
 Coeff:      0.100D+01
 Gap=     0.263 Goal=   None    Shift=    0.000
 Gap=     0.290 Goal=   None    Shift=    0.000
 RMSDP=7.01D-06 MaxDP=2.46D-04 DE= 2.11D-06 OVMax= 1.18D-04

 Cycle   8  Pass 1  IDiag  1:
 E= -79.1888405454172     Delta-E=       -0.000000024073 Rises=F Damp=F
 DIIS: error= 9.91D-06 at cycle   2 NSaved=   2.
 NSaved= 2 IEnMin= 2 EnMin= -79.1888405454172     IErMin= 2 ErrMin= 9.91D-06
 ErrMax= 9.91D-06  0.00D+00 EMaxC= 1.00D+00 BMatC= 2.26D-08 BMatP= 6.85D-08
 IDIUse=1 WtCom= 1.00D+00 WtEn= 0.00D+00
 Coeff-Com:  0.318D+00 0.682D+00
 Coeff:      0.318D+00 0.682D+00
 Gap=     0.263 Goal=   None    Shift=    0.000
 Gap=     0.290 Goal=   None    Shift=    0.000
 RMSDP=4.70D-07 MaxDP=1.87D-05 DE=-2.41D-08 OVMax= 3.37D-05

 Cycle   9  Pass 1  IDiag  1:
 E= -79.1888405515576     Delta-E=       -0.000000006140 Rises=F Damp=F
 DIIS: error= 4.10D-06 at cycle   3 NSaved=   3.
 NSaved= 3 IEnMin= 3 EnMin= -79.1888405515576     IErMin= 3 ErrMin= 4.10D-06
 ErrMax= 4.10D-06  0.00D+00 EMaxC= 1.00D+00 BMatC= 4.14D-09 BMatP= 2.26D-08
 IDIUse=1 WtCom= 1.00D+00 WtEn= 0.00D+00
 Coeff-Com: -0.391D-01 0.215D+00 0.824D+00
 Coeff:     -0.391D-01 0.215D+00 0.824D+00
 Gap=     0.263 Goal=   None    Shift=    0.000
 Gap=     0.290 Goal=   None    Shift=    0.000
 RMSDP=2.76D-07 MaxDP=1.00D-05 DE=-6.14D-09 OVMax= 2.37D-05

 Cycle  10  Pass 1  IDiag  1:
 E= -79.1888405530466     Delta-E=       -0.000000001489 Rises=F Damp=F
 DIIS: error= 1.73D-06 at cycle   4 NSaved=   4.
 NSaved= 4 IEnMin= 4 EnMin= -79.1888405530466     IErMin= 4 ErrMin= 1.73D-06
 ErrMax= 1.73D-06  0.00D+00 EMaxC= 1.00D+00 BMatC= 7.15D-10 BMatP= 4.14D-09
 IDIUse=1 WtCom= 1.00D+00 WtEn= 0.00D+00
 Coeff-Com: -0.967D-01-0.960D-01 0.300D+00 0.893D+00
 Coeff:     -0.967D-01-0.960D-01 0.300D+00 0.893D+00
 Gap=     0.263 Goal=   None    Shift=    0.000
 Gap=     0.290 Goal=   None    Shift=    0.000
 RMSDP=1.46D-07 MaxDP=5.14D-06 DE=-1.49D-09 OVMax= 1.28D-05

 Cycle  11  Pass 1  IDiag  1:
 E= -79.1888405533400     Delta-E=       -0.000000000293 Rises=F Damp=F
 DIIS: error= 2.49D-07 at cycle   5 NSaved=   5.
 NSaved= 5 IEnMin= 5 EnMin= -79.1888405533400     IErMin= 5 ErrMin= 2.49D-07
 ErrMax= 2.49D-07  0.00D+00 EMaxC= 1.00D+00 BMatC= 9.93D-12 BMatP= 7.15D-10
 IDIUse=1 WtCom= 1.00D+00 WtEn= 0.00D+00
 Coeff-Com: -0.176D-01-0.230D-01 0.428D-01 0.167D+00 0.831D+00
 Coeff:     -0.176D-01-0.230D-01 0.428D-01 0.167D+00 0.831D+00
 Gap=     0.263 Goal=   None    Shift=    0.000
 Gap=     0.290 Goal=   None    Shift=    0.000
 RMSDP=1.50D-08 MaxDP=4.92D-07 DE=-2.93D-10 OVMax= 1.24D-06

 Cycle  12  Pass 1  IDiag  1:
 E= -79.1888405533438     Delta-E=       -0.000000000004 Rises=F Damp=F
 DIIS: error= 1.08D-07 at cycle   6 NSaved=   6.
 NSaved= 6 IEnMin= 6 EnMin= -79.1888405533438     IErMin= 6 ErrMin= 1.08D-07
 ErrMax= 1.08D-07  0.00D+00 EMaxC= 1.00D+00 BMatC= 2.34D-12 BMatP= 9.93D-12
 IDIUse=1 WtCom= 1.00D+00 WtEn= 0.00D+00
 Coeff-Com:  0.131D-01 0.113D-01-0.440D-01-0.120D+00 0.238D+00 0.902D+00
 Coeff:      0.131D-01 0.113D-01-0.440D-01-0.120D+00 0.238D+00 0.902D+00
 Gap=     0.263 Goal=   None    Shift=    0.000
 Gap=     0.290 Goal=   None    Shift=    0.000
 RMSDP=7.35D-09 MaxDP=2.27D-07 DE=-3.85D-12 OVMax= 5.30D-07

 SCF Done:  E(UB3LYP) =  -79.1888405533     A.U. after   12 cycles
            NFock= 12  Conv=0.74D-08     -V/T= 2.0073
 <Sx>= 0.0000 <Sy>= 0.0000 <Sz>= 0.5000 <S**2>= 0.7533 S= 0.5017
 <L.S>=  0.00000000000    
 KE= 7.861160905096D+01 PE=-2.568872569926D+02 EE= 6.202953540124D+01
 Annihilation of the first spin contaminant:
 S**2 before annihilation     0.7533,   after     0.7500
 Leave Link  502 at Tue Feb 22 15:08:51 2022, MaxMem=  2147483648 cpu:              20.9 elap:               6.2
 (Enter /home/saurabh/gaussian/g16/l701.exe)
 ... and contract with generalized density number  0.
 Compute integral first derivatives.
 Leave Link  701 at Tue Feb 22 15:08:51 2022, MaxMem=  2147483648 cpu:               0.6 elap:               0.2
 (Enter /home/saurabh/gaussian/g16/l702.exe)
 L702 exits ... SP integral derivatives will be done elsewhere.
 Leave Link  702 at Tue Feb 22 15:08:51 2022, MaxMem=  2147483648 cpu:               0.1 elap:               0.0
 (Enter /home/saurabh/gaussian/g16/l703.exe)
 Integral derivatives from FoFJK, PRISM(SPDF).
 Compute integral first derivatives, UseDBF=F ICtDFT=           0.
 Calling FoFJK, ICntrl=      2127 FMM=F ISym2X=0 I1Cent= 0 IOpClX= 1 NMat=1 NMatS=1 NMatT=0.
 FoFJK:  IHMeth= 1 ICntrl=    2127 DoSepK=F KAlg= 0 I1Cent=           0 FoldK=F
 IRaf=         0 NMat=       1 IRICut=       1 DoRegI=T DoRafI=F ISym2E= 0 IDoP0=0 IntGTp=1.
 FoFCou: FMM=F IPFlag=           0 FMFlag=      100000 FMFlg1=         800
         NFxFlg=           0 DoJE=F BraDBF=F KetDBF=F FulRan=T
         wScrn=  0.000000 ICntrl=      2127 IOpCl=  1 I1Cent=           0 NGrid=           0
         NMat0=    1 NMatS0=      1 NMatT0=    0 NMatD0=    1 NMtDS0=    0 NMtDT0=    0
 Symmetry not used in FoFCou.
 Leave Link  703 at Tue Feb 22 15:08:53 2022, MaxMem=  2147483648 cpu:               8.7 elap:               2.2
 (Enter /home/saurabh/gaussian/g16/l716.exe)
 Dipole        = 1.33548943D-01 2.97983946D-07 1.90270645D-01
 ***** Axes restored to original set *****
 -------------------------------------------------------------------
 Center     Atomic                   Forces (Hartrees/Bohr)
 Number     Number              X              Y              Z
 -------------------------------------------------------------------
      1        6           0.003419448   -0.005271849    0.003346651
      2        6          -0.012953770    0.012135673   -0.008113708
      3        1          -0.001068085   -0.000128501   -0.000075658
      4        1          -0.000051921   -0.000159848    0.000088879
      5        1          -0.001075771   -0.000072719    0.000020268
      6        1           0.005989530   -0.004152576    0.000820160
      7        1           0.005740568   -0.002350180    0.003913408
 -------------------------------------------------------------------
 Cartesian Forces:  Max     0.012953770 RMS     0.005078139
 Leave Link  716 at Tue Feb 22 15:08:53 2022, MaxMem=  2147483648 cpu:               0.1 elap:               0.0
 (Enter /home/saurabh/gaussian/g16/l103.exe)

 GradGradGradGradGradGradGradGradGradGradGradGradGradGradGradGradGradGrad
 Berny optimization.
 Using GEDIIS/GDIIS optimizer.
 FormGI is forming the generalized inverse of G from B-inverse, IUseBI=4.
 Internal  Forces:  Max     0.005009349 RMS     0.002960153
 Search for a local minimum.
 Step number   2 out of a maximum of  100
 All quantities printed in internal units (Hartrees-Bohrs-Radians)
 RMS Force = .29602D-02 SwitMx=.10000D-02 MixMth= 1
 Mixed Optimization -- RFO/linear search
 Update second derivatives using D2CorX and points    1    2
 DE= -9.77D-03 DEPred=-9.12D-03 R= 1.07D+00
 TightC=F SS=  1.41D+00  RLast= 4.22D-01 DXNew= 5.0454D-01 1.2657D+00
 Trust test= 1.07D+00 RLast= 4.22D-01 DXMaxT set to 5.05D-01
 ITU=  1  0
 Use linear search instead of GDIIS.
     Eigenvalues ---    0.00239   0.03204   0.05472   0.05635   0.11105
     Eigenvalues ---    0.11405   0.13177   0.14530   0.17228   0.27883
     Eigenvalues ---    0.29378   0.29720   0.29853   0.30344   0.33546
 RFO step:  Lambda=-1.76213967D-03 EMin= 2.38572844D-03
 Quartic linear search produced a step of  0.57787.
 Iteration  1 RMS(Cart)=  0.05443613 RMS(Int)=  0.01155523
 Iteration  2 RMS(Cart)=  0.00554622 RMS(Int)=  0.01027079
 Iteration  3 RMS(Cart)=  0.00004422 RMS(Int)=  0.01027068
 Iteration  4 RMS(Cart)=  0.00000077 RMS(Int)=  0.01027068
 ITry= 1 IFail=0 DXMaxC= 1.01D-01 DCOld= 1.00D+10 DXMaxT= 5.05D-01 DXLimC= 3.00D+00 Rises=F
 Variable       Old X    -DE/DX   Delta X   Delta X   Delta X     New X
                                 (Linear)    (Quad)   (Total)
    R1        2.81262   0.00196  -0.03173   0.01794  -0.01379   2.79884
    R2        2.06226   0.00021  -0.02029   0.01938  -0.00091   2.06135
    R3        2.07783  -0.00008  -0.01187   0.01369   0.00183   2.07966
    R4        2.06226   0.00021  -0.02029   0.01938  -0.00091   2.06135
    R5        2.04862   0.00094  -0.02872   0.01984  -0.00887   2.03975
    R6        2.04862   0.00094  -0.02873   0.01985  -0.00887   2.03975
    A1        1.94911   0.00123   0.02102  -0.01500   0.00559   1.95470
    A2        1.93571  -0.00042   0.00978   0.00989   0.01952   1.95523
    A3        1.94911   0.00123   0.02102  -0.01499   0.00559   1.95471
    A4        1.86870  -0.00073  -0.02252   0.00616  -0.01649   1.85220
    A5        1.88867  -0.00074  -0.00895   0.00949  -0.00011   1.88856
    A6        1.86870  -0.00073  -0.02252   0.00616  -0.01649   1.85221
    A7        2.02793   0.00501   0.06236   0.00613   0.04274   2.07068
    A8        2.02793   0.00501   0.06236   0.00613   0.04274   2.07068
    A9        1.98075  -0.00226   0.04190   0.05986   0.07327   2.05402
    D1        0.88315  -0.00482  -0.09381  -0.05369  -0.15127   0.73188
    D2       -3.00068   0.00404   0.07735   0.06267   0.14340  -2.85728
    D3       -1.19968  -0.00443  -0.08558  -0.05818  -0.14733  -1.34701
    D4        1.19968   0.00443   0.08558   0.05818   0.14733   1.34701
    D5        3.00068  -0.00404  -0.07735  -0.06268  -0.14340   2.85728
    D6       -0.88315   0.00482   0.09381   0.05369   0.15127  -0.73188
         Item               Value     Threshold  Converged?
 Maximum Force            0.005009     0.000450     NO 
 RMS     Force            0.002960     0.000300     NO 
 Maximum Displacement     0.100865     0.001800     NO 
 RMS     Displacement     0.052341     0.001200     NO 
 Predicted change in Energy=-1.861208D-03
 Lowest energy point so far.  Saving SCF results.
 GradGradGradGradGradGradGradGradGradGradGradGradGradGradGradGradGradGrad

 Leave Link  103 at Tue Feb 22 15:08:53 2022, MaxMem=  2147483648 cpu:               0.1 elap:               0.0
 (Enter /home/saurabh/gaussian/g16/l202.exe)
                          Input orientation:                          
 ---------------------------------------------------------------------
 Center     Atomic      Atomic             Coordinates (Angstroms)
 Number     Number       Type             X           Y           Z
 ---------------------------------------------------------------------
      1          6           0       -4.495766    2.147098    0.062570
      2          6           0       -3.216341    2.831989   -0.233394
      3          1           0       -4.541840    1.154849   -0.388216
      4          1           0       -5.361317    2.701734   -0.330258
      5          1           0       -4.664526    2.042329    1.135151
      6          1           0       -2.810183    2.761010   -1.230930
      7          1           0       -2.938428    3.688711    0.361477
 ---------------------------------------------------------------------
                    Distance matrix (angstroms):
                    1          2          3          4          5
     1  C    0.000000
     2  C    1.481080   0.000000
     3  H    1.090819   2.143296   0.000000
     4  H    1.100506   2.151109   1.751500   0.000000
     5  H    1.090819   2.143296   1.767292   1.751501   0.000000
     6  H    2.211610   1.079388   2.507699   2.706106   3.090862
     7  H    2.211610   1.079389   3.090862   2.706107   2.507699
                    6          7
     6  H    0.000000
     7  H    1.847386   0.000000
 Stoichiometry    C2H5(2)
 Framework group  C1[X(C2H5)]
 Deg. of freedom    15
 Full point group                 C1      NOp   1
 RotChk:  IX=0 Diff= 1.26D-02
 Largest Abelian subgroup         C1      NOp   1
[...]
 Copying SCF densities to generalized density rwf, IOpCl= 1 IROHF=0.

 **********************************************************************

            Population analysis using the SCF Density.

 **********************************************************************

 Orbital symmetries:
 Alpha Orbitals:
       Occupied  (A) (A) (A) (A) (A) (A) (A) (A) (A)
       Virtual   (A) (A) (A) (A) (A) (A) (A) (A) (A) (A) (A) (A)
                 (A) (A) (A) (A) (A) (A) (A) (A) (A) (A) (A) (A)
                 (A) (A) (A) (A) (A) (A) (A) (A) (A) (A) (A) (A)
                 (A) (A) (A) (A) (A) (A) (A) (A) (A) (A) (A) (A)
                 (A) (A) (A) (A) (A) (A) (A) (A) (A) (A) (A) (A)
                 (A) (A) (A) (A) (A) (A) (A) (A) (A) (A) (A) (A)
                 (A) (A) (A) (A) (A) (A) (A) (A) (A) (A) (A) (A)
                 (A) (A) (A) (A) (A) (A) (A) (A) (A) (A) (A) (A)
                 (A) (A) (A) (A) (A) (A) (A) (A) (A) (A) (A) (A)
                 (A) (A) (A) (A) (A) (A) (A) (A) (A) (A) (A) (A)
                 (A) (A) (A) (A) (A) (A) (A) (A) (A) (A) (A) (A)
                 (A) (A) (A) (A) (A) (A) (A) (A) (A) (A) (A) (A)
                 (A) (A) (A) (A) (A) (A) (A) (A) (A) (A) (A) (A)
                 (A) (A) (A) (A) (A) (A) (A) (A) (A) (A) (A) (A)
                 (A) (A) (A) (A) (A) (A) (A) (A) (A) (A) (A) (A)
                 (A) (A) (A) (A) (A) (A) (A) (A) (A)
 Beta  Orbitals:
       Occupied  (A) (A) (A) (A) (A) (A) (A) (A)
       Virtual   (A) (A) (A) (A) (A) (A) (A) (A) (A) (A) (A) (A)
                 (A) (A) (A) (A) (A) (A) (A) (A) (A) (A) (A) (A)
                 (A) (A) (A) (A) (A) (A) (A) (A) (A) (A) (A) (A)
                 (A) (A) (A) (A) (A) (A) (A) (A) (A) (A) (A) (A)
                 (A) (A) (A) (A) (A) (A) (A) (A) (A) (A) (A) (A)
                 (A) (A) (A) (A) (A) (A) (A) (A) (A) (A) (A) (A)
                 (A) (A) (A) (A) (A) (A) (A) (A) (A) (A) (A) (A)
                 (A) (A) (A) (A) (A) (A) (A) (A) (A) (A) (A) (A)
                 (A) (A) (A) (A) (A) (A) (A) (A) (A) (A) (A) (A)
                 (A) (A) (A) (A) (A) (A) (A) (A) (A) (A) (A) (A)
                 (A) (A) (A) (A) (A) (A) (A) (A) (A) (A) (A) (A)
                 (A) (A) (A) (A) (A) (A) (A) (A) (A) (A) (A) (A)
                 (A) (A) (A) (A) (A) (A) (A) (A) (A) (A) (A) (A)
                 (A) (A) (A) (A) (A) (A) (A) (A) (A) (A) (A) (A)
                 (A) (A) (A) (A) (A) (A) (A) (A) (A) (A) (A) (A)
                 (A) (A) (A) (A) (A) (A) (A) (A) (A) (A)
 The electronic state is 2-A.
 Alpha  occ. eigenvalues --  -11.23083 -11.22072  -1.03057  -0.83995  -0.61779
 Alpha  occ. eigenvalues --   -0.57539  -0.54309  -0.50364  -0.34886
 Alpha virt. eigenvalues --    0.14721   0.17908   0.19876   0.22084   0.24435
 Alpha virt. eigenvalues --    0.33524   0.37397   0.38657   0.40723   0.45711
 Alpha virt. eigenvalues --    0.48652   0.50769   0.60307   0.62090   0.62933
 Alpha virt. eigenvalues --    0.64228   0.68657   0.69853   0.73124   0.74881
 Alpha virt. eigenvalues --    0.80916   0.93913   1.02142   1.05206   1.10955
 Alpha virt. eigenvalues --    1.13491   1.15948   1.18768   1.21003   1.22816
 Alpha virt. eigenvalues --    1.25477   1.28364   1.32546   1.36584   1.40668
 Alpha virt. eigenvalues --    1.47833   1.52079   1.53404   1.53417   1.57094
 Alpha virt. eigenvalues --    1.58261   1.60415   1.61028   1.76142   2.06861
 Alpha virt. eigenvalues --    2.19546   2.20850   2.25254   2.27915   2.39191
 Alpha virt. eigenvalues --    2.49282   2.63734   2.71066   2.82985   2.83866
 Alpha virt. eigenvalues --    2.92939   2.99109   3.01206   3.06252   3.06487
 Alpha virt. eigenvalues --    3.09305   3.13853   3.18216   3.20831   3.21277
 Alpha virt. eigenvalues --    3.25986   3.29767   3.30904   3.34353   3.36764
 Alpha virt. eigenvalues --    3.39234   3.48369   3.55144   3.56346   3.57510
 Alpha virt. eigenvalues --    3.64808   3.64977   3.67297   3.71893   3.74909
 Alpha virt. eigenvalues --    3.79940   3.91519   3.99631   4.04566   4.06985
 Alpha virt. eigenvalues --    4.10258   4.12016   4.15568   4.18047   4.25707
 Alpha virt. eigenvalues --    4.26765   4.33309   4.39004   4.41762   4.45332
 Alpha virt. eigenvalues --    4.48477   4.49669   4.62371   4.69079   4.70681
 Alpha virt. eigenvalues --    4.90887   4.93319   4.98004   4.99073   5.04526
 Alpha virt. eigenvalues --    5.13489   5.18509   5.30014   5.36554   5.38585
 Alpha virt. eigenvalues --    5.50931   5.52510   5.60856   5.62010   5.66929
 Alpha virt. eigenvalues --    5.84003   5.89305   6.07839   6.11307   6.23847
 Alpha virt. eigenvalues --    6.29760   8.62404   9.23413   9.33447   9.34006
 Alpha virt. eigenvalues --    9.42829   9.47769  10.02653  10.10984  10.17445
 Alpha virt. eigenvalues --   10.28040  10.33394  10.40681  10.44945  10.45502
 Alpha virt. eigenvalues --   10.51926  10.52403  10.62559  10.72194  10.80990
 Alpha virt. eigenvalues --   10.82962  10.93544  11.03740  11.03983  11.13394
 Alpha virt. eigenvalues --   11.24160  11.25408  11.26869  11.36260  11.49881
 Alpha virt. eigenvalues --   11.62985  12.30065  12.51754  12.84776  12.90446
 Alpha virt. eigenvalues --   12.96119  13.15489  13.34095  36.16407  36.21916
 Alpha virt. eigenvalues --   36.24471  36.38004  36.38739  36.69628  36.73206
 Alpha virt. eigenvalues --   36.92816  36.95307  37.35418  41.27271  41.87314
 Alpha virt. eigenvalues --   41.92079  41.98410  41.99946  42.00615  47.31862
 Alpha virt. eigenvalues --   47.47336  62.19650  62.20939  62.26836  62.28025
 Alpha virt. eigenvalues --   62.30711 168.12373 168.25962 614.71233 614.82672
 Alpha virt. eigenvalues -- 2492.194382492.28310********************
  Beta  occ. eigenvalues --  -11.22392 -11.20720  -0.99419  -0.78648  -0.60757
  Beta  occ. eigenvalues --   -0.54317  -0.53099  -0.49800
  Beta virt. eigenvalues --    0.13810   0.14977   0.18796   0.20094   0.22322
  Beta virt. eigenvalues --    0.24675   0.33900   0.37682   0.38860   0.41497
  Beta virt. eigenvalues --    0.49018   0.55283   0.56328   0.60741   0.63467
  Beta virt. eigenvalues --    0.64486   0.65719   0.69832   0.70519   0.75048
  Beta virt. eigenvalues --    0.79201   0.81577   0.94159   1.04228   1.05510
  Beta virt. eigenvalues --    1.11165   1.14904   1.16446   1.19801   1.22396
  Beta virt. eigenvalues --    1.25202   1.25929   1.28972   1.33291   1.37220
  Beta virt. eigenvalues --    1.42792   1.48156   1.52308   1.53681   1.54619
  Beta virt. eigenvalues --    1.58171   1.58955   1.61636   1.61908   1.76288
  Beta virt. eigenvalues --    2.08051   2.20144   2.22390   2.26186   2.34763
  Beta virt. eigenvalues --    2.39704   2.50565   2.66573   2.72509   2.83637
  Beta virt. eigenvalues --    2.84172   2.94997   3.01257   3.02384   3.08209
  Beta virt. eigenvalues --    3.09286   3.09541   3.14851   3.19840   3.22174
  Beta virt. eigenvalues --    3.23001   3.26894   3.30539   3.32533   3.36857
  Beta virt. eigenvalues --    3.37185   3.40513   3.50829   3.55542   3.56992
  Beta virt. eigenvalues --    3.58451   3.65079   3.65325   3.67569   3.72382
  Beta virt. eigenvalues --    3.75650   3.80601   3.91918   4.00066   4.04929
  Beta virt. eigenvalues --    4.07505   4.10496   4.12129   4.15814   4.18614
  Beta virt. eigenvalues --    4.26161   4.27057   4.33428   4.39490   4.41973
  Beta virt. eigenvalues --    4.45493   4.48693   4.50068   4.62654   4.69939
  Beta virt. eigenvalues --    4.70891   4.91146   4.93836   4.98330   4.99194
  Beta virt. eigenvalues --    5.05177   5.14611   5.19846   5.30384   5.36911
  Beta virt. eigenvalues --    5.38813   5.51583   5.52896   5.61445   5.62346
  Beta virt. eigenvalues --    5.67115   5.84256   5.89621   6.08069   6.11632
  Beta virt. eigenvalues --    6.24898   6.30011   8.67348   9.24106   9.33983
  Beta virt. eigenvalues --    9.34812   9.43117   9.48568  10.03329  10.12189
  Beta virt. eigenvalues --   10.18968  10.28937  10.35844  10.41522  10.46495
  Beta virt. eigenvalues --   10.46791  10.52046  10.53593  10.63620  10.72439
  Beta virt. eigenvalues --   10.82100  10.83443  10.94057  11.04126  11.04549
  Beta virt. eigenvalues --   11.13671  11.24690  11.26915  11.30103  11.36712
  Beta virt. eigenvalues --   11.50656  11.62962  12.32248  12.52437  12.85385
  Beta virt. eigenvalues --   12.90837  12.96105  13.16706  13.34038  36.17296
  Beta virt. eigenvalues --   36.22421  36.25711  36.37922  36.38967  36.70575
  Beta virt. eigenvalues --   36.73528  36.92760  36.95288  37.35707  41.28728
  Beta virt. eigenvalues --   41.87212  41.92130  41.98452  42.00256  42.00968
  Beta virt. eigenvalues --   47.32493  47.47338  62.19801  62.20918  62.26787
  Beta virt. eigenvalues --   62.27956  62.30713 168.12590 168.25951 614.71313
  Beta virt. eigenvalues --  614.826622492.194642492.28306********************
          Condensed to atoms (all electrons):
               1          2          3          4          5          6
     1  C    4.508529   0.366736   0.423752   0.419464   0.423752  -0.036083
     2  C    0.366736   5.047725  -0.040800  -0.049300  -0.040800   0.427313
     3  H    0.423752  -0.040800   0.637291  -0.032695  -0.022718  -0.004814
     4  H    0.419464  -0.049300  -0.032695   0.663124  -0.032696   0.000352
     5  H    0.423752  -0.040800  -0.022718  -0.032696   0.637291   0.005332
     6  H   -0.036083   0.427313  -0.004814   0.000352   0.005332   0.581420
     7  H   -0.036083   0.427313   0.005332   0.000352  -0.004814  -0.027294
               7
     1  C   -0.036083
     2  C    0.427313
     3  H    0.005332
     4  H    0.000352
     5  H   -0.004814
     6  H   -0.027294
     7  H    0.581420
          Atomic-Atomic Spin Densities.
               1          2          3          4          5          6
     1  C   -0.111507  -0.051629   0.006245   0.012126   0.006246  -0.000928
     2  C   -0.051629   1.312070  -0.010479  -0.032714  -0.010479   0.006819
     3  H    0.006245  -0.010479   0.027190  -0.011455   0.003967   0.001370
     4  H    0.012126  -0.032714  -0.011455   0.107500  -0.011455  -0.000510
     5  H    0.006246  -0.010479   0.003967  -0.011455   0.027191  -0.000104
     6  H   -0.000928   0.006819   0.001370  -0.000510  -0.000104  -0.101771
     7  H   -0.000928   0.006819  -0.000104  -0.000510   0.001370   0.006883
               7
     1  C   -0.000928
     2  C    0.006819
     3  H   -0.000104
     4  H   -0.000510
     5  H    0.001370
     6  H    0.006883
     7  H   -0.101771
 Mulliken charges and spin densities:
               1          2
     1  C   -0.070067  -0.140376
     2  C   -0.138187   1.220407
     3  H    0.034653   0.016735
     4  H    0.031400   0.062981
     5  H    0.034653   0.016735
     6  H    0.053774  -0.088241
     7  H    0.053774  -0.088241
 Sum of Mulliken charges =  -0.00000   1.00000
 Mulliken charges and spin densities with hydrogens summed into heavy atoms:
               1          2
     1  C    0.030638  -0.043925
     2  C   -0.030638   1.043925
 Electronic spatial extent (au):  <R**2>=             99.0406
 Charge=             -0.0000 electrons
 Dipole moment (field-independent basis, Debye):
    X=              0.1609    Y=              0.0000    Z=              0.0930  Tot=              0.1858
 Quadrupole moment (field-independent basis, Debye-Ang):
   XX=            -14.4564   YY=            -13.6547   ZZ=            -15.2423
   XY=              0.0000   XZ=             -0.1487   YZ=             -0.0000
 Traceless Quadrupole moment (field-independent basis, Debye-Ang):
   XX=             -0.0053   YY=              0.7965   ZZ=             -0.7912
   XY=              0.0000   XZ=             -0.1487   YZ=             -0.0000
 Octapole moment (field-independent basis, Debye-Ang**2):
  XXX=             -0.1536  YYY=             -0.0000  ZZZ=              0.6709  XYY=             -0.5847
  XXY=             -0.0000  XXZ=              0.1454  XZZ=              1.4282  YZZ=              0.0000
  YYZ=             -0.4546  XYZ=             -0.0000
 Hexadecapole moment (field-independent basis, Debye-Ang**3):
 XXXX=            -86.3008 YYYY=            -28.2546 ZZZZ=            -23.7235 XXXY=              0.0000
 XXXZ=             -0.4547 YYYX=             -0.0000 YYYZ=             -0.0000 ZZZX=              0.4332
 ZZZY=              0.0000 XXYY=            -16.9474 XXZZ=            -19.0694 YYZZ=             -9.0639
 XXYZ=             -0.0000 YYXZ=             -0.8633 ZZXY=              0.0000
 N-N= 3.702075426921D+01 E-N=-2.568669033924D+02  KE= 7.881183293145D+01
 Leave Link  601 at Tue Feb 22 15:35:08 2022, MaxMem=  2147483648 cpu:               0.1 elap:               0.1
 (Enter /home/saurabh/gaussian/g16/l9999.exe)
 Unable to Open any file for archive entry.
 1\1\GINC-MEDIAWIKI\SP\UCCSD(T)-Full\MTSmall\C2H5(2)\SAURABH\22-Feb-202
 2\0\\#P Geom=AllCheck Guess=TCheck SCRF=Check CCSD(T,Full)/MTSmall int
 =dkh\\CH3CH2_w1u\\0,2\C,0,-4.5135697601,2.1536895921,0.0572951168\C,0,
 -3.2646491995,2.8856034528,-0.2685192689\H,0,-4.5301340006,1.157808536
 5,-0.3899588023\H,0,-5.4059994867,2.6759999323,-0.3188620563\H,0,-4.65
 29330056,2.046118781,1.1348367901\H,0,-2.7663829416,2.7400331939,-1.21
 60242161\H,0,-2.8947316054,3.6684665078,0.3776324306\\Version=ES64L-G1
 6RevC.01\State=2-A\HF=-78.6579657\MP2=-79.0935383\MP3=-79.1246582\MP4D
 =-79.1327684\MP4DQ=-79.1247336\PUHF=-78.6614999\PMP2-0=-79.0957766\PMP
 3-0=-79.1259313\MP4SDQ=-79.1274801\CCSD=-79.1276584\CCSD(T)=-79.141115
 8\S2=0.763331\S2-1=0.753503\S2A=0.750118\RMSD=6.221e-09\PG=C01 [X(C2H5
 )]\\@
 The archive entry for this job was punched.


 MANHOOD BEGINS BY TRYING TO SHAVE FACE,
 AND ENDS BY TRYING TO SAVE FACE.
 Diagonal vibrational polarizability:
        0.0000000       0.0000000       0.0000000

 W1 and W2 theory:
 J.M.L. Martin and G. de Oliveira, JCP 111, 1843 (1999)
 S. Parthiban and J.M.L. Martin, JCP 114, 6014 (2001)

 W1U   Energy Components

                         SCF                 CCSD               CCSD(T)
 AVDZ+2d             -78.605988          -78.918878          -78.927204
 AVTZ+2df            -78.628383          -78.993932          -79.006371
 AVQZ+2df            -78.633263          -79.013712

                        NR/FC              DKH/Full
 MTsmall             -79.011420          -79.141116

 Extrapolated Energy Components

                         SCF                 CCSD               CCSD(T)
                     -78.634781           -0.390218           -0.013969

 Core + Scalar Relativistic Component
                      -0.129696

 W1U   Electronic Energy           -79.168665

 Temperature=                298.150000 Pressure=                        1.000000
 E(ZPE)=                       0.058157 E(Thermal)=                      0.062153
 W1U  (0 K)=                 -79.110508 W1U   Energy=                  -79.106512
 W1U   Enthalpy=             -79.105568 W1U   Free Energy=             -79.134745

 W1U spin correction:
 G.P.F. Wood, L. Radom, G.A. Petersson, E.C. Barnes, M.J. Frisch
 and J.A. Montgomery, Jr., JCP 125, 94106 (2006).

 DE(Spin)=                         -0.000085

 W1Usc Electronic Energy           -79.168749

 Temperature=                298.150000 Pressure=                        1.000000
 E(ZPE)=                       0.058157 E(Thermal)=                      0.062153
 W1Usc(0 K)=                 -79.110593 W1Usc Energy=                  -79.106597
 W1Usc Enthalpy=             -79.105653 W1Usc Free Energy=             -79.134829
 Unable to Open any file for archive entry.
 1\1\GINC-MEDIAWIKI\Mixed\W1Usc\W1Usc\C2H5(2)\SAURABH\22-Feb-2022\0\\#p
  w1u scf(verytight, maxcycles=1000) opt(calcfc, maxcyc=1000) int(grid=
 ultrafine)\\CH3CH2_w1u\\0,2\C,0,-4.5135697601,2.1536895921,0.057295116
 8\C,0,-3.2646491995,2.8856034528,-0.2685192689\H,0,-4.5301340006,1.157
 8085365,-0.3899588023\H,0,-5.4059994867,2.6759999323,-0.3188620563\H,0
 ,-4.6529330056,2.046118781,1.1348367901\H,0,-2.7663829416,2.7400331939
 ,-1.2160242161\H,0,-2.8947316054,3.6684665078,0.3776324306\\Version=ES
 64L-G16RevC.01\State=2-A\HF/AVTZ+2d1f=-78.628383\HF/AVQZ+2d1f=-78.6332
 628\HFExt=-78.6347811\CCSD/AVTZ+2d1f=-78.9939321\CCSD/AVQZ+2d1f=-79.01
 37121\CCSDExt=-0.3902185\CCSD(T)/AVDZ+2d=-78.9272036\CCSD(T)/AVTZ+2d1f
 =0.\TExt=-0.0139689\CCSD(T)/MTsmall=-79.0114196\DK-CCSD(T,FU)/MTsmall=
 -79.1411158\Core+Rel=-0.1296962\W1=-79.1105079\W1sc=-79.1105927\FreqCo
 ord=-8.5294106907,4.0698834865,0.1082720791,-6.1692928802,5.4530002319
 ,-0.507427874,-8.5607125688,2.1879410387,-0.7369153362,-10.2158584595,
 5.0569069814,-0.6025619578,-8.7927690565,3.8666041144,2.1445307294,-5.
 2277061152,5.1779123086,-2.2979527293,-5.4702499383,6.932396997,0.7136
 218696\PG=C01 [X(C2H5)]\NImag=0\\0.45523517,0.00268994,0.51286529,-0.0
 0979829,0.02618598,0.54139684,-0.17375838,-0.08223567,0.04096115,0.387
 07951,-0.07543600,-0.10307533,0.00300327,0.18753623,0.33017299,0.03699
 990,0.00245571,-0.08594244,-0.12839391,0.18670082,0.50561103,-0.041542
 77,-0.00088871,0.00265535,-0.00440249,-0.02752778,-0.01472177,0.050609
 11,-0.00103908,-0.25853814,-0.09679976,-0.00313328,-0.01272589,-0.0071
 5388,0.00301812,0.28228807,0.00313083,-0.09539138,-0.09376712,-0.00179
 367,0.00589089,0.00416984,-0.00148144,0.10746094,0.09492983,-0.1882360
 0,0.09932391,-0.06968021,-0.02858589,0.00154111,-0.00322970,-0.0005525
 0,0.00199987,-0.00049139,0.21639113,0.08737546,-0.09751646,0.03966399,
 -0.01298580,0.00910930,-0.00613729,0.02401121,-0.01607307,0.01059854,-
 0.10136014,0.10735076,-0.06271933,0.04062626,-0.07023026,0.00523332,-0
 .00496739,0.00368501,0.01105941,-0.00700805,0.00462825,0.07305897,-0.0
 4597743,0.07511093,-0.04439637,-0.00459556,0.02881822,-0.00840532,-0.0
 0131541,0.03027164,-0.00154300,0.00036269,0.00032539,0.00252477,0.0022
 8870,-0.02612531,0.05422892,-0.00524882,-0.05194036,0.02254181,-0.0022
 1256,0.00045662,0.01547703,0.00298618,0.00464530,-0.02916859,-0.000516
 50,-0.00176233,0.01681661,0.00605645,0.04890842,0.02881083,0.02119810,
 -0.29751101,0.00365462,0.00053996,-0.00500985,0.00062285,0.00125546,-0
 .01137384,-0.00011699,0.00120860,-0.01275980,-0.03320707,-0.02591221,0
 .32468945,-0.00501205,0.00438401,0.02310384,-0.09940424,0.00045692,0.1
 2389559,0.00114393,-0.00006401,-0.00097634,-0.00073064,0.00013263,-0.0
 0057141,-0.00351223,-0.00192368,-0.00029466,0.10038661,-0.00645014,0.0
 0340815,0.01161925,0.00088488,-0.03963754,-0.04961140,0.00126512,0.001
 19522,0.00059150,-0.00065700,-0.00001024,0.00097191,-0.00354104,-0.000
 72449,0.00189415,-0.00074866,0.03498113,-0.00065470,-0.00077895,0.0000
 8261,0.12743959,-0.05179546,-0.27014756,-0.00004300,0.00019651,0.00047
 065,0.00009622,0.00019822,-0.00080107,0.00102752,0.00013221,0.00067531
 ,-0.13624149,0.05213285,0.27946447,-0.00228959,-0.01867792,-0.01606005
 ,-0.07252317,-0.08525507,-0.04482174,-0.00371227,-0.00114432,0.0012866
 2,-0.00081088,0.00053793,0.00006436,0.00110323,0.00085893,0.00053043,0
 .00712863,0.00924684,0.00837585,0.07110407,-0.00189136,-0.00520315,-0.
 00621454,-0.08785381,-0.18430015,-0.14173099,-0.00286413,-0.00079149,0
 .00001810,-0.00033126,-0.00109796,-0.00046191,0.00074417,0.00041683,-0
 .00018406,-0.00223721,0.00078776,-0.00008539,0.09443360,0.19018817,0.0
 0423075,0.00570429,0.00597138,-0.04710110,-0.13937209,-0.15236603,0.00
 190860,0.00204878,0.00094239,0.00036310,0.00044537,0.00036695,-0.00111
 038,0.00011313,0.00128974,-0.00891551,-0.01759826,-0.00974441,0.050624
 53,0.14865877,0.15353999\\0.00000778,-0.00000805,0.00000532,0.00005076
 ,0.00008391,-0.00004479,-0.00000099,0.00000275,-0.00000123,-0.00000485
 ,-0.00000495,0.00000249,-0.00000094,0.00000236,-0.00000190,-0.00002342
 ,-0.00005579,-0.00001046,-0.00002834,-0.00002023,0.00005057\\\@
 The archive entry for this job was punched.
 Job cpu time:       0 days  0 hours 21 minutes  1.1 seconds.
 Elapsed time:       0 days  0 hours  5 minutes 20.0 seconds.
 File lengths (MBytes):  RWF=  17949 Int=      0 D2E=      0 Chk=     11 Scr=      1
 Normal termination of Gaussian 16 at Tue Feb 22 15:35:11 2022.
