 Entering Gaussian System, Link 0=g16
 Input=CH2CH2.com
 Output=CH2CH2.log
 Initial command:
 /home/saurabh/gaussian/g16/l1.exe "/home/saurabh/gaussian/gauss_scr/Gau-39885.inp" -scrdir="/home/saurabh/gaussian/gauss_scr/"
 Entering Link 1 = /home/saurabh/gaussian/g16/l1.exe PID=     39886.
  
 Copyright (c) 1988-2019, Gaussian, Inc.  All Rights Reserved.
  
 This is part of the Gaussian(R) 16 program.  It is based on
 the Gaussian(R) 09 system (copyright 2009, Gaussian, Inc.),
 the Gaussian(R) 03 system (copyright 2003, Gaussian, Inc.),
 the Gaussian(R) 98 system (copyright 1998, Gaussian, Inc.),
 the Gaussian(R) 94 system (copyright 1995, Gaussian, Inc.),
 the Gaussian 92(TM) system (copyright 1992, Gaussian, Inc.),
 the Gaussian 90(TM) system (copyright 1990, Gaussian, Inc.),
 the Gaussian 88(TM) system (copyright 1988, Gaussian, Inc.),
 the Gaussian 86(TM) system (copyright 1986, Carnegie Mellon
 University), and the Gaussian 82(TM) system (copyright 1983,
 Carnegie Mellon University). Gaussian is a federally registered
 trademark of Gaussian, Inc.
  
 This software contains proprietary and confidential information,
 including trade secrets, belonging to Gaussian, Inc.
  
 This software is provided under written license and may be
 used, copied, transmitted, or stored only in accord with that
 written license.
  
 The following legend is applicable only to US Government
 contracts under FAR:
  
                    RESTRICTED RIGHTS LEGEND
  
 Use, reproduction and disclosure by the US Government is
 subject to restrictions as set forth in subparagraphs (a)
 and (c) of the Commercial Computer Software - Restricted
 Rights clause in FAR 52.227-19.
  
 Gaussian, Inc.
 340 Quinnipiac St., Bldg. 40, Wallingford CT 06492
  
  
 ---------------------------------------------------------------
 Warning -- This program may not be used in any manner that
 competes with the business of Gaussian, Inc. or will provide
 assistance to any competitor of Gaussian, Inc.  The licensee
 of this program is prohibited from giving any competitor of
 Gaussian, Inc. access to this program.  By using this program,
 the user acknowledges that Gaussian, Inc. is engaged in the
 business of creating and licensing software in the field of
 computational chemistry and represents and warrants to the
 licensee that it is not a competitor of Gaussian, Inc. and that
 it will not use this program in any manner prohibited above.
 ---------------------------------------------------------------
  

 Cite this work as:
 Gaussian 16, Revision C.01,
 M. J. Frisch, G. W. Trucks, H. B. Schlegel, G. E. Scuseria, 
 M. A. Robb, J. R. Cheeseman, G. Scalmani, V. Barone, 
 G. A. Petersson, H. Nakatsuji, X. Li, M. Caricato, A. V. Marenich, 
 J. Bloino, B. G. Janesko, R. Gomperts, B. Mennucci, H. P. Hratchian, 
 J. V. Ortiz, A. F. Izmaylov, J. L. Sonnenberg, D. Williams-Young, 
 F. Ding, F. Lipparini, F. Egidi, J. Goings, B. Peng, A. Petrone, 
 T. Henderson, D. Ranasinghe, V. G. Zakrzewski, J. Gao, N. Rega, 
 G. Zheng, W. Liang, M. Hada, M. Ehara, K. Toyota, R. Fukuda, 
 J. Hasegawa, M. Ishida, T. Nakajima, Y. Honda, O. Kitao, H. Nakai, 
 T. Vreven, K. Throssell, J. A. Montgomery, Jr., J. E. Peralta, 
 F. Ogliaro, M. J. Bearpark, J. J. Heyd, E. N. Brothers, K. N. Kudin, 
 V. N. Staroverov, T. A. Keith, R. Kobayashi, J. Normand, 
 K. Raghavachari, A. P. Rendell, J. C. Burant, S. S. Iyengar, 
 J. Tomasi, M. Cossi, J. M. Millam, M. Klene, C. Adamo, R. Cammi, 
 J. W. Ochterski, R. L. Martin, K. Morokuma, O. Farkas, 
 J. B. Foresman, and D. J. Fox, Gaussian, Inc., Wallingford CT, 2019.
 
 ******************************************
 Gaussian 16:  ES64L-G16RevC.01  3-Jul-2019
                23-Feb-2022 
 ******************************************
 %nproc=22
 Will use up to   22 processors via shared memory.
 %mem=128GB
 %chk=CH2CH2_w1u.chk
 ----------------------------------------------------------------------
 #p w1u scf(verytight, maxcycles=1000) opt(calcfc, maxcyc=1000) int(gri
 d=ultrafine)
 ----------------------------------------------------------------------
 1/6=1000,10=4,18=20,19=15,26=4,38=1/1,3;
 2/9=110,12=2,17=6,18=5,40=1/2;
 3/5=16,6=1,7=9,11=2,25=1,30=1,71=2,74=-5,75=-5,140=1/1,2,3;
 4//1;
 5/5=2,7=1000,17=3,38=5/2;
 8/6=4,10=90,11=11/1;
 11/6=1,8=1,9=11,15=111,16=1/1,2,10;
 10/6=1,13=1/2;
 6/7=2,8=2,9=2,10=2,28=1/1;
 7/10=1,25=1/1,2,3,16;
 1/6=1000,10=4,18=20,19=15,26=4/3(2);
 2/9=110/2;
 99//99;
 2/9=110/2;
 3/5=16,6=1,7=9,11=2,25=1,30=1,71=1,74=-5,75=-5/1,2,3;
 4/5=5,16=3,69=1/1;
 5/5=2,7=1000,17=3,38=5/2;
 7//1,2,3,16;
 1/6=1000,18=20,19=15,26=4/3(-5);
 2/9=110/2;
 6/7=2,8=2,9=2,10=2,19=2,28=1/1;
 99/9=1/99;
 Leave Link    1 at Wed Feb 23 17:04:26 2022, MaxMem= 17179869184 cpu:               1.0 elap:               0.1
 (Enter /home/saurabh/gaussian/g16/l101.exe)
 ----------
 CH2CH2_w1u
 ----------
 Symbolic Z-matrix:
 Charge =  0 Multiplicity = 1
 C                    -1.49567   2.01672   0. 
 C                    -0.16633   2.09085   0. 
 H                    -1.9889    1.0511   -0.04501 
 H                    -2.0932    2.92151   0.04501 
 H                     0.43119   1.18605  -0.04501 
 H                     0.32689   3.05646   0.04501 
 
 ITRead=  0  0  0  0  0  0
 MicOpt= -1 -1 -1 -1 -1 -1
 NAtoms=      6 NQM=        6 NQMF=       0 NMMI=      0 NMMIF=      0
                NMic=       0 NMicF=      0.
                    Isotopes and Nuclear Properties:
 (Nuclear quadrupole moments (NQMom) in fm**2, nuclear magnetic moments (NMagM)
  in nuclear magnetons)

  Atom         1           2           3           4           5           6
 IAtWgt=          12          12           1           1           1           1
 AtmWgt=  12.0000000  12.0000000   1.0078250   1.0078250   1.0078250   1.0078250
 NucSpn=           0           0           1           1           1           1
 AtZEff=  -0.0000000  -0.0000000  -0.0000000  -0.0000000  -0.0000000  -0.0000000
 NQMom=    0.0000000   0.0000000   0.0000000   0.0000000   0.0000000   0.0000000
 NMagM=    0.0000000   0.0000000   2.7928460   2.7928460   2.7928460   2.7928460
 AtZNuc=   6.0000000   6.0000000   1.0000000   1.0000000   1.0000000   1.0000000
 Leave Link  101 at Wed Feb 23 17:04:26 2022, MaxMem= 17179869184 cpu:               7.0 elap:               0.3
 (Enter /home/saurabh/gaussian/g16/l103.exe)

 GradGradGradGradGradGradGradGradGradGradGradGradGradGradGradGradGradGrad
 Berny optimization.
 Initialization pass.
                           ----------------------------
                           !    Initial Parameters    !
                           ! (Angstroms and Degrees)  !
 --------------------------                            --------------------------
 ! Name  Definition              Value          Derivative Info.                !
 --------------------------------------------------------------------------------
 ! R1    R(1,2)                  1.3314         calculate D2E/DX2 analytically  !
 ! R2    R(1,3)                  1.0852         calculate D2E/DX2 analytically  !
 ! R3    R(1,4)                  1.0852         calculate D2E/DX2 analytically  !
 ! R4    R(2,5)                  1.0852         calculate D2E/DX2 analytically  !
 ! R5    R(2,6)                  1.0852         calculate D2E/DX2 analytically  !
 ! A1    A(2,1,3)              120.2206         calculate D2E/DX2 analytically  !
 ! A2    A(2,1,4)              120.2206         calculate D2E/DX2 analytically  !
 ! A3    A(3,1,4)              119.5589         calculate D2E/DX2 analytically  !
 ! A4    A(1,2,5)              120.2198         calculate D2E/DX2 analytically  !
 ! A5    A(1,2,6)              120.2203         calculate D2E/DX2 analytically  !
 ! A6    A(5,2,6)              119.5599         calculate D2E/DX2 analytically  !
 ! D1    D(3,1,2,5)              0.0            calculate D2E/DX2 analytically  !
 ! D2    D(3,1,2,6)           -180.0            calculate D2E/DX2 analytically  !
 ! D3    D(4,1,2,5)            180.0            calculate D2E/DX2 analytically  !
 ! D4    D(4,1,2,6)              0.0            calculate D2E/DX2 analytically  !
 --------------------------------------------------------------------------------
 Trust Radius=3.00D-01 FncErr=1.00D-07 GrdErr=1.00D-06 EigMax=2.50D+02 EigMin=1.00D-04
 Number of steps in this run=    100 maximum allowed number of steps=    100.
 GradGradGradGradGradGradGradGradGradGradGradGradGradGradGradGradGradGrad

 Leave Link  103 at Wed Feb 23 17:04:27 2022, MaxMem= 17179869184 cpu:               0.2 elap:               0.0
 (Enter /home/saurabh/gaussian/g16/l202.exe)
                          Input orientation:                          
 ---------------------------------------------------------------------
 Center     Atomic      Atomic             Coordinates (Angstroms)
 Number     Number       Type             X           Y           Z
 ---------------------------------------------------------------------
      1          6           0       -1.495670    2.016720    0.000000
      2          6           0       -0.166330    2.090850    0.000000
      3          1           0       -1.988900    1.051100   -0.045010
      4          1           0       -2.093200    2.921510    0.045010
      5          1           0        0.431190    1.186050   -0.045010
      6          1           0        0.326890    3.056460    0.045010
 ---------------------------------------------------------------------
                    Distance matrix (angstroms):
                    1          2          3          4          5
     1  C    0.000000
     2  C    1.331405   0.000000
     3  H    1.085230   2.098778   0.000000
     4  H    1.085225   2.098773   1.875477   0.000000
     5  H    2.098768   1.085228   2.423850   3.064714   0.000000
     6  H    2.098764   1.085216   3.064711   2.423850   1.875477
                    6
     6  H    0.000000
 Stoichiometry    C2H4
 Framework group  CS[SG(C2H4)]
 Deg. of freedom     9
 Full point group                 CS      NOp   2
 Largest Abelian subgroup         CS      NOp   2
 Largest concise Abelian subgroup C1      NOp   1
                         Standard orientation:                         
 ---------------------------------------------------------------------
 Center     Atomic      Atomic             Coordinates (Angstroms)
 Number     Number       Type             X           Y           Z
 ---------------------------------------------------------------------
      1          6           0        0.000001   -0.665701   -0.000000
      2          6           0        0.000001    0.665704    0.000000
      3          1           0       -0.937740   -1.211930    0.000000
      4          1           0        0.937738   -1.211928   -0.000000
      5          1           0       -0.937745    1.211920    0.000000
      6          1           0        0.937733    1.211922   -0.000000
 ---------------------------------------------------------------------
 Rotational constants (GHZ):         142.5635049          30.5238436          25.1409832
 Leave Link  202 at Wed Feb 23 17:04:27 2022, MaxMem= 17179869184 cpu:               0.2 elap:               0.0
 (Enter /home/saurabh/gaussian/g16/l301.exe)
 Standard basis: CC-pVTZ+d (5D, 7F)
 Ernie: Thresh=  0.10000D-02 Tol=  0.10000D-05 Strict=F.
 Ernie:  6 primitive shells out of 84 were deleted.
 There are    92 symmetry adapted cartesian basis functions of A'  symmetry.
 There are    38 symmetry adapted cartesian basis functions of A"  symmetry.
 There are    80 symmetry adapted basis functions of A'  symmetry.
 There are    36 symmetry adapted basis functions of A"  symmetry.
   116 basis functions,   172 primitive gaussians,   130 cartesian basis functions
     8 alpha electrons        8 beta electrons
       nuclear repulsion energy        33.4089252878 Hartrees.
 IExCor=  402 DFT=T Ex+Corr=B3LYP ExCW=0 ScaHFX=  0.200000
 ScaDFX=  0.800000  0.720000  1.000000  0.810000 ScalE2=  1.000000  1.000000
 IRadAn=      5 IRanWt=     -1 IRanGd=            0 ICorTp=0 IEmpDi=  4
 NAtoms=    6 NActive=    6 NUniq=    6 SFac= 1.00D+00 NAtFMM=   60 NAOKFM=F Big=F
 Integral buffers will be    131072 words long.
 Raffenetti 2 integral format.
 Two-electron integral symmetry is turned on.
 Leave Link  301 at Wed Feb 23 17:04:27 2022, MaxMem= 17179869184 cpu:               1.2 elap:               0.1
 (Enter /home/saurabh/gaussian/g16/l302.exe)
 NPDir=0 NMtPBC=     1 NCelOv=     1 NCel=       1 NClECP=     1 NCelD=      1
         NCelK=      1 NCelE2=     1 NClLst=     1 CellRange=     0.0.
 One-electron integrals computed using PRISM.
 One-electron integral symmetry used in STVInt
 NBasis=   116 RedAO= T EigKep=  7.14D-04  NBF=    80    36
 NBsUse=   116 1.00D-06 EigRej= -1.00D+00 NBFU=    80    36
 Precomputing XC quadrature grid using
 IXCGrd= 4 IRadAn=           5 IRanWt=          -1 IRanGd=           0 AccXCQ= 0.00D+00.
 Generated NRdTot=       0 NPtTot=           0 NUsed=           0 NTot=          32
 NSgBfM=   130   130   130   130   130 MxSgAt=     6 MxSgA2=     6.
 Leave Link  302 at Wed Feb 23 17:04:27 2022, MaxMem= 17179869184 cpu:               3.3 elap:               0.2
 (Enter /home/saurabh/gaussian/g16/l303.exe)
 DipDrv:  MaxL=1.
 Leave Link  303 at Wed Feb 23 17:04:27 2022, MaxMem= 17179869184 cpu:               0.5 elap:               0.0
 (Enter /home/saurabh/gaussian/g16/l401.exe)
 ExpMin= 1.03D-01 ExpMax= 8.24D+03 ExpMxC= 2.81D+02 IAcc=3 IRadAn=         5 AccDes= 0.00D+00
 Harris functional with IExCor=  402 and IRadAn=       5 diagonalized for initial guess.
 HarFok:  IExCor=  402 AccDes= 0.00D+00 IRadAn=         5 IDoV= 1 UseB2=F ITyADJ=14
 ICtDFT=  3500011 ScaDFX=  1.000000  1.000000  1.000000  1.000000
 FoFCou: FMM=F IPFlag=           0 FMFlag=      100000 FMFlg1=           0
         NFxFlg=           0 DoJE=T BraDBF=F KetDBF=T FulRan=T
         wScrn=  0.000000 ICntrl=       500 IOpCl=  0 I1Cent=   200000004 NGrid=           0
         NMat0=    1 NMatS0=      1 NMatT0=    0 NMatD0=    1 NMtDS0=    0 NMtDT0=    0
 Petite list used in FoFCou.
 Harris En= -78.6656621323117    
 JPrj=0 DoOrth=F DoCkMO=F.
 Initial guess orbital symmetries:
       Occupied  (A') (A') (A') (A') (A') (A') (A') (A")
       Virtual   (A") (A') (A') (A') (A') (A') (A') (A') (A") (A')
                 (A") (A') (A') (A') (A") (A') (A') (A') (A") (A")
                 (A') (A') (A') (A') (A") (A') (A") (A") (A') (A')
                 (A") (A') (A') (A') (A') (A') (A") (A') (A') (A')
                 (A") (A') (A") (A') (A') (A') (A') (A") (A') (A")
                 (A') (A') (A') (A") (A") (A') (A") (A") (A') (A')
                 (A') (A') (A") (A') (A") (A") (A') (A") (A') (A')
                 (A') (A") (A') (A') (A") (A') (A") (A') (A") (A')
                 (A') (A") (A") (A') (A') (A') (A") (A') (A") (A")
                 (A') (A') (A') (A') (A") (A') (A') (A") (A") (A')
                 (A') (A') (A') (A') (A') (A') (A') (A')
 The electronic state of the initial guess is 1-A'.
 Leave Link  401 at Wed Feb 23 17:04:27 2022, MaxMem= 17179869184 cpu:               4.8 elap:               0.3
 (Enter /home/saurabh/gaussian/g16/l502.exe)
 Keep R1 ints in memory in symmetry-blocked form, NReq=44068667.
 FoFCou: FMM=F IPFlag=           0 FMFlag=           0 FMFlg1=           0
         NFxFlg=           0 DoJE=F BraDBF=F KetDBF=F FulRan=T
         wScrn=  0.000000 ICntrl=       600 IOpCl=  0 I1Cent=           0 NGrid=           0
         NMat0=    1 NMatS0=   6786 NMatT0=    0 NMatD0=    1 NMtDS0=    0 NMtDT0=    0
 Petite list used in FoFCou.
 Closed shell SCF:
 Using DIIS extrapolation, IDIIS=  1040.
 NGot= 17179869184 LenX= 17168036721 LenY= 17168019380
 Requested convergence on RMS density matrix=1.00D-08 within1000 cycles.
 Requested convergence on MAX density matrix=1.00D-06.
 Requested convergence on             energy=1.00D-06.
 No special actions if energy rises.
 Integral accuracy reduced to 1.0D-05 until final iterations.

 Cycle   1  Pass 0  IDiag  1:
 E= -78.5218689459654    
 DIIS: error= 4.57D-02 at cycle   1 NSaved=   1.
 NSaved= 1 IEnMin= 1 EnMin= -78.5218689459654     IErMin= 1 ErrMin= 4.57D-02
 ErrMax= 4.57D-02  0.00D+00 EMaxC= 1.00D-01 BMatC= 9.87D-02 BMatP= 9.87D-02
 IDIUse=3 WtCom= 5.43D-01 WtEn= 4.57D-01
 Coeff-Com:  0.100D+01
 Coeff-En:   0.100D+01
 Coeff:      0.100D+01
 Gap=     0.231 Goal=   None    Shift=    0.000
 GapD=    0.231 DampG=1.000 DampE=0.500 DampFc=0.5000 IDamp=-1.
 Damping current iteration by 5.00D-01
 RMSDP=3.31D-03 MaxDP=5.12D-02              OVMax= 2.00D-01

 Cycle   2  Pass 0  IDiag  1:
 E= -78.5674211976233     Delta-E=       -0.045552251658 Rises=F Damp=T
 DIIS: error= 5.83D-03 at cycle   2 NSaved=   2.
 NSaved= 2 IEnMin= 2 EnMin= -78.5674211976233     IErMin= 2 ErrMin= 5.83D-03
 ErrMax= 5.83D-03  0.00D+00 EMaxC= 1.00D-01 BMatC= 3.03D-03 BMatP= 9.87D-02
 IDIUse=3 WtCom= 9.42D-01 WtEn= 5.83D-02
 Coeff-Com:  0.416D-01 0.958D+00
 Coeff-En:   0.105D+00 0.895D+00
 Coeff:      0.453D-01 0.955D+00
 Gap=     0.284 Goal=   None    Shift=    0.000
 RMSDP=5.02D-04 MaxDP=7.86D-03 DE=-4.56D-02 OVMax= 1.07D-01

 Cycle   3  Pass 0  IDiag  1:
 E= -78.6224710304955     Delta-E=       -0.055049832872 Rises=F Damp=F
 DIIS: error= 2.66D-03 at cycle   3 NSaved=   3.
 NSaved= 3 IEnMin= 3 EnMin= -78.6224710304955     IErMin= 3 ErrMin= 2.66D-03
 ErrMax= 2.66D-03  0.00D+00 EMaxC= 1.00D-01 BMatC= 1.86D-04 BMatP= 3.03D-03
 IDIUse=3 WtCom= 9.73D-01 WtEn= 2.66D-02
 Coeff-Com: -0.298D-01 0.103D+00 0.927D+00
 Coeff-En:   0.000D+00 0.000D+00 0.100D+01
 Coeff:     -0.290D-01 0.100D+00 0.929D+00
 Gap=     0.277 Goal=   None    Shift=    0.000
 RMSDP=7.26D-05 MaxDP=1.38D-03 DE=-5.50D-02 OVMax= 5.40D-03

 Cycle   4  Pass 0  IDiag  1:
 E= -78.6226661520950     Delta-E=       -0.000195121599 Rises=F Damp=F
 DIIS: error= 3.64D-04 at cycle   4 NSaved=   4.
 NSaved= 4 IEnMin= 4 EnMin= -78.6226661520950     IErMin= 4 ErrMin= 3.64D-04
 ErrMax= 3.64D-04  0.00D+00 EMaxC= 1.00D-01 BMatC= 4.37D-06 BMatP= 1.86D-04
 IDIUse=3 WtCom= 9.96D-01 WtEn= 3.64D-03
 Coeff-Com: -0.643D-02 0.113D-01 0.216D+00 0.780D+00
 Coeff-En:   0.000D+00 0.000D+00 0.000D+00 0.100D+01
 Coeff:     -0.640D-02 0.113D-01 0.215D+00 0.780D+00
 Gap=     0.277 Goal=   None    Shift=    0.000
 RMSDP=1.11D-05 MaxDP=1.92D-04 DE=-1.95D-04 OVMax= 6.54D-04

 Cycle   5  Pass 0  IDiag  1:
 E= -78.6226700583210     Delta-E=       -0.000003906226 Rises=F Damp=F
 DIIS: error= 2.73D-05 at cycle   5 NSaved=   5.
 NSaved= 5 IEnMin= 5 EnMin= -78.6226700583210     IErMin= 5 ErrMin= 2.73D-05
 ErrMax= 2.73D-05  0.00D+00 EMaxC= 1.00D-01 BMatC= 2.79D-08 BMatP= 4.37D-06
 IDIUse=1 WtCom= 1.00D+00 WtEn= 0.00D+00
 Coeff-Com:  0.153D-03-0.138D-02 0.403D-02 0.650D-01 0.932D+00
 Coeff:      0.153D-03-0.138D-02 0.403D-02 0.650D-01 0.932D+00
 Gap=     0.277 Goal=   None    Shift=    0.000
 RMSDP=1.22D-06 MaxDP=1.90D-05 DE=-3.91D-06 OVMax= 6.22D-05

 Initial convergence to 1.0D-05 achieved.  Increase integral accuracy.
 Cycle   6  Pass 1  IDiag  1:
 E= -78.6226700284098     Delta-E=        0.000000029911 Rises=F Damp=F
 DIIS: error= 1.23D-06 at cycle   1 NSaved=   1.
 NSaved= 1 IEnMin= 1 EnMin= -78.6226700284098     IErMin= 1 ErrMin= 1.23D-06
 ErrMax= 1.23D-06  0.00D+00 EMaxC= 1.00D-01 BMatC= 1.25D-10 BMatP= 1.25D-10
 IDIUse=1 WtCom= 1.00D+00 WtEn= 0.00D+00
 Coeff-Com:  0.100D+01
 Coeff:      0.100D+01
 Gap=     0.277 Goal=   None    Shift=    0.000
 RMSDP=1.22D-06 MaxDP=1.90D-05 DE= 2.99D-08 OVMax= 7.20D-06

 Cycle   7  Pass 1  IDiag  1:
 E= -78.6226700284919     Delta-E=       -0.000000000082 Rises=F Damp=F
 DIIS: error= 1.40D-06 at cycle   2 NSaved=   2.
 NSaved= 2 IEnMin= 2 EnMin= -78.6226700284919     IErMin= 1 ErrMin= 1.23D-06
 ErrMax= 1.40D-06  0.00D+00 EMaxC= 1.00D-01 BMatC= 7.06D-11 BMatP= 1.25D-10
 IDIUse=1 WtCom= 1.00D+00 WtEn= 0.00D+00
 Coeff-Com:  0.403D+00 0.597D+00
 Coeff:      0.403D+00 0.597D+00
 Gap=     0.277 Goal=   None    Shift=    0.000
 RMSDP=6.09D-08 MaxDP=1.93D-06 DE=-8.21D-11 OVMax= 7.76D-06

 Cycle   8  Pass 1  IDiag  1:
 E= -78.6226700285335     Delta-E=       -0.000000000042 Rises=F Damp=F
 DIIS: error= 1.03D-06 at cycle   3 NSaved=   3.
 NSaved= 3 IEnMin= 3 EnMin= -78.6226700285335     IErMin= 3 ErrMin= 1.03D-06
 ErrMax= 1.03D-06  0.00D+00 EMaxC= 1.00D-01 BMatC= 3.18D-11 BMatP= 7.06D-11
 IDIUse=1 WtCom= 1.00D+00 WtEn= 0.00D+00
 Coeff-Com:  0.252D-01 0.398D+00 0.577D+00
 Coeff:      0.252D-01 0.398D+00 0.577D+00
 Gap=     0.277 Goal=   None    Shift=    0.000
 RMSDP=2.66D-08 MaxDP=7.93D-07 DE=-4.16D-11 OVMax= 3.57D-06

 Cycle   9  Pass 1  IDiag  1:
 E= -78.6226700285652     Delta-E=       -0.000000000032 Rises=F Damp=F
 DIIS: error= 1.46D-07 at cycle   4 NSaved=   4.
 NSaved= 4 IEnMin= 4 EnMin= -78.6226700285652     IErMin= 4 ErrMin= 1.46D-07
 ErrMax= 1.46D-07  0.00D+00 EMaxC= 1.00D-01 BMatC= 1.24D-12 BMatP= 3.18D-11
 IDIUse=1 WtCom= 1.00D+00 WtEn= 0.00D+00
 Coeff-Com: -0.393D-02 0.190D+00 0.310D+00 0.503D+00
 Coeff:     -0.393D-02 0.190D+00 0.310D+00 0.503D+00
 Gap=     0.277 Goal=   None    Shift=    0.000
 RMSDP=5.71D-09 MaxDP=1.27D-07 DE=-3.17D-11 OVMax= 4.52D-07

 SCF Done:  E(RB3LYP) =  -78.6226700286     A.U. after    9 cycles
            NFock=  9  Conv=0.57D-08     -V/T= 2.0077
 KE= 7.802511272613D+01 PE=-2.484569710883D+02 EE= 5.840026304583D+01
 Leave Link  502 at Wed Feb 23 17:04:28 2022, MaxMem= 17179869184 cpu:              16.3 elap:               0.9
 (Enter /home/saurabh/gaussian/g16/l801.exe)
 DoSCS=F DFT=T ScalE2(SS,OS)=  1.000000  1.000000
 Range of M.O.s used for correlation:     1   116
 NBasis=   116 NAE=     8 NBE=     8 NFC=     0 NFV=     0
 NROrb=    116 NOA=     8 NOB=     8 NVA=   108 NVB=   108

 **** Warning!!: The largest alpha MO coefficient is  0.10634365D+02

 Leave Link  801 at Wed Feb 23 17:04:28 2022, MaxMem= 17179869184 cpu:               0.4 elap:               0.0
 (Enter /home/saurabh/gaussian/g16/l1101.exe)
 Using compressed storage, NAtomX=     6.
 Will process      7 centers per pass.
 Leave Link 1101 at Wed Feb 23 17:04:28 2022, MaxMem= 17179869184 cpu:               3.3 elap:               0.2
 (Enter /home/saurabh/gaussian/g16/l1102.exe)
 Symmetrizing basis deriv contribution to polar:
 IMax=3 JMax=2 DiffMx= 0.00D+00
 Leave Link 1102 at Wed Feb 23 17:04:28 2022, MaxMem= 17179869184 cpu:               0.5 elap:               0.0
 (Enter /home/saurabh/gaussian/g16/l1110.exe)
 Forming Gx(P) for the SCF density, NAtomX=     6.
 Integral derivatives from FoFJK, PRISM(SPDF).
 Do as many integral derivatives as possible in FoFJK.
 G2DrvN: MDV=   17179868442.
 G2DrvN: will do     7 centers at a time, making    1 passes.
 Calling FoFCou, ICntrl=  3107 FMM=F I1Cent=   0 AccDes= 0.00D+00.
 FoFJK:  IHMeth= 1 ICntrl=    3107 DoSepK=F KAlg= 0 I1Cent=           0 FoldK=F
 IRaf=         0 NMat=       1 IRICut=       1 DoRegI=T DoRafI=F ISym2E= 1 IDoP0=0 IntGTp=1.
 FoFCou: FMM=F IPFlag=           0 FMFlag=      100000 FMFlg1=           0
         NFxFlg=           0 DoJE=F BraDBF=F KetDBF=F FulRan=T
         wScrn=  0.000000 ICntrl=      3107 IOpCl=  0 I1Cent=           0 NGrid=           0
         NMat0=    1 NMatS0=      1 NMatT0=    0 NMatD0=    1 NMtDS0=    0 NMtDT0=    0
 Petite list used in FoFCou.
 End of G2Drv F.D. properties file   721 does not exist.
 End of G2Drv F.D. properties file   722 does not exist.
 End of G2Drv F.D. properties file   788 does not exist.
 Leave Link 1110 at Wed Feb 23 17:04:29 2022, MaxMem= 17179869184 cpu:              25.5 elap:               1.2
 (Enter /home/saurabh/gaussian/g16/l1002.exe)
 Minotr:  Closed shell wavefunction.
          IDoAtm=111111
          Direct CPHF calculation.
          Differentiating once with respect to nuclear coordinates.
          Using symmetry in CPHF.
          Requested convergence is 1.0D-08 RMS, and 1.0D-07 maximum.
          Secondary convergence is 1.0D-12 RMS, and 1.0D-12 maximum.
          NewPWx=T KeepS1=F KeepF1=F KeepIn=T MapXYZ=F SortEE=F KeepMc=T.
         1775 words used for storage of precomputed grid.
 Keep R1 ints in memory in symmetry-blocked form, NReq=43997222.
 FoFCou: FMM=F IPFlag=           0 FMFlag=           0 FMFlg1=           0
         NFxFlg=           0 DoJE=F BraDBF=F KetDBF=F FulRan=T
         wScrn=  0.000000 ICntrl=       600 IOpCl=  0 I1Cent=           0 NGrid=           0
         NMat0=    1 NMatS0=   6786 NMatT0=    0 NMatD0=    1 NMtDS0=    0 NMtDT0=    0
 Petite list used in FoFCou.
          MDV=   17179869184 using IRadAn=       1.
          Solving linear equations simultaneously, MaxMat=       0.
          There are    21 degrees of freedom in the 1st order CPHF.  IDoFFX=6 NUNeed=     0.
     15 vectors produced by pass  0 Test12= 4.11D-15 4.76D-09 XBig12= 8.12D-02 1.28D-01.
 AX will form    15 AO Fock derivatives at one time.
     15 vectors produced by pass  1 Test12= 4.11D-15 4.76D-09 XBig12= 1.99D-02 8.30D-02.
     15 vectors produced by pass  2 Test12= 4.11D-15 4.76D-09 XBig12= 1.69D-04 4.67D-03.
     15 vectors produced by pass  3 Test12= 4.11D-15 4.76D-09 XBig12= 6.35D-07 2.59D-04.
     15 vectors produced by pass  4 Test12= 4.11D-15 4.76D-09 XBig12= 3.15D-09 1.57D-05.
     12 vectors produced by pass  5 Test12= 4.11D-15 4.76D-09 XBig12= 3.31D-12 6.02D-07.
      2 vectors produced by pass  6 Test12= 4.11D-15 4.76D-09 XBig12= 6.49D-15 2.52D-08.
 InvSVY:  IOpt=1 It=  1 EMax= 8.88D-16
 Solved reduced A of dimension    89 with    15 vectors.
 End of Minotr F.D. properties file   721 does not exist.
 End of Minotr F.D. properties file   722 does not exist.
 End of Minotr F.D. properties file   788 does not exist.
 Leave Link 1002 at Wed Feb 23 17:04:31 2022, MaxMem= 17179869184 cpu:              39.5 elap:               1.8
 (Enter /home/saurabh/gaussian/g16/l601.exe)
 Copying SCF densities to generalized density rwf, IOpCl= 0 IROHF=0.

 **********************************************************************

            Population analysis using the SCF Density.

 **********************************************************************

 Orbital symmetries:
       Occupied  (A') (A') (A') (A') (A') (A') (A') (A")
       Virtual   (A") (A') (A') (A') (A') (A') (A') (A") (A') (A')
                 (A") (A') (A') (A') (A') (A") (A') (A') (A") (A")
                 (A') (A') (A') (A') (A") (A") (A') (A") (A') (A')
                 (A") (A') (A') (A') (A') (A') (A") (A') (A') (A')
                 (A") (A') (A") (A') (A') (A') (A') (A") (A') (A")
                 (A') (A') (A') (A") (A") (A") (A') (A") (A') (A')
                 (A') (A') (A") (A') (A") (A") (A') (A") (A') (A')
                 (A') (A") (A') (A') (A") (A') (A") (A") (A') (A')
                 (A') (A") (A") (A') (A') (A") (A') (A') (A") (A")
                 (A') (A') (A') (A') (A") (A') (A') (A") (A") (A')
                 (A') (A') (A') (A') (A') (A') (A') (A')
 The electronic state is 1-A'.
 Alpha  occ. eigenvalues --  -10.17515 -10.17426  -0.76475  -0.58001  -0.47759
 Alpha  occ. eigenvalues --   -0.41897  -0.36232  -0.27917
 Alpha virt. eigenvalues --   -0.00201   0.05392   0.08226   0.08557   0.14739
 Alpha virt. eigenvalues --    0.23942   0.23989   0.29397   0.29792   0.32572
 Alpha virt. eigenvalues --    0.38611   0.41355   0.43548   0.46991   0.48852
 Alpha virt. eigenvalues --    0.49772   0.51802   0.58869   0.63927   0.68643
 Alpha virt. eigenvalues --    0.68665   0.79574   0.86868   0.88876   0.98033
 Alpha virt. eigenvalues --    1.01109   1.02188   1.02881   1.07892   1.11089
 Alpha virt. eigenvalues --    1.16194   1.24545   1.25566   1.33272   1.34461
 Alpha virt. eigenvalues --    1.37296   1.40379   1.54265   1.55979   1.69327
 Alpha virt. eigenvalues --    2.00340   2.01328   2.19235   2.23124   2.29463
 Alpha virt. eigenvalues --    2.34655   2.38295   2.42235   2.57725   2.60805
 Alpha virt. eigenvalues --    2.72371   2.77782   2.78057   2.78302   2.79484
 Alpha virt. eigenvalues --    2.82367   2.84216   2.88658   2.91970   3.01195
 Alpha virt. eigenvalues --    3.07742   3.08022   3.09695   3.13813   3.17569
 Alpha virt. eigenvalues --    3.19366   3.23996   3.31546   3.37623   3.48250
 Alpha virt. eigenvalues --    3.57864   3.60122   3.65754   3.66325   3.68389
 Alpha virt. eigenvalues --    3.70799   3.78049   3.86686   3.87173   3.88707
 Alpha virt. eigenvalues --    3.91531   4.00633   4.03707   4.09894   4.13596
 Alpha virt. eigenvalues --    4.24154   4.25616   4.42865   4.48236   4.56987
 Alpha virt. eigenvalues --    4.62884   4.64638   4.74856   4.82728   4.86018
 Alpha virt. eigenvalues --    5.02551   5.04504   5.07587   5.13232   5.19144
 Alpha virt. eigenvalues --    5.23656   5.44229   5.81786   5.91430   5.99699
 Alpha virt. eigenvalues --    6.43546  11.15458  13.95412
          Condensed to atoms (all electrons):
               1          2          3          4          5          6
     1  C    4.881981   0.616558   0.410049   0.410050  -0.043780  -0.043780
     2  C    0.616558   4.881982  -0.043779  -0.043780   0.410050   0.410051
     3  H    0.410049  -0.043779   0.556588  -0.035781  -0.009910   0.007294
     4  H    0.410050  -0.043780  -0.035781   0.556587   0.007294  -0.009909
     5  H   -0.043780   0.410050  -0.009910   0.007294   0.556587  -0.035780
     6  H   -0.043780   0.410051   0.007294  -0.009909  -0.035780   0.556581
 Mulliken charges:
               1
     1  C   -0.231078
     2  C   -0.231082
     3  H    0.115538
     4  H    0.115539
     5  H    0.115539
     6  H    0.115544
 Sum of Mulliken charges =  -0.00000
 Mulliken charges with hydrogens summed into heavy atoms:
               1
     1  C   -0.000001
     2  C    0.000001
 APT charges:
               1
     1  C   -0.649235
     2  C   -0.649234
     3  H    0.324617
     4  H    0.324618
     5  H    0.324615
     6  H    0.324619
 Sum of APT charges =  -0.00000
 APT charges with hydrogens summed into heavy atoms:
               1
     1  C    0.000000
     2  C   -0.000000
 Electronic spatial extent (au):  <R**2>=             82.5882
 Charge=             -0.0000 electrons
 Dipole moment (field-independent basis, Debye):
    X=              0.0000    Y=             -0.0000    Z=              0.0000  Tot=              0.0000
 Quadrupole moment (field-independent basis, Debye-Ang):
   XX=            -12.2729   YY=            -12.5806   ZZ=            -15.5735
   XY=              0.0000   XZ=              0.0000   YZ=              0.0000
 Traceless Quadrupole moment (field-independent basis, Debye-Ang):
   XX=              1.2028   YY=              0.8951   ZZ=             -2.0979
   XY=              0.0000   XZ=              0.0000   YZ=              0.0000
 Octapole moment (field-independent basis, Debye-Ang**2):
  XXX=              0.0000  YYY=             -0.0000  ZZZ=              0.0000  XYY=              0.0000
  XXY=              0.0000  XXZ=              0.0000  XZZ=              0.0000  YZZ=              0.0000
  YYZ=              0.0000  XYZ=              0.0000
 Hexadecapole moment (field-independent basis, Debye-Ang**3):
 XXXX=            -27.7595 YYYY=            -69.6076 ZZZZ=            -18.5531 XXXY=              0.0000
 XXXZ=              0.0000 YYYX=              0.0001 YYYZ=             -0.0000 ZZZX=              0.0000
 ZZZY=             -0.0000 XXYY=            -13.6625 XXZZ=             -8.4820 YYZZ=            -15.4254
 XXYZ=              0.0000 YYXZ=              0.0000 ZZXY=              0.0000
 N-N= 3.340892528782D+01 E-N=-2.484569792995D+02  KE= 7.802511272613D+01
 Symmetry A'   KE= 7.594866188694D+01
 Symmetry A"   KE= 2.076450839187D+00
  Exact polarizability:       0.000       0.000       0.000       0.000       0.000       0.000
 Approx polarizability:      30.050      -0.000      51.024      -0.000       0.000      21.516
 No NMR shielding tensors so no spin-rotation constants.
 Leave Link  601 at Wed Feb 23 17:04:32 2022, MaxMem= 17179869184 cpu:               2.6 elap:               0.2
 (Enter /home/saurabh/gaussian/g16/l701.exe)
 ... and contract with generalized density number  0.
 Compute integral second derivatives.
 Leave Link  701 at Wed Feb 23 17:04:32 2022, MaxMem= 17179869184 cpu:               4.9 elap:               0.2
 (Enter /home/saurabh/gaussian/g16/l702.exe)
 L702 exits ... SP integral derivatives will be done elsewhere.
 Leave Link  702 at Wed Feb 23 17:04:32 2022, MaxMem= 17179869184 cpu:               0.4 elap:               0.0
 (Enter /home/saurabh/gaussian/g16/l703.exe)
 Integral derivatives from FoFJK, PRISM(SPDF).
 Compute integral second derivatives, UseDBF=F ICtDFT=           0.
 Calling FoFJK, ICntrl=    100127 FMM=F ISym2X=1 I1Cent= 0 IOpClX= 0 NMat=1 NMatS=1 NMatT=0.
 FoFJK:  IHMeth= 1 ICntrl=  100127 DoSepK=F KAlg= 0 I1Cent=           0 FoldK=F
 IRaf=         0 NMat=       1 IRICut=       1 DoRegI=T DoRafI=F ISym2E= 1 IDoP0=0 IntGTp=1.
 FoFCou: FMM=F IPFlag=           0 FMFlag=      100000 FMFlg1=         800
         NFxFlg=           0 DoJE=F BraDBF=F KetDBF=F FulRan=T
         wScrn=  0.000000 ICntrl=    100127 IOpCl=  0 I1Cent=           0 NGrid=           0
         NMat0=    1 NMatS0=      1 NMatT0=    0 NMatD0=    1 NMtDS0=    0 NMtDT0=    0
 Petite list used in FoFCou.
 Leave Link  703 at Wed Feb 23 17:04:34 2022, MaxMem= 17179869184 cpu:              56.3 elap:               2.6
 (Enter /home/saurabh/gaussian/g16/l716.exe)
 Dipole        = 2.06240889D-06-1.87377123D-07 9.70815251D-19
 Polarizability= 0.00000000D+00 0.00000000D+00 0.00000000D+00
                 0.00000000D+00 0.00000000D+00 0.00000000D+00
 ***** Axes restored to original set *****
 -------------------------------------------------------------------
 Center     Atomic                   Forces (Hartrees/Bohr)
 Number     Number              X              Y              Z
 -------------------------------------------------------------------
      1        6           0.009964525    0.000553209   -0.000000117
      2        6          -0.009969427   -0.000562838   -0.000000331
      3        1          -0.002630147    0.003913429    0.000194800
      4        1          -0.002180666   -0.004178838   -0.000194663
      5        1           0.002180701    0.004181195    0.000194776
      6        1           0.002635014   -0.003906157   -0.000194465
 -------------------------------------------------------------------
 Cartesian Forces:  Max     0.009969427 RMS     0.004002398
 Force constants in Cartesian coordinates: 
                1             2             3             4             5 
      1  0.819795D+00
      2  0.100380D-01  0.640257D+00
      3 -0.140668D-02  0.252216D-01  0.115235D+00
      4 -0.545970D+00 -0.240191D-01  0.168039D-03  0.819793D+00
      5 -0.240197D-01 -0.116583D+00 -0.301376D-02  0.100548D-01  0.640279D+00
      6  0.168010D-03 -0.301376D-02 -0.525752D-01 -0.140587D-02  0.252227D-01
      7 -0.109715D+00 -0.103531D+00 -0.477323D-02 -0.127544D-01 -0.317562D-01
      8 -0.109512D+00 -0.277478D+00 -0.112369D-01  0.608329D-03  0.120318D-02
      9 -0.506021D-02 -0.112529D-01 -0.376944D-01  0.803580D-04 -0.163005D-03
     10 -0.135331D+00  0.119439D+00  0.599324D-02 -0.160234D-01  0.298291D-01
     11  0.125421D+00 -0.251871D+00 -0.106369D-01 -0.253562D-02  0.447240D-02
     12  0.628023D-02 -0.106209D-01 -0.376932D-01 -0.617390D-04 -0.170937D-03
     13 -0.160239D-01  0.298294D-01  0.149111D-02 -0.135327D+00  0.119435D+00
     14 -0.253533D-02  0.447208D-02 -0.843571D-04  0.125416D+00 -0.251871D+00
     15 -0.617240D-04 -0.170949D-03  0.636362D-02  0.627999D-02 -0.106209D-01
     16 -0.127546D-01 -0.317567D-01 -0.147249D-02 -0.109718D+00 -0.103543D+00
     17  0.608542D-03  0.120346D-02 -0.249601D-03 -0.109524D+00 -0.277500D+00
     18  0.803699D-04 -0.163008D-03  0.636375D-02 -0.506079D-02 -0.112541D-01
                6             7             8             9            10 
      6  0.115233D+00
      7 -0.147247D-02  0.116851D+00
      8 -0.249596D-03  0.120591D+00  0.286822D+00
      9  0.636338D-02  0.554019D-02  0.122383D-01  0.255939D-01
     10  0.149110D-02  0.943821D-02 -0.117913D-01 -0.586151D-03  0.145604D+00
     11 -0.843451D-04  0.143983D-01 -0.138659D-01 -0.790554D-03 -0.136396D+00
     12  0.636371D-02  0.670407D-03 -0.720484D-03  0.177178D-02 -0.686678D-02
     13  0.599301D-02  0.139423D-02 -0.101735D-03 -0.312906D-04 -0.508128D-02
     14 -0.106369D-01  0.918909D-04  0.148175D-02  0.477551D-03 -0.979604D-03
     15 -0.376937D-01 -0.220005D-04  0.478069D-03 -0.845364D-02  0.000000D+00
     16 -0.477378D-02 -0.521384D-02  0.205536D-03  0.571036D-04  0.139428D-02
     17 -0.112381D-01  0.205623D-03  0.183764D-02 -0.509414D-03 -0.101748D-03
     18 -0.376908D-01  0.571078D-04 -0.509414D-03  0.124190D-01 -0.312916D-04
               11            12            13            14            15 
     11  0.258078D+00
     12  0.115469D-01  0.255925D-01
     13 -0.979611D-03  0.000000D+00  0.145600D+00
     14  0.170507D-02 -0.512601D-03 -0.136391D+00  0.258077D+00
     15 -0.512601D-03  0.124189D-01 -0.686657D-02  0.115468D-01  0.255932D-01
     16  0.919896D-04 -0.219962D-04  0.943831D-02  0.143985D-01  0.670416D-03
     17  0.148171D-02  0.478071D-03 -0.117912D-01 -0.138653D-01 -0.720446D-03
     18  0.477553D-03 -0.845373D-02 -0.586148D-03 -0.790516D-03  0.177159D-02
               16            17            18 
     16  0.116854D+00
     17  0.120603D+00  0.286843D+00
     18  0.554075D-02  0.122395D-01  0.255902D-01
 FormGI is forming the generalized inverse of G from B-inverse, IUseBI=4.
 Force constants in internal coordinates: 
                1             2             3             4             5 
      1  0.612631D+00
      2  0.745650D-02  0.349909D+00
      3  0.745648D-02  0.144039D-02  0.349919D+00
      4  0.745670D-02  0.854908D-03 -0.530084D-03  0.349913D+00
      5  0.745627D-02 -0.530082D-03  0.854901D-03  0.144008D-02  0.349936D+00
      6  0.114433D-01  0.546512D-02 -0.113551D-01 -0.351991D-02  0.455185D-02
      7  0.114431D-01 -0.113551D-01  0.546522D-02  0.455194D-02 -0.351983D-02
      8 -0.228864D-01  0.589001D-02  0.588984D-02 -0.103203D-02 -0.103202D-02
      9  0.114436D-01 -0.351985D-02  0.455195D-02  0.546524D-02 -0.113548D-01
     10  0.114432D-01  0.455193D-02 -0.351985D-02 -0.113551D-01  0.546522D-02
     11 -0.228868D-01 -0.103208D-02 -0.103211D-02  0.588989D-02  0.588959D-02
     12  0.000000D+00  0.000000D+00  0.000000D+00  0.000000D+00  0.000000D+00
     13  0.000000D+00  0.000000D+00  0.000000D+00  0.000000D+00  0.000000D+00
     14  0.000000D+00  0.000000D+00  0.000000D+00  0.000000D+00  0.000000D+00
     15  0.000000D+00  0.000000D+00  0.000000D+00  0.000000D+00  0.000000D+00
                6             7             8             9            10 
      6  0.831329D-01
      7 -0.479624D-01  0.831328D-01
      8 -0.351704D-01 -0.351704D-01  0.703408D-01
      9 -0.908335D-02  0.105727D-01 -0.148936D-02  0.831336D-01
     10  0.105727D-01 -0.908346D-02 -0.148921D-02 -0.479632D-01  0.831331D-01
     11 -0.148931D-02 -0.148925D-02  0.297856D-02 -0.351704D-01 -0.351699D-01
     12  0.000000D+00  0.000000D+00  0.000000D+00  0.000000D+00  0.000000D+00
     13  0.000000D+00  0.000000D+00  0.000000D+00  0.000000D+00  0.000000D+00
     14  0.000000D+00  0.000000D+00  0.000000D+00  0.000000D+00  0.000000D+00
     15  0.000000D+00  0.000000D+00  0.000000D+00  0.000000D+00  0.000000D+00
               11            12            13            14            15 
     11  0.703404D-01
     12  0.000000D+00  0.267834D-01
     13  0.000000D+00  0.821217D-02  0.330114D-01
     14  0.000000D+00  0.821265D-02 -0.165867D-01  0.330115D-01
     15  0.000000D+00 -0.103586D-01  0.821252D-02  0.821218D-02  0.267833D-01
 Leave Link  716 at Wed Feb 23 17:04:34 2022, MaxMem= 17179869184 cpu:               0.5 elap:               0.0
 (Enter /home/saurabh/gaussian/g16/l103.exe)

 GradGradGradGradGradGradGradGradGradGradGradGradGradGradGradGradGradGrad
 Berny optimization.
 Red2BG is reusing G-inverse.
 Internal  Forces:  Max     0.005639419 RMS     0.003087926
 Search for a local minimum.
 Step number   1 out of a maximum of  100
 All quantities printed in internal units (Hartrees-Bohrs-Radians)
 RMS Force = .30879D-02 SwitMx=.10000D-02 MixMth= 1
 Mixed Optimization -- RFO/linear search
 Second derivative matrix not updated -- analytic derivatives used.
 The second derivative matrix:
                          R1        R2        R3        R4        R5
           R1           0.61263
           R2           0.00746   0.34991
           R3           0.00746   0.00144   0.34992
           R4           0.00746   0.00085  -0.00053   0.34991
           R5           0.00746  -0.00053   0.00085   0.00144   0.34994
           A1           0.01144   0.00547  -0.01136  -0.00352   0.00455
           A2           0.01144  -0.01136   0.00547   0.00455  -0.00352
           A3          -0.02289   0.00589   0.00589  -0.00103  -0.00103
           A4           0.01144  -0.00352   0.00455   0.00547  -0.01135
           A5           0.01144   0.00455  -0.00352  -0.01136   0.00547
           A6          -0.02289  -0.00103  -0.00103   0.00589   0.00589
           D1           0.00000  -0.00000   0.00000  -0.00000   0.00000
           D2           0.00000  -0.00000  -0.00000  -0.00000   0.00000
           D3          -0.00000   0.00000   0.00000  -0.00000   0.00000
           D4          -0.00000  -0.00000  -0.00000  -0.00000   0.00000
                          A1        A2        A3        A4        A5
           A1           0.08313
           A2          -0.04796   0.08313
           A3          -0.03517  -0.03517   0.07034
           A4          -0.00908   0.01057  -0.00149   0.08313
           A5           0.01057  -0.00908  -0.00149  -0.04796   0.08313
           A6          -0.00149  -0.00149   0.00298  -0.03517  -0.03517
           D1           0.00000  -0.00000  -0.00000   0.00000  -0.00000
           D2          -0.00000  -0.00000   0.00000   0.00000  -0.00000
           D3           0.00000   0.00000  -0.00000   0.00000  -0.00000
           D4          -0.00000  -0.00000   0.00000   0.00000  -0.00000
                          A6        D1        D2        D3        D4
           A6           0.07034
           D1           0.00000   0.02678
           D2          -0.00000   0.00821   0.03301
           D3           0.00000   0.00821  -0.01659   0.03301
           D4          -0.00000  -0.01036   0.00821   0.00821   0.02678
 ITU=  0
     Eigenvalues ---    0.03285   0.03714   0.04960   0.10047   0.10650
     Eigenvalues ---    0.11112   0.14765   0.35018   0.35020   0.35129
     Eigenvalues ---    0.35161   0.61650
 RFO step:  Lambda=-1.02064899D-03 EMin= 3.28495142D-02
 Linear search not attempted -- first point.
 Iteration  1 RMS(Cart)=  0.02555985 RMS(Int)=  0.00037955
 Iteration  2 RMS(Cart)=  0.00038189 RMS(Int)=  0.00000001
 Iteration  3 RMS(Cart)=  0.00000002 RMS(Int)=  0.00000000
 ITry= 1 IFail=0 DXMaxC= 3.88D-02 DCOld= 1.00D+10 DXMaxT= 3.00D-01 DXLimC= 3.00D+00 Rises=F
 ClnCor:  largest displacement from symmetrization is 8.85D-11 for atom     1.
 Variable       Old X    -DE/DX   Delta X   Delta X   Delta X     New X
                                 (Linear)    (Quad)   (Total)
    R1        2.51599  -0.00516   0.00000  -0.01412  -0.01412   2.50187
    R2        2.05079  -0.00229   0.00000  -0.00511  -0.00511   2.04568
    R3        2.05078  -0.00229   0.00000  -0.00510  -0.00510   2.04568
    R4        2.05078  -0.00229   0.00000  -0.00510  -0.00510   2.04568
    R5        2.05076  -0.00229   0.00000  -0.00508  -0.00508   2.04568
    A1        2.09824   0.00282   0.00000   0.02663   0.02663   2.12487
    A2        2.09824   0.00282   0.00000   0.02663   0.02663   2.12487
    A3        2.08670  -0.00564   0.00000  -0.05326  -0.05326   2.03344
    A4        2.09823   0.00282   0.00000   0.02664   0.02664   2.12487
    A5        2.09824   0.00282   0.00000   0.02663   0.02663   2.12487
    A6        2.08671  -0.00564   0.00000  -0.05327  -0.05327   2.03344
    D1        0.00000  -0.00000   0.00000  -0.00000   0.00000   0.00000
    D2        3.14159   0.00000   0.00000   0.00000   0.00000   3.14159
    D3        3.14159  -0.00000   0.00000  -0.00000   0.00000   3.14159
    D4       -0.00000   0.00000   0.00000   0.00000   0.00000   0.00000
         Item               Value     Threshold  Converged?
 Maximum Force            0.005639     0.000450     NO 
 RMS     Force            0.003088     0.000300     NO 
 Maximum Displacement     0.038830     0.001800     NO 
 RMS     Displacement     0.025575     0.001200     NO 
 Predicted change in Energy=-5.148226D-04
 Lowest energy point so far.  Saving SCF results.
 GradGradGradGradGradGradGradGradGradGradGradGradGradGradGradGradGradGrad

 Leave Link  103 at Wed Feb 23 17:04:35 2022, MaxMem= 17179869184 cpu:               0.3 elap:               0.0
 (Enter /home/saurabh/gaussian/g16/l202.exe)
                          Input orientation:                          
 ---------------------------------------------------------------------
 Center     Atomic      Atomic             Coordinates (Angstroms)
 Number     Number       Type             X           Y           Z
 ---------------------------------------------------------------------
      1          6           0       -1.491942    2.016926   -0.000000
      2          6           0       -0.170064    2.090638   -0.000000
      3          1           0       -2.009444    1.067134   -0.044186
      4          1           0       -2.111834    2.903293    0.044186
      5          1           0        0.449827    1.204270   -0.044186
      6          1           0        0.347438    3.040429    0.044186
 ---------------------------------------------------------------------
                    Distance matrix (angstroms):
                    1          2          3          4          5
     1  C    0.000000
     2  C    1.323932   0.000000
     3  H    1.082527   2.105429   0.000000
     4  H    1.082527   2.105429   1.841133   0.000000
     5  H    2.105429   1.082527   2.463092   3.075158   0.000000
     6  H    2.105429   1.082527   3.075158   2.463092   1.841133
                    6
     6  H    0.000000
 Stoichiometry    C2H4
 Framework group  CS[SG(C2H4)]
 Deg. of freedom     9
 Full point group                 CS      NOp   2
 RotChk:  IX=3 Diff= 2.31D-06
 Largest Abelian subgroup         CS      NOp   2
 Largest concise Abelian subgroup C1      NOp   1
                         Standard orientation:                         
 ---------------------------------------------------------------------
 Center     Atomic      Atomic             Coordinates (Angstroms)
 Number     Number       Type             X           Y           Z
 ---------------------------------------------------------------------
      1          6           0        0.000000   -0.661966    0.000000
      2          6           0        0.000000    0.661966   -0.000000
      3          1           0       -0.920567   -1.231546    0.000000
      4          1           0        0.920567   -1.231546   -0.000000
      5          1           0       -0.920567    1.231546    0.000000
      6          1           0        0.920567    1.231546   -0.000000
 ---------------------------------------------------------------------
 Rotational constants (GHZ):         147.9318038          30.3876527          25.2092529
 Leave Link  202 at Wed Feb 23 17:04:35 2022, MaxMem= 17179869184 cpu:               0.2 elap:               0.0
 (Enter /home/saurabh/gaussian/g16/l301.exe)
 Standard basis: CC-pVTZ+d (5D, 7F)
 Ernie: Thresh=  0.10000D-02 Tol=  0.10000D-05 Strict=F.
 Ernie:  6 primitive shells out of 84 were deleted.
 There are    92 symmetry adapted cartesian basis functions of A'  symmetry.
 There are    38 symmetry adapted cartesian basis functions of A"  symmetry.
 There are    80 symmetry adapted basis functions of A'  symmetry.
 There are    36 symmetry adapted basis functions of A"  symmetry.
   116 basis functions,   172 primitive gaussians,   130 cartesian basis functions
     8 alpha electrons        8 beta electrons
       nuclear repulsion energy        33.5021229620 Hartrees.
 IExCor=  402 DFT=T Ex+Corr=B3LYP ExCW=0 ScaHFX=  0.200000
 ScaDFX=  0.800000  0.720000  1.000000  0.810000 ScalE2=  1.000000  1.000000
 IRadAn=      5 IRanWt=     -1 IRanGd=            0 ICorTp=0 IEmpDi=  4
 NAtoms=    6 NActive=    6 NUniq=    6 SFac= 1.00D+00 NAtFMM=   60 NAOKFM=F Big=F
 Integral buffers will be    131072 words long.
 Raffenetti 2 integral format.
 Two-electron integral symmetry is turned on.
 Leave Link  301 at Wed Feb 23 17:04:35 2022, MaxMem= 17179869184 cpu:               1.2 elap:               0.1
 (Enter /home/saurabh/gaussian/g16/l302.exe)
 NPDir=0 NMtPBC=     1 NCelOv=     1 NCel=       1 NClECP=     1 NCelD=      1
         NCelK=      1 NCelE2=     1 NClLst=     1 CellRange=     0.0.
 One-electron integrals computed using PRISM.
 One-electron integral symmetry used in STVInt
 NBasis=   116 RedAO= T EigKep=  7.06D-04  NBF=    80    36
 NBsUse=   116 1.00D-06 EigRej= -1.00D+00 NBFU=    80    36
 Precomputing XC quadrature grid using
 IXCGrd= 4 IRadAn=           5 IRanWt=          -1 IRanGd=           0 AccXCQ= 0.00D+00.
 Generated NRdTot=       0 NPtTot=           0 NUsed=           0 NTot=          32
 NSgBfM=   130   130   130   130   130 MxSgAt=     6 MxSgA2=     6.
 Leave Link  302 at Wed Feb 23 17:04:35 2022, MaxMem= 17179869184 cpu:               3.1 elap:               0.2
 (Enter /home/saurabh/gaussian/g16/l303.exe)
 DipDrv:  MaxL=1.
 Leave Link  303 at Wed Feb 23 17:04:35 2022, MaxMem= 17179869184 cpu:               0.4 elap:               0.0
 (Enter /home/saurabh/gaussian/g16/l401.exe)
 Initial guess from the checkpoint file:  "CH2CH2_w1u.chk"
 B after Tr=     0.000000    0.000000    0.000000
         Rot=    1.000000    0.000000   -0.000000    0.000001 Ang=   0.00 deg.
 Guess basis will be translated and rotated to current coordinates.
 JPrj=2 DoOrth=T DoCkMO=T.
 Initial guess orbital symmetries:
       Occupied  (A') (A') (A') (A') (A') (A') (A') (A")
       Virtual   (A") (A') (A') (A') (A') (A') (A') (A") (A') (A')
                 (A") (A') (A') (A') (A') (A") (A') (A') (A") (A")
                 (A') (A') (A') (A') (A") (A") (A') (A") (A') (A')
                 (A") (A') (A') (A') (A') (A') (A") (A') (A') (A')
                 (A") (A') (A") (A') (A') (A') (A') (A") (A') (A")
                 (A') (A') (A') (A") (A") (A") (A') (A") (A') (A')
                 (A') (A') (A") (A') (A") (A") (A') (A") (A') (A')
                 (A') (A") (A') (A') (A") (A') (A") (A") (A') (A')
                 (A') (A") (A") (A') (A') (A") (A') (A') (A") (A")
                 (A') (A') (A') (A') (A") (A') (A') (A") (A") (A')
                 (A') (A') (A') (A') (A') (A') (A') (A')
 The electronic state of the initial guess is 1-A'.
 Generating alternative initial guess.
 ExpMin= 1.03D-01 ExpMax= 8.24D+03 ExpMxC= 2.81D+02 IAcc=3 IRadAn=         5 AccDes= 0.00D+00
 Harris functional with IExCor=  402 and IRadAn=       5 diagonalized for initial guess.
 HarFok:  IExCor=  402 AccDes= 0.00D+00 IRadAn=         5 IDoV= 1 UseB2=F ITyADJ=14
 ICtDFT=  3500011 ScaDFX=  1.000000  1.000000  1.000000  1.000000
 FoFCou: FMM=F IPFlag=           0 FMFlag=      100000 FMFlg1=           0
         NFxFlg=           0 DoJE=T BraDBF=F KetDBF=T FulRan=T
         wScrn=  0.000000 ICntrl=       500 IOpCl=  0 I1Cent=   200000004 NGrid=           0
         NMat0=    1 NMatS0=      1 NMatT0=    0 NMatD0=    1 NMtDS0=    0 NMtDT0=    0
 Petite list used in FoFCou.
 Harris En= -78.6677219028088    
 Leave Link  401 at Wed Feb 23 17:04:35 2022, MaxMem= 17179869184 cpu:               5.6 elap:               0.3
 (Enter /home/saurabh/gaussian/g16/l502.exe)
 Keep R1 ints in memory in symmetry-blocked form, NReq=44068667.
 FoFCou: FMM=F IPFlag=           0 FMFlag=           0 FMFlg1=           0
         NFxFlg=           0 DoJE=F BraDBF=F KetDBF=F FulRan=T
         wScrn=  0.000000 ICntrl=       600 IOpCl=  0 I1Cent=           0 NGrid=           0
         NMat0=    1 NMatS0=   6786 NMatT0=    0 NMatD0=    1 NMtDS0=    0 NMtDT0=    0
 Petite list used in FoFCou.
 Closed shell SCF:
 Using DIIS extrapolation, IDIIS=  1040.
 NGot= 17179869184 LenX= 17168036721 LenY= 17168019380
 Requested convergence on RMS density matrix=1.00D-08 within1000 cycles.
 Requested convergence on MAX density matrix=1.00D-06.
 Requested convergence on             energy=1.00D-06.
 No special actions if energy rises.
 Integral accuracy reduced to 1.0D-05 until final iterations.

 Cycle   1  Pass 0  IDiag  1:
 E= -78.6230268775750    
 DIIS: error= 1.93D-03 at cycle   1 NSaved=   1.
 NSaved= 1 IEnMin= 1 EnMin= -78.6230268775750     IErMin= 1 ErrMin= 1.93D-03
 ErrMax= 1.93D-03  0.00D+00 EMaxC= 1.00D-01 BMatC= 2.26D-04 BMatP= 2.26D-04
 IDIUse=3 WtCom= 9.81D-01 WtEn= 1.93D-02
 Coeff-Com:  0.100D+01
 Coeff-En:   0.100D+01
 Coeff:      0.100D+01
 Gap=     0.281 Goal=   None    Shift=    0.000
 GapD=    0.281 DampG=1.000 DampE=1.000 DampFc=1.0000 IDamp=-1.
 RMSDP=8.72D-05 MaxDP=1.43D-03              OVMax= 5.07D-03

 Cycle   2  Pass 0  IDiag  1:
 E= -78.6231686435400     Delta-E=       -0.000141765965 Rises=F Damp=F
 DIIS: error= 5.32D-04 at cycle   2 NSaved=   2.
 NSaved= 2 IEnMin= 2 EnMin= -78.6231686435400     IErMin= 2 ErrMin= 5.32D-04
 ErrMax= 5.32D-04  0.00D+00 EMaxC= 1.00D-01 BMatC= 1.15D-05 BMatP= 2.26D-04
 IDIUse=3 WtCom= 9.95D-01 WtEn= 5.32D-03
 Coeff-Com:  0.644D-01 0.936D+00
 Coeff-En:   0.000D+00 0.100D+01
 Coeff:      0.640D-01 0.936D+00
 Gap=     0.279 Goal=   None    Shift=    0.000
 RMSDP=3.38D-05 MaxDP=5.61D-04 DE=-1.42D-04 OVMax= 1.93D-03

 Cycle   3  Pass 0  IDiag  1:
 E= -78.6231694793388     Delta-E=       -0.000000835799 Rises=F Damp=F
 DIIS: error= 4.66D-04 at cycle   3 NSaved=   3.
 NSaved= 3 IEnMin= 3 EnMin= -78.6231694793388     IErMin= 3 ErrMin= 4.66D-04
 ErrMax= 4.66D-04  0.00D+00 EMaxC= 1.00D-01 BMatC= 1.07D-05 BMatP= 1.15D-05
 IDIUse=3 WtCom= 9.95D-01 WtEn= 4.66D-03
 Coeff-Com: -0.149D-01 0.494D+00 0.521D+00
 Coeff-En:   0.000D+00 0.482D+00 0.518D+00
 Coeff:     -0.148D-01 0.494D+00 0.521D+00
 Gap=     0.279 Goal=   None    Shift=    0.000
 RMSDP=1.59D-05 MaxDP=2.64D-04 DE=-8.36D-07 OVMax= 9.61D-04

 Cycle   4  Pass 0  IDiag  1:
 E= -78.6231804900443     Delta-E=       -0.000011010705 Rises=F Damp=F
 DIIS: error= 7.25D-06 at cycle   4 NSaved=   4.
 NSaved= 4 IEnMin= 4 EnMin= -78.6231804900443     IErMin= 4 ErrMin= 7.25D-06
 ErrMax= 7.25D-06  0.00D+00 EMaxC= 1.00D-01 BMatC= 1.95D-09 BMatP= 1.07D-05
 IDIUse=1 WtCom= 1.00D+00 WtEn= 0.00D+00
 Coeff-Com: -0.342D-03-0.114D-01-0.504D-03 0.101D+01
 Coeff:     -0.342D-03-0.114D-01-0.504D-03 0.101D+01
 Gap=     0.279 Goal=   None    Shift=    0.000
 RMSDP=4.82D-07 MaxDP=7.42D-06 DE=-1.10D-05 OVMax= 2.39D-05

 Initial convergence to 1.0D-05 achieved.  Increase integral accuracy.
 Cycle   5  Pass 1  IDiag  1:
 E= -78.6231797464482     Delta-E=        0.000000743596 Rises=F Damp=F
 DIIS: error= 1.62D-06 at cycle   1 NSaved=   1.
 NSaved= 1 IEnMin= 1 EnMin= -78.6231797464482     IErMin= 1 ErrMin= 1.62D-06
 ErrMax= 1.62D-06  0.00D+00 EMaxC= 1.00D-01 BMatC= 8.43D-11 BMatP= 8.43D-11
 IDIUse=1 WtCom= 1.00D+00 WtEn= 0.00D+00
 Coeff-Com:  0.100D+01
 Coeff:      0.100D+01
 Gap=     0.279 Goal=   None    Shift=    0.000
 RMSDP=4.82D-07 MaxDP=7.42D-06 DE= 7.44D-07 OVMax= 5.91D-06

 Cycle   6  Pass 1  IDiag  1:
 E= -78.6231797465126     Delta-E=       -0.000000000064 Rises=F Damp=F
 DIIS: error= 7.96D-07 at cycle   2 NSaved=   2.
 NSaved= 2 IEnMin= 2 EnMin= -78.6231797465126     IErMin= 2 ErrMin= 7.96D-07
 ErrMax= 7.96D-07  0.00D+00 EMaxC= 1.00D-01 BMatC= 2.60D-11 BMatP= 8.43D-11
 IDIUse=1 WtCom= 1.00D+00 WtEn= 0.00D+00
 Coeff-Com:  0.322D+00 0.678D+00
 Coeff:      0.322D+00 0.678D+00
 Gap=     0.279 Goal=   None    Shift=    0.000
 RMSDP=3.83D-08 MaxDP=1.05D-06 DE=-6.43D-11 OVMax= 4.90D-06

 Cycle   7  Pass 1  IDiag  1:
 E= -78.6231797465209     Delta-E=       -0.000000000008 Rises=F Damp=F
 DIIS: error= 7.63D-07 at cycle   3 NSaved=   3.
 NSaved= 3 IEnMin= 3 EnMin= -78.6231797465209     IErMin= 3 ErrMin= 7.63D-07
 ErrMax= 7.63D-07  0.00D+00 EMaxC= 1.00D-01 BMatC= 1.68D-11 BMatP= 2.60D-11
 IDIUse=1 WtCom= 1.00D+00 WtEn= 0.00D+00
 Coeff-Com:  0.102D+00 0.443D+00 0.455D+00
 Coeff:      0.102D+00 0.443D+00 0.455D+00
 Gap=     0.279 Goal=   None    Shift=    0.000
 RMSDP=1.93D-08 MaxDP=5.44D-07 DE=-8.33D-12 OVMax= 2.60D-06

 Cycle   8  Pass 1  IDiag  1:
 E= -78.6231797465378     Delta-E=       -0.000000000017 Rises=F Damp=F
 DIIS: error= 7.11D-08 at cycle   4 NSaved=   4.
 NSaved= 4 IEnMin= 4 EnMin= -78.6231797465378     IErMin= 4 ErrMin= 7.11D-08
 ErrMax= 7.11D-08  0.00D+00 EMaxC= 1.00D-01 BMatC= 2.14D-13 BMatP= 1.68D-11
 IDIUse=1 WtCom= 1.00D+00 WtEn= 0.00D+00
 Coeff-Com: -0.830D-02 0.488D-01 0.132D+00 0.828D+00
 Coeff:     -0.830D-02 0.488D-01 0.132D+00 0.828D+00
 Gap=     0.279 Goal=   None    Shift=    0.000
 RMSDP=2.18D-09 MaxDP=5.25D-08 DE=-1.69D-11 OVMax= 2.40D-07

 SCF Done:  E(RB3LYP) =  -78.6231797465     A.U. after    8 cycles
            NFock=  8  Conv=0.22D-08     -V/T= 2.0072
 KE= 7.805855910462D+01 PE=-2.486644428043D+02 EE= 5.848058099113D+01
 Leave Link  502 at Wed Feb 23 17:04:36 2022, MaxMem= 17179869184 cpu:              14.5 elap:               0.8
 (Enter /home/saurabh/gaussian/g16/l701.exe)
 ... and contract with generalized density number  0.
 Compute integral first derivatives.
 Leave Link  701 at Wed Feb 23 17:04:36 2022, MaxMem= 17179869184 cpu:               3.2 elap:               0.2
 (Enter /home/saurabh/gaussian/g16/l702.exe)
 L702 exits ... SP integral derivatives will be done elsewhere.
 Leave Link  702 at Wed Feb 23 17:04:36 2022, MaxMem= 17179869184 cpu:               0.4 elap:               0.0
 (Enter /home/saurabh/gaussian/g16/l703.exe)
 Integral derivatives from FoFJK, PRISM(SPDF).
 Compute integral first derivatives, UseDBF=F ICtDFT=           0.
 Calling FoFJK, ICntrl=      2127 FMM=F ISym2X=1 I1Cent= 0 IOpClX= 0 NMat=1 NMatS=1 NMatT=0.
 FoFJK:  IHMeth= 1 ICntrl=    2127 DoSepK=F KAlg= 0 I1Cent=           0 FoldK=F
 IRaf=         0 NMat=       1 IRICut=       1 DoRegI=T DoRafI=F ISym2E= 1 IDoP0=0 IntGTp=1.
 FoFCou: FMM=F IPFlag=           0 FMFlag=      100000 FMFlg1=         800
         NFxFlg=           0 DoJE=F BraDBF=F KetDBF=F FulRan=T
         wScrn=  0.000000 ICntrl=      2127 IOpCl=  0 I1Cent=           0 NGrid=           0
         NMat0=    1 NMatS0=      1 NMatT0=    0 NMatD0=    1 NMtDS0=    0 NMtDT0=    0
 Petite list used in FoFCou.
 Leave Link  703 at Wed Feb 23 17:04:37 2022, MaxMem= 17179869184 cpu:              11.7 elap:               0.6
 (Enter /home/saurabh/gaussian/g16/l716.exe)
 Dipole        =-3.47816702D-08-1.45362775D-08-1.83950575D-19
 ***** Axes restored to original set *****
 -------------------------------------------------------------------
 Center     Atomic                   Forces (Hartrees/Bohr)
 Number     Number              X              Y              Z
 -------------------------------------------------------------------
      1        6          -0.000188483   -0.000010472    0.000000002
      2        6           0.000188537    0.000010536    0.000000001
      3        1          -0.000011654   -0.000044375   -0.000002098
      4        1          -0.000016499    0.000042785    0.000002097
      5        1           0.000016506   -0.000042803   -0.000002098
      6        1           0.000011592    0.000044328    0.000002096
 -------------------------------------------------------------------
 Cartesian Forces:  Max     0.000188537 RMS     0.000066551
 Leave Link  716 at Wed Feb 23 17:04:37 2022, MaxMem= 17179869184 cpu:               0.4 elap:               0.0
 (Enter /home/saurabh/gaussian/g16/l103.exe)

 GradGradGradGradGradGradGradGradGradGradGradGradGradGradGradGradGradGrad
 Berny optimization.
 Using GEDIIS/GDIIS optimizer.
 FormGI is forming the generalized inverse of G from B-inverse, IUseBI=4.
 Internal  Forces:  Max     0.000216971 RMS     0.000060936
 Search for a local minimum.
 Step number   2 out of a maximum of  100
 All quantities printed in internal units (Hartrees-Bohrs-Radians)
 RMS Force = .60936D-04 SwitMx=.10000D-02 MixMth= 2
 Mixed Optimization -- En-DIIS/RFO-DIIS
 Update second derivatives using D2CorX and points    1    2
 DE= -5.10D-04 DEPred=-5.15D-04 R= 9.90D-01
 TightC=F SS=  1.41D+00  RLast= 9.39D-02 DXNew= 5.0454D-01 2.8166D-01
 Trust test= 9.90D-01 RLast= 9.39D-02 DXMaxT set to 3.00D-01
 The second derivative matrix:
                          R1        R2        R3        R4        R5
           R1           0.61461
           R2           0.00806   0.35006
           R3           0.00806   0.00159   0.35007
           R4           0.00806   0.00100  -0.00038   0.35006
           R5           0.00806  -0.00038   0.00100   0.00159   0.35008
           A1           0.01085   0.00535  -0.01147  -0.00364   0.00443
           A2           0.01084  -0.01147   0.00535   0.00443  -0.00364
           A3          -0.02169   0.00613   0.00613  -0.00079  -0.00079
           A4           0.01085  -0.00364   0.00443   0.00535  -0.01147
           A5           0.01084   0.00443  -0.00364  -0.01148   0.00535
           A6          -0.02169  -0.00079  -0.00079   0.00613   0.00613
           D1          -0.00000  -0.00000  -0.00000  -0.00000  -0.00000
           D2          -0.00000  -0.00000  -0.00000  -0.00000  -0.00000
           D3          -0.00000  -0.00000  -0.00000  -0.00000  -0.00000
           D4           0.00000   0.00000   0.00000   0.00000   0.00000
                          A1        A2        A3        A4        A5
           A1           0.08321
           A2          -0.04789   0.08321
           A3          -0.03532  -0.03532   0.07064
           A4          -0.00901   0.01065  -0.00164   0.08321
           A5           0.01065  -0.00901  -0.00164  -0.04789   0.08321
           A6          -0.00164  -0.00164   0.00328  -0.03532  -0.03532
           D1           0.00000   0.00000  -0.00000   0.00000   0.00000
           D2           0.00000   0.00000  -0.00000   0.00000   0.00000
           D3           0.00000   0.00000  -0.00000   0.00000   0.00000
           D4          -0.00000  -0.00000   0.00000  -0.00000  -0.00000
                          A6        D1        D2        D3        D4
           A6           0.07064
           D1          -0.00000   0.02678
           D2          -0.00000   0.00821   0.03301
           D3          -0.00000   0.00821  -0.01659   0.03301
           D4           0.00000  -0.01036   0.00821   0.00821   0.02678
 ITU=  1  0
 Use linear search instead of GDIIS.
     Eigenvalues ---    0.03285   0.03714   0.04960   0.10047   0.10764
     Eigenvalues ---    0.11112   0.14765   0.35018   0.35020   0.35161
     Eigenvalues ---    0.35182   0.61829
 RFO step:  Lambda=-6.97173692D-08 EMin= 3.28495142D-02
 Quartic linear search produced a step of -0.00611.
 Iteration  1 RMS(Cart)=  0.00012918 RMS(Int)=  0.00000001
 Iteration  2 RMS(Cart)=  0.00000001 RMS(Int)=  0.00000000
 ITry= 1 IFail=0 DXMaxC= 2.03D-04 DCOld= 1.00D+10 DXMaxT= 3.00D-01 DXLimC= 3.00D+00 Rises=F
 ClnCor:  largest displacement from symmetrization is 4.67D-11 for atom     5.
 Variable       Old X    -DE/DX   Delta X   Delta X   Delta X     New X
                                 (Linear)    (Quad)   (Total)
    R1        2.50187   0.00022   0.00009   0.00028   0.00037   2.50224
    R2        2.04568   0.00004   0.00003   0.00008   0.00011   2.04579
    R3        2.04568   0.00004   0.00003   0.00008   0.00011   2.04579
    R4        2.04568   0.00004   0.00003   0.00008   0.00011   2.04579
    R5        2.04568   0.00004   0.00003   0.00008   0.00011   2.04579
    A1        2.12487  -0.00001  -0.00016   0.00007  -0.00010   2.12478
    A2        2.12487  -0.00001  -0.00016   0.00007  -0.00010   2.12478
    A3        2.03344   0.00002   0.00033  -0.00013   0.00019   2.03363
    A4        2.12487  -0.00001  -0.00016   0.00007  -0.00010   2.12478
    A5        2.12487  -0.00001  -0.00016   0.00007  -0.00010   2.12478
    A6        2.03344   0.00002   0.00033  -0.00013   0.00019   2.03363
    D1       -0.00000   0.00000   0.00000  -0.00000   0.00000   0.00000
    D2        3.14159   0.00000   0.00000  -0.00000   0.00000   3.14159
    D3        3.14159   0.00000   0.00000  -0.00000   0.00000   3.14159
    D4       -0.00000   0.00000   0.00000   0.00000   0.00000   0.00000
         Item               Value     Threshold  Converged?
 Maximum Force            0.000217     0.000450     YES
 RMS     Force            0.000061     0.000300     YES
 Maximum Displacement     0.000203     0.001800     YES
 RMS     Displacement     0.000129     0.001200     YES
 Predicted change in Energy=-5.445709D-08
 Optimization completed.
    -- Stationary point found.
                           ----------------------------
                           !   Optimized Parameters   !
                           ! (Angstroms and Degrees)  !
 --------------------------                            --------------------------
 ! Name  Definition              Value          Derivative Info.                !
 --------------------------------------------------------------------------------
 ! R1    R(1,2)                  1.3239         -DE/DX =    0.0002              !
 ! R2    R(1,3)                  1.0825         -DE/DX =    0.0                 !
 ! R3    R(1,4)                  1.0825         -DE/DX =    0.0                 !
 ! R4    R(2,5)                  1.0825         -DE/DX =    0.0                 !
 ! R5    R(2,6)                  1.0825         -DE/DX =    0.0                 !
 ! A1    A(2,1,3)              121.7462         -DE/DX =    0.0                 !
 ! A2    A(2,1,4)              121.7462         -DE/DX =    0.0                 !
 ! A3    A(3,1,4)              116.5075         -DE/DX =    0.0                 !
 ! A4    A(1,2,5)              121.7462         -DE/DX =    0.0                 !
 ! A5    A(1,2,6)              121.7463         -DE/DX =    0.0                 !
 ! A6    A(5,2,6)              116.5075         -DE/DX =    0.0                 !
 ! D1    D(3,1,2,5)              0.0            -DE/DX =    0.0                 !
 ! D2    D(3,1,2,6)            180.0            -DE/DX =    0.0                 !
 ! D3    D(4,1,2,5)            180.0            -DE/DX =    0.0                 !
 ! D4    D(4,1,2,6)              0.0            -DE/DX =    0.0                 !
 --------------------------------------------------------------------------------
 Lowest energy point so far.  Saving SCF results.
 Largest change from initial coordinates is atom    5       0.026 Angstoms.
 GradGradGradGradGradGradGradGradGradGradGradGradGradGradGradGradGradGrad

 Leave Link  103 at Wed Feb 23 17:04:37 2022, MaxMem= 17179869184 cpu:               0.3 elap:               0.0
 (Enter /home/saurabh/gaussian/g16/l202.exe)
                          Input orientation:                          
 ---------------------------------------------------------------------
 Center     Atomic      Atomic             Coordinates (Angstroms)
 Number     Number       Type             X           Y           Z
 ---------------------------------------------------------------------
      1          6           0       -1.491942    2.016926   -0.000000
      2          6           0       -0.170064    2.090638   -0.000000
      3          1           0       -2.009444    1.067134   -0.044186
      4          1           0       -2.111834    2.903293    0.044186
      5          1           0        0.449827    1.204270   -0.044186
      6          1           0        0.347438    3.040429    0.044186
 ---------------------------------------------------------------------
                    Distance matrix (angstroms):
                    1          2          3          4          5
     1  C    0.000000
     2  C    1.323932   0.000000
     3  H    1.082527   2.105429   0.000000
     4  H    1.082527   2.105429   1.841133   0.000000
     5  H    2.105429   1.082527   2.463092   3.075158   0.000000
     6  H    2.105429   1.082527   3.075158   2.463092   1.841133
                    6
     6  H    0.000000
 Stoichiometry    C2H4
 Framework group  CS[SG(C2H4)]
 Deg. of freedom     9
 Full point group                 CS      NOp   2
 RotChk:  IX=3 Diff= 4.12D-16
 Largest Abelian subgroup         CS      NOp   2
 Largest concise Abelian subgroup C1      NOp   1
                         Standard orientation:                         
 ---------------------------------------------------------------------
 Center     Atomic      Atomic             Coordinates (Angstroms)
 Number     Number       Type             X           Y           Z
 ---------------------------------------------------------------------
      1          6           0        0.000000   -0.661966   -0.000000
      2          6           0        0.000000    0.661966    0.000000
      3          1           0       -0.920567   -1.231546   -0.000000
      4          1           0        0.920567   -1.231546    0.000000
      5          1           0       -0.920567    1.231546   -0.000000
      6          1           0        0.920567    1.231546    0.000000
 ---------------------------------------------------------------------
 Rotational constants (GHZ):         147.9318038          30.3876527          25.2092529
 Leave Link  202 at Wed Feb 23 17:04:37 2022, MaxMem= 17179869184 cpu:               0.2 elap:               0.0
 (Enter /home/saurabh/gaussian/g16/l601.exe)
 Copying SCF densities to generalized density rwf, IOpCl= 0 IROHF=0.

 **********************************************************************

            Population analysis using the SCF Density.

 **********************************************************************

 Orbital symmetries:
       Occupied  (A') (A') (A') (A') (A') (A') (A') (A")
       Virtual   (A") (A') (A') (A') (A') (A') (A') (A') (A") (A')
                 (A") (A') (A') (A') (A') (A") (A') (A') (A") (A')
                 (A") (A') (A') (A') (A") (A') (A") (A") (A') (A')
                 (A") (A') (A') (A') (A') (A") (A') (A') (A') (A')
                 (A") (A') (A") (A') (A') (A') (A') (A") (A') (A")
                 (A') (A') (A') (A") (A") (A") (A') (A") (A') (A')
                 (A') (A') (A") (A') (A") (A") (A') (A") (A') (A')
                 (A") (A') (A') (A") (A') (A') (A") (A") (A') (A')
                 (A') (A") (A") (A') (A') (A") (A') (A') (A") (A")
                 (A') (A') (A') (A') (A") (A') (A") (A') (A') (A")
                 (A') (A') (A') (A') (A') (A') (A') (A')
 The electronic state is 1-A'.
 Alpha  occ. eigenvalues --  -10.17427 -10.17333  -0.76569  -0.58357  -0.47397
 Alpha  occ. eigenvalues --   -0.42635  -0.35896  -0.28045
 Alpha virt. eigenvalues --   -0.00114   0.05561   0.08302   0.08421   0.14810
 Alpha virt. eigenvalues --    0.24282   0.24605   0.29073   0.29337   0.32746
 Alpha virt. eigenvalues --    0.38653   0.41404   0.43528   0.47292   0.48855
 Alpha virt. eigenvalues --    0.50127   0.51899   0.59798   0.64171   0.67239
 Alpha virt. eigenvalues --    0.68208   0.79717   0.89345   0.90838   0.98136
 Alpha virt. eigenvalues --    1.01464   1.02008   1.02805   1.07648   1.10721
 Alpha virt. eigenvalues --    1.16941   1.24842   1.26153   1.34324   1.34371
 Alpha virt. eigenvalues --    1.39907   1.40197   1.54968   1.55490   1.67307
 Alpha virt. eigenvalues --    2.00457   2.01933   2.19201   2.23805   2.29112
 Alpha virt. eigenvalues --    2.31723   2.38508   2.41853   2.58521   2.61916
 Alpha virt. eigenvalues --    2.73960   2.77227   2.78208   2.78353   2.79044
 Alpha virt. eigenvalues --    2.82196   2.84006   2.87996   2.91075   3.02204
 Alpha virt. eigenvalues --    3.06817   3.07021   3.10239   3.15887   3.17827
 Alpha virt. eigenvalues --    3.20863   3.24902   3.31249   3.38654   3.45464
 Alpha virt. eigenvalues --    3.58820   3.60220   3.63634   3.70073   3.71399
 Alpha virt. eigenvalues --    3.72984   3.80282   3.86620   3.87837   3.90921
 Alpha virt. eigenvalues --    3.95382   4.00804   4.04183   4.06948   4.14196
 Alpha virt. eigenvalues --    4.23611   4.28917   4.47465   4.52122   4.58148
 Alpha virt. eigenvalues --    4.62044   4.65573   4.74533   4.83078   4.87064
 Alpha virt. eigenvalues --    5.01317   5.04759   5.09955   5.17516   5.17602
 Alpha virt. eigenvalues --    5.28361   5.39430   5.87274   5.95926   5.98951
 Alpha virt. eigenvalues --    6.45199  11.15624  14.09903
          Condensed to atoms (all electrons):
               1          2          3          4          5          6
     1  C    4.872544   0.624391   0.409577   0.409577  -0.042510  -0.042510
     2  C    0.624391   4.872544  -0.042510  -0.042510   0.409577   0.409577
     3  H    0.409577  -0.042510   0.559087  -0.038883  -0.010125   0.007318
     4  H    0.409577  -0.042510  -0.038883   0.559087   0.007318  -0.010125
     5  H   -0.042510   0.409577  -0.010125   0.007318   0.559087  -0.038883
     6  H   -0.042510   0.409577   0.007318  -0.010125  -0.038883   0.559087
 Mulliken charges:
               1
     1  C   -0.231070
     2  C   -0.231070
     3  H    0.115535
     4  H    0.115535
     5  H    0.115535
     6  H    0.115535
 Sum of Mulliken charges =  -0.00000
 Mulliken charges with hydrogens summed into heavy atoms:
               1
     1  C    0.000000
     2  C   -0.000000
 Electronic spatial extent (au):  <R**2>=             82.5233
 Charge=             -0.0000 electrons
 Dipole moment (field-independent basis, Debye):
    X=             -0.0000    Y=             -0.0000    Z=              0.0000  Tot=              0.0000
 Quadrupole moment (field-independent basis, Debye-Ang):
   XX=            -12.4325   YY=            -12.3584   ZZ=            -15.5267
   XY=              0.0000   XZ=              0.0000   YZ=             -0.0000
 Traceless Quadrupole moment (field-independent basis, Debye-Ang):
   XX=              1.0067   YY=              1.0808   ZZ=             -2.0875
   XY=              0.0000   XZ=              0.0000   YZ=             -0.0000
 Octapole moment (field-independent basis, Debye-Ang**2):
  XXX=             -0.0000  YYY=              0.0000  ZZZ=              0.0000  XYY=              0.0000
  XXY=             -0.0000  XXZ=              0.0000  XZZ=             -0.0000  YZZ=             -0.0000
  YYZ=              0.0000  XYZ=             -0.0000
 Hexadecapole moment (field-independent basis, Debye-Ang**3):
 XXXX=            -27.6677 YYYY=            -69.0646 ZZZZ=            -18.4392 XXXY=             -0.0000
 XXXZ=              0.0000 YYYX=              0.0000 YYYZ=             -0.0000 ZZZX=              0.0000
 ZZZY=             -0.0000 XXYY=            -13.6674 XXZZ=             -8.3786 YYZZ=            -15.4356
 XXYZ=             -0.0000 YYXZ=              0.0000 ZZXY=             -0.0000
 N-N= 3.350212296201D+01 E-N=-2.486644439969D+02  KE= 7.805855910462D+01
 Symmetry A'   KE= 7.597560110012D+01
 Symmetry A"   KE= 2.082958004500D+00
 No NMR shielding tensors so no spin-rotation constants.
 Leave Link  601 at Wed Feb 23 17:04:37 2022, MaxMem= 17179869184 cpu:               2.9 elap:               0.2
 (Enter /home/saurabh/gaussian/g16/l9999.exe)
 Unable to Open any file for archive entry.
 1\1\GINC-MEDIAWIKI\FOpt\RB3LYP\CC-pVTZ+d\C2H4\SAURABH\23-Feb-2022\0\\#
 p w1u scf(verytight, maxcycles=1000) opt(calcfc, maxcyc=1000) int(grid
 =ultrafine)\\CH2CH2_w1u\\0,1\C,-1.4919423499,2.0169258397,-0.000000076
 2\C,-0.1700644123,2.0906375579,-0.0000001092\H,-2.0094443045,1.0671342
 668,-0.0441858324\H,-2.1118339193,2.9032930506,0.0441857073\H,0.449827
 0288,1.2042702818,-0.0441858955\H,0.3474379557,3.0404290302,0.04418564
 11\\Version=ES64L-G16RevC.01\State=1-A'\HF=-78.6231797\RMSD=2.180e-09\
 RMSF=6.655e-05\Dipole=0.,0.,0.\Quadrupole=0.8033843,0.7433252,-1.54670
 95,0.0033597,-0.0061406,0.1101195\PG=CS [SG(C2H4)]\\@
 The archive entry for this job was punched.


 LEARN FROM YESTERDAY,
 LIVE FOR TODAY,
 LOOK TO TOMORROW,
 REST THIS AFTERNOON.

           -- SNOOPY
 Leave Link 9999 at Wed Feb 23 17:04:37 2022, MaxMem= 17179869184 cpu:               0.5 elap:               0.0
 Job cpu time:       0 days  0 hours  3 minutes 33.6 seconds.
 Elapsed time:       0 days  0 hours  0 minutes 10.7 seconds.
 File lengths (MBytes):  RWF=     10 Int=      0 D2E=      0 Chk=      2 Scr=      1
 Normal termination of Gaussian 16 at Wed Feb 23 17:04:37 2022.
 (Enter /home/saurabh/gaussian/g16/l1.exe)
 Link1:  Proceeding to internal job step number  2.
 -------------------------------------------------------------
 #P Geom=AllCheck Guess=TCheck SCRF=Check B3LYP/cc-pVTZ+d Freq
 -------------------------------------------------------------
 1/6=1000,10=4,29=7,30=1,38=1,40=1/1,3;
 2/12=2,40=1/2;
 3/5=16,6=1,7=9,11=2,14=-4,25=1,30=1,70=2,71=2,74=-5,75=-5,116=-2,140=1/1,2,3;
 4/5=101/1;
 5/5=2,7=1000,17=3,38=6,98=1/2;
 8/6=4,10=90,11=11/1;
 11/6=1,8=1,9=11,15=111,16=1/1,2,10;
 10/6=1/2;
 6/7=2,8=2,9=2,10=2,28=1/1;
 7/8=1,10=1,25=1/1,2,3,16;
 1/6=1000,10=4,30=1/3;
 99//99;
 Leave Link    1 at Wed Feb 23 17:04:37 2022, MaxMem= 17179869184 cpu:               0.6 elap:               0.0
 (Enter /home/saurabh/gaussian/g16/l101.exe)
 Structure from the checkpoint file:  "CH2CH2_w1u.chk"
 ----------
 CH2CH2_w1u
 ----------
 Charge =  0 Multiplicity = 1
 Redundant internal coordinates found in file.  (old form).
 C,0,-1.4919423499,2.0169258397,-0.0000000762
 C,0,-0.1700644123,2.0906375579,-0.0000001092
 H,0,-2.0094443045,1.0671342668,-0.0441858324
 H,0,-2.1118339193,2.9032930506,0.0441857073
 H,0,0.4498270288,1.2042702818,-0.0441858955
 H,0,0.3474379557,3.0404290302,0.0441856411
 Recover connectivity data from disk.
 ITRead=  0  0  0  0  0  0
 MicOpt= -1 -1 -1 -1 -1 -1
 NAtoms=      6 NQM=        6 NQMF=       0 NMMI=      0 NMMIF=      0
                NMic=       0 NMicF=      0.
                    Isotopes and Nuclear Properties:
 (Nuclear quadrupole moments (NQMom) in fm**2, nuclear magnetic moments (NMagM)
  in nuclear magnetons)

  Atom         1           2           3           4           5           6
 IAtWgt=          12          12           1           1           1           1
 AtmWgt=  12.0000000  12.0000000   1.0078250   1.0078250   1.0078250   1.0078250
 NucSpn=           0           0           1           1           1           1
 AtZEff=   3.6000000   3.6000000   1.0000000   1.0000000   1.0000000   1.0000000
 NQMom=    0.0000000   0.0000000   0.0000000   0.0000000   0.0000000   0.0000000
 NMagM=    0.0000000   0.0000000   2.7928460   2.7928460   2.7928460   2.7928460
 AtZNuc=   6.0000000   6.0000000   1.0000000   1.0000000   1.0000000   1.0000000
 Leave Link  101 at Wed Feb 23 17:04:38 2022, MaxMem= 17179869184 cpu:               7.3 elap:               0.4
 (Enter /home/saurabh/gaussian/g16/l103.exe)

 GradGradGradGradGradGradGradGradGradGradGradGradGradGradGradGradGradGrad
 Berny optimization.
 Initialization pass.
                           ----------------------------
                           !    Initial Parameters    !
                           ! (Angstroms and Degrees)  !
 --------------------------                            --------------------------
 ! Name  Definition              Value          Derivative Info.                !
 --------------------------------------------------------------------------------
 ! R1    R(1,2)                  1.3239         calculate D2E/DX2 analytically  !
 ! R2    R(1,3)                  1.0825         calculate D2E/DX2 analytically  !
 ! R3    R(1,4)                  1.0825         calculate D2E/DX2 analytically  !
 ! R4    R(2,5)                  1.0825         calculate D2E/DX2 analytically  !
 ! R5    R(2,6)                  1.0825         calculate D2E/DX2 analytically  !
 ! A1    A(2,1,3)              121.7462         calculate D2E/DX2 analytically  !
 ! A2    A(2,1,4)              121.7462         calculate D2E/DX2 analytically  !
 ! A3    A(3,1,4)              116.5075         calculate D2E/DX2 analytically  !
[...]
 (Enter /home/saurabh/gaussian/g16/l801.exe)
 Windowed orbitals will be sorted by symmetry type.
 Range of M.O.s used for correlation:     1   182
 NBasis=   182 NAE=     8 NBE=     8 NFC=     0 NFV=     0
 NROrb=    182 NOA=     8 NOB=     8 NVA=   174 NVB=   174

 **** Warning!!: The largest alpha MO coefficient is  0.14439921D+02

 Leave Link  801 at Wed Feb 23 17:07:29 2022, MaxMem= 17179869184 cpu:               0.5 elap:               0.0
 (Enter /home/saurabh/gaussian/g16/l804.exe)
 Closed-shell transformation, MDV= 17179869184 ITran=4 ISComp=2.
 Unit  1 TFree=       1081152 TCopy=        707911.
 Semi-Direct transformation.
 ModeAB=           2 MOrb=             8 LenV=   17178909378
 LASXX=     12230352 LTotXX=    12230352 LenRXX=    12230352
 LTotAB=    12468933 MaxLAS=    31043376 LenRXY=    31043376
 NonZer=    31116176 LenScr=    47441408 LnRSAI=           0
 LnScr1=           0 LExtra=           0 Total=     90715136
 MaxDsk=          -1 SrtSym=           F ITran=            4
 DoSDTr:  NPSUse= 22
 JobTyp=0 Pass  1:  I=   1 to   8.
 (rs|ai) integrals will be sorted in core.
 Complete sort for first half transformation.
 First half transformation complete.
 Complete sort for second half transformation.
 Second half transformation complete.
 Spin components of T(2) and E(2):
     alpha-alpha T2 =       0.1275346233D-01 E2=     -0.4106021174D-01
     alpha-beta  T2 =       0.8966049209D-01 E2=     -0.3584108738D+00
     beta-beta   T2 =       0.1275346233D-01 E2=     -0.4106021174D-01
 ANorm=    0.1056014875D+01
 E2 =    -0.4405312973D+00 EUMP2 =    -0.78534839699593D+02
 Leave Link  804 at Wed Feb 23 17:07:33 2022, MaxMem= 17179869184 cpu:             100.0 elap:               4.6
 (Enter /home/saurabh/gaussian/g16/l913.exe)
 CIDS:  MDV= 17179869184.
 IFCWin=0 IBDFC=1 NFBD=     0     0 NFCmp=     0     0 NFFFC=     0     0
 Using DD3R+UMP44R for 1st iteration.
 Using DD4RQ for 2nd and later iterations.
 Keep R2 and R3 ints in memory in symmetry-blocked form, NReq=214062226.
 FoFCou: FMM=F IPFlag=           0 FMFlag=           0 FMFlg1=           0
         NFxFlg=           0 DoJE=F BraDBF=F KetDBF=F FulRan=T
         wScrn=  0.000000 ICntrl=       600 IOpCl=  0 I1Cent=           0 NGrid=           0
         NMat0=    1 NMatS0=  16653 NMatT0=    0 NMatD0=    1 NMtDS0=    0 NMtDT0=    0
 Petite list used in FoFCou.
 CIDS: In Core Option IDoMem=           1.
 CCSD(T)
 =======
 Iterations=  50 Convergence= 0.100D-06
 Produce multiple copies of IABC intergrals
 Iteration Nr.   1
 **********************
 DD1Dir will call FoFMem   1 times, MxPair=        72
 NAB=    36 NAA=     0 NBB=     0.
 MP4(R+Q)=  0.98625990D-02
 Maximum subspace dimension=  5
 A-vector RMS=  1.8896761D-03 Max=  1.9519806D-02 conv= 1.00D-05.
 RLE energy=       -0.4551494744
 E3=       -0.24280996D-01        EUMP3=      -0.78559120696D+02
 E4(DQ)=    0.11839534D-02        UMP4(DQ)=   -0.78557936743D+02
 E4(SDQ)=  -0.24509213D-02        UMP4(SDQ)=  -0.78561571617D+02
 VARIATIONAL ENERGIES WITH THE FIRST-ORDER WAVEFUNCTION:
 DE(Corr)= -0.45468015     E(Corr)=     -78.548988551    
 NORM(A)=   0.10623026D+01
 Iteration Nr.   2
 **********************
 DD1Dir will call FoFMem   1 times, MxPair=        72
 NAB=    36 NAA=     0 NBB=     0.
 A-vector RMS=  2.4979866D-04 Max=  1.0992692D-02 conv= 1.00D-05.
 RLE energy=       -0.4663299126
 DE(Corr)= -0.46498702     E(CORR)=     -78.559295423     Delta=-1.03D-02
 NORM(A)=   0.10674365D+01
 Iteration Nr.   3
 **********************
 DD1Dir will call FoFMem   1 times, MxPair=        72
 NAB=    36 NAA=     0 NBB=     0.
 A-vector RMS=  1.9596507D-04 Max=  3.6326510D-03 conv= 1.00D-05.
 RLE energy=       -0.4668620657
 DE(Corr)= -0.46599895     E(CORR)=     -78.560307348     Delta=-1.01D-03
 NORM(A)=   0.10689799D+01
 Iteration Nr.   4
 **********************
 DD1Dir will call FoFMem   1 times, MxPair=        72
 NAB=    36 NAA=     0 NBB=     0.
 A-vector RMS=  3.3597201D-05 Max=  1.3334722D-03 conv= 1.00D-05.
 RLE energy=       -0.4670741424
 DE(Corr)= -0.46697812     E(CORR)=     -78.561286526     Delta=-9.79D-04
 NORM(A)=   0.10693924D+01
 Iteration Nr.   5
 **********************
 DD1Dir will call FoFMem   1 times, MxPair=        72
 NAB=    36 NAA=     0 NBB=     0.
 A-vector RMS=  1.0180116D-05 Max=  2.3470294D-04 conv= 1.00D-05.
 RLE energy=       -0.4670798164
 DE(Corr)= -0.46706668     E(CORR)=     -78.561375080     Delta=-8.86D-05
 NORM(A)=   0.10694457D+01
 Iteration Nr.   6
 **********************
 DD1Dir will call FoFMem   1 times, MxPair=        72
 NAB=    36 NAA=     0 NBB=     0.
 A-vector RMS=  1.9544220D-06 Max=  2.4585226D-05 conv= 1.00D-05.
 RLE energy=       -0.4670691594
 DE(Corr)= -0.46707417     E(CORR)=     -78.561382575     Delta=-7.50D-06
 NORM(A)=   0.10694441D+01
 Iteration Nr.   7
 **********************
 DD1Dir will call FoFMem   1 times, MxPair=        72
 NAB=    36 NAA=     0 NBB=     0.
 A-vector RMS=  5.4577973D-07 Max=  6.1806956D-06 conv= 1.00D-05.
 RLE energy=       -0.4670740251
 DE(Corr)= -0.46707385     E(CORR)=     -78.561382252     Delta= 3.22D-07
 NORM(A)=   0.10694459D+01
 Iteration Nr.   8
 **********************
 DD1Dir will call FoFMem   1 times, MxPair=        72
 NAB=    36 NAA=     0 NBB=     0.
 A-vector RMS=  1.8922699D-07 Max=  1.6651777D-06 conv= 1.00D-05.
 RLE energy=       -0.4670733902
 DE(Corr)= -0.46707349     E(CORR)=     -78.561381892     Delta= 3.61D-07
 NORM(A)=   0.10694459D+01
 Iteration Nr.   9
 **********************
 DD1Dir will call FoFMem   1 times, MxPair=        72
 NAB=    36 NAA=     0 NBB=     0.
 A-vector RMS=  5.9473578D-08 Max=  6.4554226D-07 conv= 1.00D-05.
 RLE energy=       -0.4670738399
 DE(Corr)= -0.46707382     E(CORR)=     -78.561382223     Delta=-3.31D-07
 NORM(A)=   0.10694461D+01
 Iteration Nr.  10
 **********************
 DD1Dir will call FoFMem   1 times, MxPair=        72
 NAB=    36 NAA=     0 NBB=     0.
 A-vector RMS=  2.1178750D-08 Max=  2.1621435D-07 conv= 1.00D-05.
 RLE energy=       -0.4670738300
 DE(Corr)= -0.46707381     E(CORR)=     -78.561382213     Delta= 1.01D-08
 NORM(A)=   0.10694462D+01
 CI/CC converged in   10 iterations to DelEn= 1.01D-08 Conv= 1.00D-07 ErrA1= 2.12D-08 Conv= 1.00D-05
 Wavefunction amplitudes converged. E(Corr)=     -78.561382213    
 Dominant configurations:
 ***********************
 Spin Case        I    J    A    B          Value
   ABAB           8    8    9    9      -0.115177D+00
 Largest amplitude= 1.15D-01
 IPart=  1 IA=   10   10.11% done.
 IPart=  8 IA=   20   20.70% done.
 IPart=  8 IA=   30   30.64% done.
 IPart= 14 IA=   41   40.79% done.
 IPart=  3 IA=   52   50.15% done.
 IPart= 20 IA=   65   60.17% done.
 IPart=  2 IA=   80   70.33% done.
 IPart= 21 IA=   97   80.05% done.
 IPart=  9 IA=  120   90.13% done.
 Time for triples=     1073.19 seconds.
 T4(CCSD)= -0.17077535D-01
 T5(CCSD)=  0.55985450D-03
 CCSD(T)= -0.78577899894D+02
 Discarding MO integrals.
 Leave Link  913 at Wed Feb 23 17:08:39 2022, MaxMem= 17179869184 cpu:            1433.7 elap:              65.2
 (Enter /home/saurabh/gaussian/g16/l601.exe)
 Copying SCF densities to generalized density rwf, IOpCl= 0 IROHF=0.

 **********************************************************************

            Population analysis using the SCF Density.

 **********************************************************************

 Orbital symmetries:
       Occupied  (A') (A') (A') (A') (A') (A') (A') (A")
       Virtual   (A") (A') (A') (A') (A') (A') (A') (A') (A") (A')
                 (A") (A') (A') (A') (A') (A") (A') (A') (A") (A')
                 (A") (A') (A') (A') (A') (A") (A") (A") (A') (A')
                 (A") (A') (A') (A') (A') (A') (A') (A') (A") (A')
                 (A') (A") (A') (A') (A") (A') (A') (A') (A") (A')
                 (A') (A") (A') (A') (A") (A") (A') (A') (A") (A")
                 (A') (A') (A') (A") (A') (A") (A") (A') (A') (A')
                 (A") (A') (A') (A") (A') (A') (A') (A") (A") (A')
                 (A") (A') (A') (A") (A") (A') (A') (A") (A') (A")
                 (A') (A") (A') (A') (A") (A') (A') (A') (A") (A')
                 (A') (A") (A') (A') (A') (A') (A') (A') (A") (A")
                 (A') (A') (A') (A') (A') (A') (A') (A") (A") (A")
                 (A") (A') (A') (A") (A") (A') (A') (A') (A") (A')
                 (A") (A') (A") (A') (A') (A") (A') (A') (A') (A')
                 (A') (A') (A') (A') (A") (A") (A") (A") (A') (A')
                 (A') (A') (A') (A') (A") (A") (A') (A') (A') (A')
                 (A') (A') (A') (A') (A') (A') (A') (A') (A') (A')
                 (A') (A') (A') (A')
 The electronic state is 1-A'.
 Alpha  occ. eigenvalues --  -11.23215 -11.23035  -1.03553  -0.79175  -0.64230
 Alpha  occ. eigenvalues --   -0.58917  -0.50441  -0.37844
 Alpha virt. eigenvalues --    0.15371   0.15910   0.18613   0.19039   0.24137
 Alpha virt. eigenvalues --    0.36464   0.36598   0.43689   0.44008   0.47294
 Alpha virt. eigenvalues --    0.56219   0.58131   0.59293   0.63338   0.63509
 Alpha virt. eigenvalues --    0.67589   0.69111   0.79116   0.82845   0.84577
 Alpha virt. eigenvalues --    0.87369   0.98419   1.07912   1.09280   1.16877
 Alpha virt. eigenvalues --    1.18045   1.21606   1.22864   1.29464   1.30994
 Alpha virt. eigenvalues --    1.36890   1.44064   1.45275   1.54499   1.56542
 Alpha virt. eigenvalues --    1.57702   1.58366   1.58914   1.60756   1.86459
 Alpha virt. eigenvalues --    2.01027   2.17082   2.30764   2.33894   2.34961
 Alpha virt. eigenvalues --    2.45179   2.55268   2.59667   2.71967   2.83306
 Alpha virt. eigenvalues --    2.91290   2.92995   2.98136   3.01242   3.04327
 Alpha virt. eigenvalues --    3.05780   3.07772   3.09762   3.12150   3.17327
 Alpha virt. eigenvalues --    3.30713   3.32029   3.33979   3.36721   3.37006
 Alpha virt. eigenvalues --    3.46135   3.49616   3.52764   3.53856   3.60426
 Alpha virt. eigenvalues --    3.61125   3.70998   3.87664   3.90707   3.92203
 Alpha virt. eigenvalues --    3.93527   4.00661   4.01191   4.12672   4.16491
 Alpha virt. eigenvalues --    4.18530   4.28020   4.29948   4.31644   4.35594
 Alpha virt. eigenvalues --    4.43135   4.43660   4.55188   4.56216   4.75850
 Alpha virt. eigenvalues --    4.81067   4.85503   4.89129   4.97012   5.20520
 Alpha virt. eigenvalues --    5.20556   5.35404   5.36326   5.36521   5.46017
 Alpha virt. eigenvalues --    5.46362   5.49602   5.66153   6.07128   6.11488
 Alpha virt. eigenvalues --    6.31875   6.45583   6.79040   8.54119   8.66171
 Alpha virt. eigenvalues --    9.24626   9.35730   9.37307   9.70834   9.99062
 Alpha virt. eigenvalues --   10.08423  10.11748  10.12874  10.29488  10.39582
 Alpha virt. eigenvalues --   10.43506  10.44469  10.44476  10.53257  10.58573
 Alpha virt. eigenvalues --   10.76067  10.77871  10.86987  10.93795  11.08480
 Alpha virt. eigenvalues --   11.21584  11.21981  11.28213  11.31983  11.41032
 Alpha virt. eigenvalues --   11.69774  11.72807  12.15617  12.45853  12.49884
 Alpha virt. eigenvalues --   12.95943  13.03621  13.05974  13.77541  36.05472
 Alpha virt. eigenvalues --   36.19744  36.25936  36.50305  36.56056  36.67698
 Alpha virt. eigenvalues --   36.68470  36.68585  37.13943  37.36425  41.20083
 Alpha virt. eigenvalues --   41.28881  41.91699  41.96214  42.00962  42.36039
 Alpha virt. eigenvalues --   47.16426  47.64930  62.16599  62.21204  62.37775
 Alpha virt. eigenvalues --   62.38036 167.99739 168.38856 614.60705 614.93053
 Alpha virt. eigenvalues -- 2492.111042492.36353********************
          Condensed to atoms (all electrons):
               1          2          3          4          5          6
     1  C    4.648259   0.683036   0.434506   0.434506  -0.033100  -0.033100
     2  C    0.683036   4.648259  -0.033100  -0.033100   0.434506   0.434506
     3  H    0.434506  -0.033100   0.561845  -0.028896  -0.007035   0.005625
     4  H    0.434506  -0.033100  -0.028896   0.561845   0.005625  -0.007035
     5  H   -0.033100   0.434506  -0.007035   0.005625   0.561845  -0.028896
     6  H   -0.033100   0.434506   0.005625  -0.007035  -0.028896   0.561845
 Mulliken charges:
               1
     1  C   -0.134108
     2  C   -0.134108
     3  H    0.067054
     4  H    0.067054
     5  H    0.067054
     6  H    0.067054
 Sum of Mulliken charges =  -0.00000
 Mulliken charges with hydrogens summed into heavy atoms:
               1
     1  C    0.000000
     2  C   -0.000000
 Electronic spatial extent (au):  <R**2>=             82.5080
 Charge=             -0.0000 electrons
 Dipole moment (field-independent basis, Debye):
    X=             -0.0000    Y=              0.0000    Z=             -0.0000  Tot=              0.0000
 Quadrupole moment (field-independent basis, Debye-Ang):
   XX=            -12.3622   YY=            -12.1061   ZZ=            -15.8287
   XY=              0.0000   XZ=              0.0000   YZ=             -0.0000
 Traceless Quadrupole moment (field-independent basis, Debye-Ang):
   XX=              1.0701   YY=              1.3263   ZZ=             -2.3964
   XY=              0.0000   XZ=              0.0000   YZ=             -0.0000
 Octapole moment (field-independent basis, Debye-Ang**2):
  XXX=             -0.0000  YYY=              0.0000  ZZZ=              0.0000  XYY=              0.0000
  XXY=             -0.0000  XXZ=             -0.0000  XZZ=             -0.0000  YZZ=             -0.0000
  YYZ=             -0.0000  XYZ=              0.0000
 Hexadecapole moment (field-independent basis, Debye-Ang**3):
 XXXX=            -26.5960 YYYY=            -67.3304 ZZZZ=            -19.0896 XXXY=             -0.0000
 XXXZ=              0.0000 YYYX=              0.0000 YYYZ=              0.0000 ZZZX=              0.0000
 ZZZY=              0.0000 XXYY=            -12.9609 XXZZ=             -8.3838 YYZZ=            -15.3171
 XXYZ=              0.0000 YYXZ=              0.0000 ZZXY=             -0.0000
 N-N= 3.350212296201D+01 E-N=-2.485955005824D+02  KE= 7.821084284988D+01
 Symmetry A'   KE= 7.628587523526D+01
 Symmetry A"   KE= 1.924967614619D+00
 Leave Link  601 at Wed Feb 23 17:08:39 2022, MaxMem= 17179869184 cpu:               0.9 elap:               0.1
 (Enter /home/saurabh/gaussian/g16/l9999.exe)
 Unable to Open any file for archive entry.
 1\1\GINC-MEDIAWIKI\SP\RCCSD(T)-Full\MTSmall\C2H4\SAURABH\23-Feb-2022\0
 \\#P Geom=AllCheck Guess=TCheck SCRF=Check CCSD(T,Full)/MTSmall int=dk
 h\\CH2CH2_w1u\\0,1\C,0,-1.4919423499,2.0169258397,-0.0000000762\C,0,-0
 .1700644123,2.0906375579,-0.0000001092\H,0,-2.0094443045,1.0671342668,
 -0.0441858324\H,0,-2.1118339193,2.9032930506,0.0441857073\H,0,0.449827
 0288,1.2042702818,-0.0441858955\H,0,0.3474379557,3.0404290302,0.044185
 6411\\Version=ES64L-G16RevC.01\State=1-A'\HF=-78.0943084\MP2=-78.53483
 97\MP3=-78.5591207\MP4D=-78.5677993\MP4DQ=-78.5579367\MP4SDQ=-78.56157
 16\CCSD=-78.5613822\CCSD(T)=-78.5778999\RMSD=6.413e-09\PG=CS [SG(C2H4)
 ]\\@
 The archive entry for this job was punched.


 You never know when you're making a memory.
                        -- Rickie Lee Jones
 Diagonal vibrational polarizability:
        0.0000000       0.0000000       0.0000000

 W1 and W2 theory:
 J.M.L. Martin and G. de Oliveira, JCP 111, 1843 (1999)
 S. Parthiban and J.M.L. Martin, JCP 114, 6014 (2001)

 W1U   Energy Components

                         SCF                 CCSD               CCSD(T)
 AVDZ+2d             -78.042726          -78.354187          -78.364990
 AVTZ+2df            -78.064768          -78.427031          -78.442332
 AVQZ+2df            -78.069623          -78.446730

                        NR/FC              DKH/Full
 MTsmall             -78.447996          -78.577900

 Extrapolated Energy Components

                         SCF                 CCSD               CCSD(T)
                     -78.071133           -0.386841           -0.016973

 Core + Scalar Relativistic Component
                      -0.129904

 W1U   Electronic Energy           -78.604850

 Temperature=                298.150000 Pressure=                        1.000000
 E(ZPE)=                       0.050156 E(Thermal)=                      0.053207
 W1U  (0 K)=                 -78.554694 W1U   Energy=                  -78.551643
 W1U   Enthalpy=             -78.550699 W1U   Free Energy=             -78.576867
 Unable to Open any file for archive entry.
 1\1\GINC-MEDIAWIKI\Mixed\W1U\W1U\C2H4\SAURABH\23-Feb-2022\0\\#p w1u sc
 f(verytight, maxcycles=1000) opt(calcfc, maxcyc=1000) int(grid=ultrafi
 ne)\\CH2CH2_w1u\\0,1\C,0,-1.4919423499,2.0169258397,-0.0000000762\C,0,
 -0.1700644123,2.0906375579,-0.0000001092\H,0,-2.0094443045,1.067134266
 8,-0.0441858324\H,0,-2.1118339193,2.9032930506,0.0441857073\H,0,0.4498
 270288,1.2042702818,-0.0441858955\H,0,0.3474379557,3.0404290302,0.0441
 856411\\Version=ES64L-G16RevC.01\State=1-A'\HF/AVTZ+2d1f=-78.0647682\H
 F/AVQZ+2d1f=-78.0696228\HFExt=-78.0711332\CCSD/AVTZ+2d1f=-78.427031\CC
 SD/AVQZ+2d1f=-78.4467305\CCSDExt=-0.3868405\CCSD(T)/AVDZ+2d=-78.364989
 8\CCSD(T)/AVTZ+2d1f=0.\TExt=-0.0169725\CCSD(T)/MTsmall=-78.4479959\DK-
 CCSD(T,FU)/MTsmall=-78.5778999\Core+Rel=-0.129904\W1=-78.5546939\W1sc=
 -78.5546939\FreqCoord=-2.819362435,3.8114374506,-0.000000144,-0.321375
 1627,3.9507324102,-0.0000002064,-3.797299398,2.0165915025,-0.083499121
 9,-3.9907877281,5.486428725,0.0834988853,0.8500498879,2.2757410126,-0.
 083499241,0.6565625815,5.7455781683,0.0834987603\PG=CS [SG(C2H4)]\NIma
 g=0\\0.85721314,0.01265341,0.63100459,-0.00138672,0.02486791,0.1131908
 4,-0.57052528,-0.02549318,0.00017111,0.85721318,-0.02549316,-0.1147758
 1,-0.00306829,0.01265336,0.63100439,0.00017111,-0.00306829,-0.04955164
 ,-0.00138673,0.02486790,0.11319087,-0.11573817,-0.11014426,-0.00507494
 ,-0.01260188,-0.03130498,-0.00145206,0.12208736,-0.11479564,-0.2749988
 6,-0.01109475,0.00085540,0.00188054,-0.00020292,0.12586012,0.28630046,
 -0.00529811,-0.01110719,-0.03787586,0.00009098,-0.00011687,0.00605627,
 0.00577761,0.01222390,0.02507864,-0.14256058,0.12496058,0.00627699,-0.
 01578725,0.02932842,0.00146561,0.00964379,-0.01206214,-0.00059703,0.15
 192996,0.12961195,-0.24817638,-0.01046173,-0.00283196,0.00506592,-0.00
 004022,0.01496901,-0.01633965,-0.00095860,-0.14089261,0.25645777,0.006
 50016,-0.01044929,-0.03787588,-0.00007742,-0.00012627,0.00605627,0.000
 69991,-0.00088628,0.00276065,-0.00710084,0.01150576,0.02507866,-0.0157
 8726,0.02932842,0.00146561,-0.14256055,0.12496058,0.00627699,0.0015232
 5,-0.00023049,-0.00003887,-0.00474917,-0.00110376,-0.00000586,0.151929
 94,-0.00283196,0.00506591,-0.00004022,0.12961196,-0.24817643,-0.010461
 74,0.00024737,0.00137240,0.00049087,-0.00110376,0.00161994,-0.00053608
 ,-0.14089261,0.25645784,-0.00007742,-0.00012627,0.00605628,0.00650016,
 -0.01044929,-0.03787588,-0.00001594,0.00049215,-0.00884856,-0.00000586
 ,-0.00053608,0.01282885,-0.00710084,0.01150576,0.02507865,-0.01260186,
 -0.03130497,-0.00145205,-0.11573822,-0.11014422,-0.00507493,-0.0049143
 5,0.00037274,0.00006542,0.00152325,0.00024737,-0.00001594,0.00964379,0
 .01496900,0.00069990,0.12208740,0.00085541,0.00188054,-0.00020292,-0.1
 1479558,-0.27499861,-0.01109473,0.00037274,0.00178512,-0.00053210,-0.0
 0023049,0.00137240,0.00049215,-0.01206215,-0.01633967,-0.00088628,0.12
 586007,0.28630021,0.00009098,-0.00011687,0.00605627,-0.00529810,-0.011
 10718,-0.03787590,0.00006542,-0.00053210,0.01282885,-0.00003887,0.0004
 9087,-0.00884855,-0.00059703,-0.00095860,0.00276065,0.00577760,0.01222
 388,0.02507868\\0.00018845,0.00001047,0.,-0.00018851,-0.00001054,0.,0.
 00001166,0.00004437,0.00000210,0.00001650,-0.00004278,-0.00000210,-0.0
 0001650,0.00004279,0.00000210,-0.00001159,-0.00004432,-0.00000210\\\@
 The archive entry for this job was punched.
 Job cpu time:       0 days  0 hours 26 minutes 28.5 seconds.
 Elapsed time:       0 days  0 hours  1 minutes 13.2 seconds.
 File lengths (MBytes):  RWF=   3122 Int=      0 D2E=      0 Chk=      7 Scr=      1
 Normal termination of Gaussian 16 at Wed Feb 23 17:08:39 2022.
