 Entering Gaussian System, Link 0=g16
 Input=CH2CH2OOH.com
 Output=CH2CH2OOH.log
 Initial command:
 /home/saurabh/gaussian/g16/l1.exe "/home/saurabh/gaussian/gauss_scr/Gau-17400.inp" -scrdir="/home/saurabh/gaussian/gauss_scr/"
 Entering Link 1 = /home/saurabh/gaussian/g16/l1.exe PID=     17401.
  
 Copyright (c) 1988-2019, Gaussian, Inc.  All Rights Reserved.
  
 This is part of the Gaussian(R) 16 program.  It is based on
 the Gaussian(R) 09 system (copyright 2009, Gaussian, Inc.),
 the Gaussian(R) 03 system (copyright 2003, Gaussian, Inc.),
 the Gaussian(R) 98 system (copyright 1998, Gaussian, Inc.),
 the Gaussian(R) 94 system (copyright 1995, Gaussian, Inc.),
 the Gaussian 92(TM) system (copyright 1992, Gaussian, Inc.),
 the Gaussian 90(TM) system (copyright 1990, Gaussian, Inc.),
 the Gaussian 88(TM) system (copyright 1988, Gaussian, Inc.),
 the Gaussian 86(TM) system (copyright 1986, Carnegie Mellon
 University), and the Gaussian 82(TM) system (copyright 1983,
 Carnegie Mellon University). Gaussian is a federally registered
 trademark of Gaussian, Inc.
  
 This software contains proprietary and confidential information,
 including trade secrets, belonging to Gaussian, Inc.
  
 This software is provided under written license and may be
 used, copied, transmitted, or stored only in accord with that
 written license.
  
 The following legend is applicable only to US Government
 contracts under FAR:
  
                    RESTRICTED RIGHTS LEGEND
  
 Use, reproduction and disclosure by the US Government is
 subject to restrictions as set forth in subparagraphs (a)
 and (c) of the Commercial Computer Software - Restricted
 Rights clause in FAR 52.227-19.
  
 Gaussian, Inc.
 340 Quinnipiac St., Bldg. 40, Wallingford CT 06492
  
  
 ---------------------------------------------------------------
 Warning -- This program may not be used in any manner that
 competes with the business of Gaussian, Inc. or will provide
 assistance to any competitor of Gaussian, Inc.  The licensee
 of this program is prohibited from giving any competitor of
 Gaussian, Inc. access to this program.  By using this program,
 the user acknowledges that Gaussian, Inc. is engaged in the
 business of creating and licensing software in the field of
 computational chemistry and represents and warrants to the
 licensee that it is not a competitor of Gaussian, Inc. and that
 it will not use this program in any manner prohibited above.
 ---------------------------------------------------------------
  

 Cite this work as:
 Gaussian 16, Revision C.01,
 M. J. Frisch, G. W. Trucks, H. B. Schlegel, G. E. Scuseria, 
 M. A. Robb, J. R. Cheeseman, G. Scalmani, V. Barone, 
 G. A. Petersson, H. Nakatsuji, X. Li, M. Caricato, A. V. Marenich, 
 J. Bloino, B. G. Janesko, R. Gomperts, B. Mennucci, H. P. Hratchian, 
 J. V. Ortiz, A. F. Izmaylov, J. L. Sonnenberg, D. Williams-Young, 
 F. Ding, F. Lipparini, F. Egidi, J. Goings, B. Peng, A. Petrone, 
 T. Henderson, D. Ranasinghe, V. G. Zakrzewski, J. Gao, N. Rega, 
 G. Zheng, W. Liang, M. Hada, M. Ehara, K. Toyota, R. Fukuda, 
 J. Hasegawa, M. Ishida, T. Nakajima, Y. Honda, O. Kitao, H. Nakai, 
 T. Vreven, K. Throssell, J. A. Montgomery, Jr., J. E. Peralta, 
 F. Ogliaro, M. J. Bearpark, J. J. Heyd, E. N. Brothers, K. N. Kudin, 
 V. N. Staroverov, T. A. Keith, R. Kobayashi, J. Normand, 
 K. Raghavachari, A. P. Rendell, J. C. Burant, S. S. Iyengar, 
 J. Tomasi, M. Cossi, J. M. Millam, M. Klene, C. Adamo, R. Cammi, 
 J. W. Ochterski, R. L. Martin, K. Morokuma, O. Farkas, 
 J. B. Foresman, and D. J. Fox, Gaussian, Inc., Wallingford CT, 2019.
 
 ******************************************
 Gaussian 16:  ES64L-G16RevC.01  3-Jul-2019
                23-Feb-2022 
 ******************************************
 %nproc=22
 Will use up to   22 processors via shared memory.
 %mem=128GB
 %chk=CH2CH2OOH_w1u.chk
 ----------------------------------------------------------------------
 #p w1u scf(verytight, maxcycles=1000) opt(calcfc, maxcyc=1000) int(gri
 d=ultrafine)
 ----------------------------------------------------------------------
 1/6=1000,10=4,18=20,19=15,26=4,38=1/1,3;
 2/9=110,12=2,17=6,18=5,40=1/2;
 3/5=16,6=1,7=9,11=2,25=1,30=1,71=2,74=-5,75=-5,140=1/1,2,3;
 4//1;
 5/5=2,7=1000,17=3,38=5/2;
 8/6=4,10=90,11=11/1;
 11/6=1,8=1,9=11,15=111,16=1/1,2,10;
 10/6=1,13=1/2;
 6/7=2,8=2,9=2,10=2,28=1/1;
 7/10=1,25=1/1,2,3,16;
 1/6=1000,10=4,18=20,19=15,26=4/3(2);
 2/9=110/2;
 99//99;
 2/9=110/2;
 3/5=16,6=1,7=9,11=2,25=1,30=1,71=1,74=-5,75=-5/1,2,3;
 4/5=5,16=3,69=1/1;
 5/5=2,7=1000,17=3,38=5/2;
 7//1,2,3,16;
 1/6=1000,18=20,19=15,26=4/3(-5);
 2/9=110/2;
 6/7=2,8=2,9=2,10=2,19=2,28=1/1;
 99/9=1/99;
 Leave Link    1 at Wed Feb 23 13:52:36 2022, MaxMem= 17179869184 cpu:               1.1 elap:               0.1
 (Enter /home/saurabh/gaussian/g16/l101.exe)
 -------------
 CH2CH2OOH_w1u
 -------------
 Symbolic Z-matrix:
 Charge =  0 Multiplicity = 2
 C                     1.6573   -0.16706  -0.0121 
 C                     0.27183   0.45405   0.01558 
 H                     2.42961   0.62809  -0.07928 
 H                     1.75654  -0.84702  -0.88482 
 O                    -0.68533  -0.56702   0.11664 
 H                     0.21266   1.12642   0.90043 
 H                     0.12572   1.03289  -0.92433 
 O                    -1.85942   0.03582   0.1451 
 H                    -2.2678   -0.16094  -0.73695 
 
 ITRead=  0  0  0  0  0  0  0  0  0
 MicOpt= -1 -1 -1 -1 -1 -1 -1 -1 -1
 NAtoms=      9 NQM=        9 NQMF=       0 NMMI=      0 NMMIF=      0
                NMic=       0 NMicF=      0.
                    Isotopes and Nuclear Properties:
 (Nuclear quadrupole moments (NQMom) in fm**2, nuclear magnetic moments (NMagM)
  in nuclear magnetons)

  Atom         1           2           3           4           5           6           7           8           9
 IAtWgt=          12          12           1           1          16           1           1          16           1
 AtmWgt=  12.0000000  12.0000000   1.0078250   1.0078250  15.9949146   1.0078250   1.0078250  15.9949146   1.0078250
 NucSpn=           0           0           1           1           0           1           1           0           1
 AtZEff=  -0.0000000  -0.0000000  -0.0000000  -0.0000000  -0.0000000  -0.0000000  -0.0000000  -0.0000000  -0.0000000
 NQMom=    0.0000000   0.0000000   0.0000000   0.0000000   0.0000000   0.0000000   0.0000000   0.0000000   0.0000000
 NMagM=    0.0000000   0.0000000   2.7928460   2.7928460   0.0000000   2.7928460   2.7928460   0.0000000   2.7928460
 AtZNuc=   6.0000000   6.0000000   1.0000000   1.0000000   8.0000000   1.0000000   1.0000000   8.0000000   1.0000000
 Leave Link  101 at Wed Feb 23 13:52:37 2022, MaxMem= 17179869184 cpu:               8.7 elap:               0.4
 (Enter /home/saurabh/gaussian/g16/l103.exe)

 GradGradGradGradGradGradGradGradGradGradGradGradGradGradGradGradGradGrad
 Berny optimization.
 Initialization pass.
                           ----------------------------
                           !    Initial Parameters    !
                           ! (Angstroms and Degrees)  !
 --------------------------                            --------------------------
 ! Name  Definition              Value          Derivative Info.                !
 --------------------------------------------------------------------------------
 ! R1    R(1,2)                  1.5186         calculate D2E/DX2 analytically  !
 ! R2    R(1,3)                  1.1105         calculate D2E/DX2 analytically  !
 ! R3    R(1,4)                  1.1108         calculate D2E/DX2 analytically  !
 ! R4    R(2,5)                  1.4032         calculate D2E/DX2 analytically  !
 ! R5    R(2,6)                  1.1129         calculate D2E/DX2 analytically  !
 ! R6    R(2,7)                  1.1135         calculate D2E/DX2 analytically  !
 ! R7    R(5,8)                  1.3201         calculate D2E/DX2 analytically  !
 ! R8    R(8,9)                  0.9917         calculate D2E/DX2 analytically  !
 ! A1    A(2,1,3)              110.0439         calculate D2E/DX2 analytically  !
 ! A2    A(2,1,4)              110.2554         calculate D2E/DX2 analytically  !
 ! A3    A(3,1,4)              109.1866         calculate D2E/DX2 analytically  !
 ! A4    A(1,2,5)              109.0278         calculate D2E/DX2 analytically  !
 ! A5    A(1,2,6)              108.0657         calculate D2E/DX2 analytically  !
 ! A6    A(1,2,7)              108.4788         calculate D2E/DX2 analytically  !
 ! A7    A(5,2,6)              110.2492         calculate D2E/DX2 analytically  !
 ! A8    A(5,2,7)              110.4608         calculate D2E/DX2 analytically  !
 ! A9    A(6,2,7)              110.4934         calculate D2E/DX2 analytically  !
 ! A10   A(2,5,8)              106.0174         calculate D2E/DX2 analytically  !
 ! A11   A(5,8,9)              104.8603         calculate D2E/DX2 analytically  !
 ! D1    D(3,1,2,5)           -179.3021         calculate D2E/DX2 analytically  !
 ! D2    D(3,1,2,6)            -59.4618         calculate D2E/DX2 analytically  !
 ! D3    D(3,1,2,7)             60.3583         calculate D2E/DX2 analytically  !
 ! D4    D(4,1,2,5)             60.1984         calculate D2E/DX2 analytically  !
 ! D5    D(4,1,2,6)           -179.9613         calculate D2E/DX2 analytically  !
 ! D6    D(4,1,2,7)            -60.1412         calculate D2E/DX2 analytically  !
 ! D7    D(1,2,5,8)            179.58           calculate D2E/DX2 analytically  !
 ! D8    D(6,2,5,8)             61.0993         calculate D2E/DX2 analytically  !
 ! D9    D(7,2,5,8)            -61.3077         calculate D2E/DX2 analytically  !
 ! D10   D(2,5,8,9)            108.218          calculate D2E/DX2 analytically  !
 --------------------------------------------------------------------------------
 Trust Radius=3.00D-01 FncErr=1.00D-07 GrdErr=1.00D-06 EigMax=2.50D+02 EigMin=1.00D-04
 Number of steps in this run=    100 maximum allowed number of steps=    100.
 GradGradGradGradGradGradGradGradGradGradGradGradGradGradGradGradGradGrad

 Leave Link  103 at Wed Feb 23 13:52:37 2022, MaxMem= 17179869184 cpu:               0.2 elap:               0.0
 (Enter /home/saurabh/gaussian/g16/l202.exe)
                          Input orientation:                          
 ---------------------------------------------------------------------
 Center     Atomic      Atomic             Coordinates (Angstroms)
 Number     Number       Type             X           Y           Z
 ---------------------------------------------------------------------
      1          6           0        1.657300   -0.167060   -0.012100
      2          6           0        0.271830    0.454050    0.015580
      3          1           0        2.429610    0.628090   -0.079280
      4          1           0        1.756540   -0.847020   -0.884820
      5          8           0       -0.685330   -0.567020    0.116640
      6          1           0        0.212660    1.126420    0.900430
      7          1           0        0.125720    1.032890   -0.924330
      8          8           0       -1.859420    0.035820    0.145100
      9          1           0       -2.267800   -0.160940   -0.736950
 ---------------------------------------------------------------------
                    Distance matrix (angstroms):
                    1          2          3          4          5
     1  C    0.000000
     2  C    1.518575   0.000000
     3  H    1.110513   2.166865   0.000000
     4  H    1.110781   2.169762   1.810488   0.000000
     5  O    2.380012   1.403194   3.342084   2.654063   0.000000
     6  H    2.143079   1.112898   2.474476   3.076548   2.070858
     7  H    2.148902   1.113479   2.487143   2.489015   2.073917
     8  O    3.526073   2.175757   4.335540   3.862034   1.320119
     9  H    3.991473   2.719234   4.808405   4.085081   1.843293
                    6          7          8          9
     6  H    0.000000
     7  H    1.829223   0.000000
     8  O    2.460375   2.465484   0.000000
     9  H    3.238980   2.681283   0.991716   0.000000
 Stoichiometry    C2H5O2(2)
 Framework group  C1[X(C2H5O2)]
 Deg. of freedom    21
 Full point group                 C1      NOp   1
 Largest Abelian subgroup         C1      NOp   1
 Largest concise Abelian subgroup C1      NOp   1
                         Standard orientation:                         
 ---------------------------------------------------------------------
 Center     Atomic      Atomic             Coordinates (Angstroms)
 Number     Number       Type             X           Y           Z
 ---------------------------------------------------------------------
      1          6           0       -1.846446   -0.211219   -0.093468
      2          6           0       -0.488356    0.456288    0.033401
      3          1           0       -2.653581    0.540528    0.035558
      4          1           0       -1.958983   -1.003535    0.676860
      5          8           0        0.514303   -0.508307   -0.148763
      6          1           0       -0.414910    1.241282   -0.752049
      7          1           0       -0.411764    0.910694    1.047050
      8          8           0        1.662241    0.133795   -0.036252
      9          1           0        2.035696   -0.163290    0.833100
 ---------------------------------------------------------------------
 Rotational constants (GHZ):          35.0710251           4.5646833           4.2574087
 Leave Link  202 at Wed Feb 23 13:52:37 2022, MaxMem= 17179869184 cpu:               0.2 elap:               0.0
 (Enter /home/saurabh/gaussian/g16/l301.exe)
 Standard basis: CC-pVTZ+d (5D, 7F)
 Ernie: Thresh=  0.10000D-02 Tol=  0.10000D-05 Strict=F.
 Ernie:  12 primitive shells out of 144 were deleted.
 There are   215 symmetry adapted cartesian basis functions of A   symmetry.
 There are   190 symmetry adapted basis functions of A   symmetry.
   190 basis functions,   293 primitive gaussians,   215 cartesian basis functions
    17 alpha electrons       16 beta electrons
       nuclear repulsion energy       126.1409115670 Hartrees.
 IExCor=  402 DFT=T Ex+Corr=B3LYP ExCW=0 ScaHFX=  0.200000
 ScaDFX=  0.800000  0.720000  1.000000  0.810000 ScalE2=  1.000000  1.000000
 IRadAn=      5 IRanWt=     -1 IRanGd=            0 ICorTp=0 IEmpDi=  4
 NAtoms=    9 NActive=    9 NUniq=    9 SFac= 1.00D+00 NAtFMM=   60 NAOKFM=F Big=F
 Integral buffers will be    131072 words long.
 Raffenetti 2 integral format.
 Two-electron integral symmetry is turned on.
 Leave Link  301 at Wed Feb 23 13:52:37 2022, MaxMem= 17179869184 cpu:               1.3 elap:               0.1
 (Enter /home/saurabh/gaussian/g16/l302.exe)
 NPDir=0 NMtPBC=     1 NCelOv=     1 NCel=       1 NClECP=     1 NCelD=      1
         NCelK=      1 NCelE2=     1 NClLst=     1 CellRange=     0.0.
 One-electron integrals computed using PRISM.
 One-electron integral symmetry used in STVInt
 NBasis=   190 RedAO= T EigKep=  1.20D-03  NBF=   190
 NBsUse=   190 1.00D-06 EigRej= -1.00D+00 NBFU=   190
 Precomputing XC quadrature grid using
 IXCGrd= 4 IRadAn=           5 IRanWt=          -1 IRanGd=           0 AccXCQ= 0.00D+00.
 Generated NRdTot=       0 NPtTot=           0 NUsed=           0 NTot=          32
 NSgBfM=   215   215   215   215   215 MxSgAt=     9 MxSgA2=     9.
 Leave Link  302 at Wed Feb 23 13:52:37 2022, MaxMem= 17179869184 cpu:               4.0 elap:               0.2
 (Enter /home/saurabh/gaussian/g16/l303.exe)
 DipDrv:  MaxL=1.
 Leave Link  303 at Wed Feb 23 13:52:37 2022, MaxMem= 17179869184 cpu:               0.7 elap:               0.1
 (Enter /home/saurabh/gaussian/g16/l401.exe)
 ExpMin= 1.03D-01 ExpMax= 1.53D+04 ExpMxC= 5.22D+02 IAcc=3 IRadAn=         5 AccDes= 0.00D+00
 Harris functional with IExCor=  402 and IRadAn=       5 diagonalized for initial guess.
 HarFok:  IExCor=  402 AccDes= 0.00D+00 IRadAn=         5 IDoV= 1 UseB2=F ITyADJ=14
 ICtDFT=  3500011 ScaDFX=  1.000000  1.000000  1.000000  1.000000
 FoFCou: FMM=F IPFlag=           0 FMFlag=      100000 FMFlg1=           0
         NFxFlg=           0 DoJE=T BraDBF=F KetDBF=T FulRan=T
         wScrn=  0.000000 ICntrl=       500 IOpCl=  0 I1Cent=   200000004 NGrid=           0
         NMat0=    1 NMatS0=      1 NMatT0=    0 NMatD0=    1 NMtDS0=    0 NMtDT0=    0
 Petite list used in FoFCou.
 Harris En= -229.559400702345    
 JPrj=0 DoOrth=F DoCkMO=F.
 Initial guess <Sx>= 0.0000 <Sy>= 0.0000 <Sz>= 0.5000 <S**2>= 0.7500 S= 0.5000
 Leave Link  401 at Wed Feb 23 13:52:37 2022, MaxMem= 17179869184 cpu:               7.9 elap:               0.4
 (Enter /home/saurabh/gaussian/g16/l502.exe)
 Keep R1 and R2 ints in memory in canonical form, NReq=352202282.
 FoFCou: FMM=F IPFlag=           0 FMFlag=           0 FMFlg1=           0
         NFxFlg=           0 DoJE=F BraDBF=F KetDBF=F FulRan=T
         wScrn=  0.000000 ICntrl=       600 IOpCl=  0 I1Cent=           0 NGrid=           0
         NMat0=    1 NMatS0=  18145 NMatT0=    0 NMatD0=    1 NMtDS0=    0 NMtDT0=    0
 Symmetry not used in FoFCou.
 Two-electron integral symmetry not used.
 UHF open shell SCF:
 Using DIIS extrapolation, IDIIS=  1040.
 NGot= 17179869184 LenX= 16850510632 LenY= 16850463966
 Requested convergence on RMS density matrix=1.00D-08 within1000 cycles.
 Requested convergence on MAX density matrix=1.00D-06.
 Requested convergence on             energy=1.00D-06.
 No special actions if energy rises.
 Integral accuracy reduced to 1.0D-05 until final iterations.

 Cycle   1  Pass 0  IDiag  1:
 E= -229.480470522585    
 DIIS: error= 1.74D-02 at cycle   1 NSaved=   1.
 NSaved= 1 IEnMin= 1 EnMin= -229.480470522585     IErMin= 1 ErrMin= 1.74D-02
 ErrMax= 1.74D-02  0.00D+00 EMaxC= 1.00D-01 BMatC= 4.23D-01 BMatP= 4.23D-01
 IDIUse=3 WtCom= 8.26D-01 WtEn= 1.74D-01
 Coeff-Com:  0.100D+01
 Coeff-En:   0.100D+01
 Coeff:      0.100D+01
 Gap=     0.228 Goal=   None    Shift=    0.000
 Gap=     0.199 Goal=   None    Shift=    0.000
 GapD=    0.199 DampG=1.000 DampE=0.500 DampFc=0.5000 IDamp=-1.
 Damping current iteration by 5.00D-01
 RMSDP=2.56D-03 MaxDP=8.78D-02              OVMax= 1.49D-01

 Cycle   2  Pass 0  IDiag  1:
 E= -229.520656755533     Delta-E=       -0.040186232947 Rises=F Damp=T
 DIIS: error= 3.27D-03 at cycle   2 NSaved=   2.
 NSaved= 2 IEnMin= 2 EnMin= -229.520656755533     IErMin= 2 ErrMin= 3.27D-03
 ErrMax= 3.27D-03  0.00D+00 EMaxC= 1.00D-01 BMatC= 3.01D-02 BMatP= 4.23D-01
 IDIUse=3 WtCom= 9.67D-01 WtEn= 3.27D-02
 Coeff-Com:  0.149D-02 0.999D+00
 Coeff-En:   0.333D-01 0.967D+00
 Coeff:      0.253D-02 0.997D+00
 Gap=     0.273 Goal=   None    Shift=    0.000
 Gap=     0.179 Goal=   None    Shift=    0.000
 RMSDP=4.69D-04 MaxDP=1.60D-02 DE=-4.02D-02 OVMax= 8.26D-02

 Cycle   3  Pass 0  IDiag  1:
 E= -229.566174629662     Delta-E=       -0.045517874129 Rises=F Damp=F
 DIIS: error= 2.61D-03 at cycle   3 NSaved=   3.
 NSaved= 3 IEnMin= 3 EnMin= -229.566174629662     IErMin= 3 ErrMin= 2.61D-03
 ErrMax= 2.61D-03  0.00D+00 EMaxC= 1.00D-01 BMatC= 1.12D-02 BMatP= 3.01D-02
 IDIUse=3 WtCom= 9.74D-01 WtEn= 2.61D-02
 Coeff-Com: -0.638D-01 0.371D+00 0.693D+00
 Coeff-En:   0.000D+00 0.000D+00 0.100D+01
 Coeff:     -0.622D-01 0.361D+00 0.701D+00
 Gap=     0.277 Goal=   None    Shift=    0.000
 Gap=     0.168 Goal=   None    Shift=    0.000
 RMSDP=2.25D-04 MaxDP=6.08D-03 DE=-4.55D-02 OVMax= 1.53D-02

 Cycle   4  Pass 0  IDiag  1:
 E= -229.567711512582     Delta-E=       -0.001536882920 Rises=F Damp=F
 DIIS: error= 1.47D-03 at cycle   4 NSaved=   4.
 NSaved= 4 IEnMin= 4 EnMin= -229.567711512582     IErMin= 4 ErrMin= 1.47D-03
 ErrMax= 1.47D-03  0.00D+00 EMaxC= 1.00D-01 BMatC= 2.94D-03 BMatP= 1.12D-02
 IDIUse=3 WtCom= 9.85D-01 WtEn= 1.47D-02
 Coeff-Com: -0.324D-01 0.120D+00 0.393D+00 0.519D+00
 Coeff-En:   0.000D+00 0.000D+00 0.123D+00 0.877D+00
 Coeff:     -0.319D-01 0.118D+00 0.389D+00 0.525D+00
 Gap=     0.272 Goal=   None    Shift=    0.000
 Gap=     0.173 Goal=   None    Shift=    0.000
 RMSDP=9.85D-05 MaxDP=2.16D-03 DE=-1.54D-03 OVMax= 6.07D-03

 Cycle   5  Pass 0  IDiag  1:
 E= -229.568173328201     Delta-E=       -0.000461815619 Rises=F Damp=F
 DIIS: error= 4.37D-04 at cycle   5 NSaved=   5.
 NSaved= 5 IEnMin= 5 EnMin= -229.568173328201     IErMin= 5 ErrMin= 4.37D-04
 ErrMax= 4.37D-04  0.00D+00 EMaxC= 1.00D-01 BMatC= 2.72D-04 BMatP= 2.94D-03
 IDIUse=3 WtCom= 9.96D-01 WtEn= 4.37D-03
 Coeff-Com: -0.553D-02-0.133D-03 0.832D-01 0.272D+00 0.650D+00
 Coeff-En:   0.000D+00 0.000D+00 0.000D+00 0.312D-01 0.969D+00
 Coeff:     -0.551D-02-0.133D-03 0.828D-01 0.271D+00 0.652D+00
 Gap=     0.274 Goal=   None    Shift=    0.000
 Gap=     0.174 Goal=   None    Shift=    0.000
 RMSDP=3.24D-05 MaxDP=1.24D-03 DE=-4.62D-04 OVMax= 3.14D-03

 Cycle   6  Pass 0  IDiag  1:
 E= -229.568227382948     Delta-E=       -0.000054054746 Rises=F Damp=F
 DIIS: error= 1.04D-04 at cycle   6 NSaved=   6.
 NSaved= 6 IEnMin= 6 EnMin= -229.568227382948     IErMin= 6 ErrMin= 1.04D-04
 ErrMax= 1.04D-04  0.00D+00 EMaxC= 1.00D-01 BMatC= 1.55D-05 BMatP= 2.72D-04
 IDIUse=3 WtCom= 9.99D-01 WtEn= 1.04D-03
 Coeff-Com: -0.572D-03-0.734D-02 0.140D-01 0.858D-01 0.273D+00 0.635D+00
 Coeff-En:   0.000D+00 0.000D+00 0.000D+00 0.000D+00 0.000D+00 0.100D+01
 Coeff:     -0.572D-03-0.733D-02 0.140D-01 0.857D-01 0.273D+00 0.636D+00
 Gap=     0.274 Goal=   None    Shift=    0.000
 Gap=     0.173 Goal=   None    Shift=    0.000
 RMSDP=1.06D-05 MaxDP=3.80D-04 DE=-5.41D-05 OVMax= 9.10D-04

 Cycle   7  Pass 0  IDiag  1:
 E= -229.568230733168     Delta-E=       -0.000003350221 Rises=F Damp=F
 DIIS: error= 5.68D-05 at cycle   7 NSaved=   7.
 NSaved= 7 IEnMin= 7 EnMin= -229.568230733168     IErMin= 7 ErrMin= 5.68D-05
 ErrMax= 5.68D-05  0.00D+00 EMaxC= 1.00D-01 BMatC= 3.90D-06 BMatP= 1.55D-05
 IDIUse=1 WtCom= 1.00D+00 WtEn= 0.00D+00
 Coeff-Com:  0.154D-02-0.354D-02-0.189D-01-0.424D-01-0.665D-01 0.328D+00
 Coeff-Com:  0.802D+00
 Coeff:      0.154D-02-0.354D-02-0.189D-01-0.424D-01-0.665D-01 0.328D+00
 Coeff:      0.802D+00
 Gap=     0.274 Goal=   None    Shift=    0.000
 Gap=     0.173 Goal=   None    Shift=    0.000
 RMSDP=5.15D-06 MaxDP=2.12D-04 DE=-3.35D-06 OVMax= 8.21D-04

 Initial convergence to 1.0D-05 achieved.  Increase integral accuracy.
 Cycle   8  Pass 1  IDiag  1:
 E= -229.568230133495     Delta-E=        0.000000599674 Rises=F Damp=F
 DIIS: error= 1.38D-05 at cycle   1 NSaved=   1.
 NSaved= 1 IEnMin= 1 EnMin= -229.568230133495     IErMin= 1 ErrMin= 1.38D-05
 ErrMax= 1.38D-05  0.00D+00 EMaxC= 1.00D-01 BMatC= 1.37D-07 BMatP= 1.37D-07
 IDIUse=1 WtCom= 1.00D+00 WtEn= 0.00D+00
 Coeff-Com:  0.100D+01
 Coeff:      0.100D+01
 Gap=     0.274 Goal=   None    Shift=    0.000
 Gap=     0.173 Goal=   None    Shift=    0.000
 RMSDP=5.15D-06 MaxDP=2.12D-04 DE= 6.00D-07 OVMax= 9.49D-05

 Cycle   9  Pass 1  IDiag  1:
 E= -229.568230168172     Delta-E=       -0.000000034677 Rises=F Damp=F
 DIIS: error= 7.77D-06 at cycle   2 NSaved=   2.
 NSaved= 2 IEnMin= 2 EnMin= -229.568230168172     IErMin= 2 ErrMin= 7.77D-06
 ErrMax= 7.77D-06  0.00D+00 EMaxC= 1.00D-01 BMatC= 9.74D-08 BMatP= 1.37D-07
 IDIUse=1 WtCom= 1.00D+00 WtEn= 0.00D+00
 Coeff-Com:  0.445D+00 0.555D+00
 Coeff:      0.445D+00 0.555D+00
 Gap=     0.274 Goal=   None    Shift=    0.000
 Gap=     0.173 Goal=   None    Shift=    0.000
 RMSDP=5.64D-07 MaxDP=1.97D-05 DE=-3.47D-08 OVMax= 3.58D-05

 Cycle  10  Pass 1  IDiag  1:
 E= -229.568230188050     Delta-E=       -0.000000019879 Rises=F Damp=F
 DIIS: error= 3.15D-06 at cycle   3 NSaved=   3.
 NSaved= 3 IEnMin= 3 EnMin= -229.568230188050     IErMin= 3 ErrMin= 3.15D-06
 ErrMax= 3.15D-06  0.00D+00 EMaxC= 1.00D-01 BMatC= 1.15D-08 BMatP= 9.74D-08
 IDIUse=1 WtCom= 1.00D+00 WtEn= 0.00D+00
 Coeff-Com: -0.341D-01 0.187D+00 0.847D+00
 Coeff:     -0.341D-01 0.187D+00 0.847D+00
 Gap=     0.274 Goal=   None    Shift=    0.000
 Gap=     0.173 Goal=   None    Shift=    0.000
 RMSDP=2.94D-07 MaxDP=1.04D-05 DE=-1.99D-08 OVMax= 2.17D-05

 Cycle  11  Pass 1  IDiag  1:
 E= -229.568230191806     Delta-E=       -0.000000003756 Rises=F Damp=F
 DIIS: error= 1.74D-06 at cycle   4 NSaved=   4.
 NSaved= 4 IEnMin= 4 EnMin= -229.568230191806     IErMin= 4 ErrMin= 1.74D-06
 ErrMax= 1.74D-06  0.00D+00 EMaxC= 1.00D-01 BMatC= 2.36D-09 BMatP= 1.15D-08
 IDIUse=1 WtCom= 1.00D+00 WtEn= 0.00D+00
 Coeff-Com: -0.130D+00-0.761D-01 0.335D+00 0.871D+00
 Coeff:     -0.130D+00-0.761D-01 0.335D+00 0.871D+00
 Gap=     0.274 Goal=   None    Shift=    0.000
 Gap=     0.173 Goal=   None    Shift=    0.000
 RMSDP=1.71D-07 MaxDP=5.99D-06 DE=-3.76D-09 OVMax= 1.32D-05

 Cycle  12  Pass 1  IDiag  1:
 E= -229.568230192644     Delta-E=       -0.000000000838 Rises=F Damp=F
 DIIS: error= 4.15D-07 at cycle   5 NSaved=   5.
 NSaved= 5 IEnMin= 5 EnMin= -229.568230192644     IErMin= 5 ErrMin= 4.15D-07
 ErrMax= 4.15D-07  0.00D+00 EMaxC= 1.00D-01 BMatC= 2.89D-10 BMatP= 2.36D-09
 IDIUse=1 WtCom= 1.00D+00 WtEn= 0.00D+00
 Coeff-Com: -0.634D-01-0.475D-01 0.116D+00 0.432D+00 0.564D+00
 Coeff:     -0.634D-01-0.475D-01 0.116D+00 0.432D+00 0.564D+00
 Gap=     0.274 Goal=   None    Shift=    0.000
 Gap=     0.173 Goal=   None    Shift=    0.000
 RMSDP=4.16D-08 MaxDP=1.03D-06 DE=-8.38D-10 OVMax= 2.37D-06

 Cycle  13  Pass 1  IDiag  1:
 E= -229.568230192703     Delta-E=       -0.000000000058 Rises=F Damp=F
 DIIS: error= 1.65D-07 at cycle   6 NSaved=   6.
 NSaved= 6 IEnMin= 6 EnMin= -229.568230192703     IErMin= 6 ErrMin= 1.65D-07
 ErrMax= 1.65D-07  0.00D+00 EMaxC= 1.00D-01 BMatC= 1.85D-11 BMatP= 2.89D-10
 IDIUse=1 WtCom= 1.00D+00 WtEn= 0.00D+00
 Coeff-Com: -0.109D-01-0.101D-01 0.713D-02 0.793D-01 0.224D+00 0.710D+00
 Coeff:     -0.109D-01-0.101D-01 0.713D-02 0.793D-01 0.224D+00 0.710D+00
 Gap=     0.274 Goal=   None    Shift=    0.000
 Gap=     0.173 Goal=   None    Shift=    0.000
 RMSDP=1.04D-08 MaxDP=2.50D-07 DE=-5.84D-11 OVMax= 6.58D-07

 Cycle  14  Pass 1  IDiag  1:
 E= -229.568230192706     Delta-E=       -0.000000000003 Rises=F Damp=F
 DIIS: error= 4.43D-08 at cycle   7 NSaved=   7.
 NSaved= 7 IEnMin= 7 EnMin= -229.568230192706     IErMin= 7 ErrMin= 4.43D-08
 ErrMax= 4.43D-08  0.00D+00 EMaxC= 1.00D-01 BMatC= 3.74D-12 BMatP= 1.85D-11
 IDIUse=1 WtCom= 1.00D+00 WtEn= 0.00D+00
 Coeff-Com:  0.876D-03-0.336D-03-0.817D-02-0.341D-02 0.545D-01 0.356D+00
 Coeff-Com:  0.600D+00
 Coeff:      0.876D-03-0.336D-03-0.817D-02-0.341D-02 0.545D-01 0.356D+00
 Coeff:      0.600D+00
 Gap=     0.274 Goal=   None    Shift=    0.000
 Gap=     0.173 Goal=   None    Shift=    0.000
 RMSDP=3.91D-09 MaxDP=1.03D-07 DE=-3.13D-12 OVMax= 2.45D-07

 SCF Done:  E(UB3LYP) =  -229.568230193     A.U. after   14 cycles
            NFock= 14  Conv=0.39D-08     -V/T= 2.0057
 <Sx>= 0.0000 <Sy>= 0.0000 <Sz>= 0.5000 <S**2>= 0.7530 S= 0.5015
 <L.S>=  0.00000000000    
 KE= 2.282782346666D+02 PE=-7.910385494444D+02 EE= 2.070511730181D+02
 Annihilation of the first spin contaminant:
 S**2 before annihilation     0.7530,   after     0.7500
 Leave Link  502 at Wed Feb 23 13:52:49 2022, MaxMem= 17179869184 cpu:              96.0 elap:              11.9
 (Enter /home/saurabh/gaussian/g16/l801.exe)
 DoSCS=F DFT=T ScalE2(SS,OS)=  1.000000  1.000000
 Range of M.O.s used for correlation:     1   190
 NBasis=   190 NAE=    17 NBE=    16 NFC=     0 NFV=     0
 NROrb=    190 NOA=    17 NOB=    16 NVA=   173 NVB=   174

 **** Warning!!: The largest alpha MO coefficient is  0.10264897D+02


 **** Warning!!: The largest beta MO coefficient is  0.10249013D+02

 Leave Link  801 at Wed Feb 23 13:52:49 2022, MaxMem= 17179869184 cpu:               0.5 elap:               0.0
 (Enter /home/saurabh/gaussian/g16/l1101.exe)
 Using compressed storage, NAtomX=     9.
 Will process     10 centers per pass.
 Leave Link 1101 at Wed Feb 23 13:52:50 2022, MaxMem= 17179869184 cpu:               4.5 elap:               0.2
 (Enter /home/saurabh/gaussian/g16/l1102.exe)
 Symmetrizing basis deriv contribution to polar:
 IMax=3 JMax=2 DiffMx= 0.00D+00
 Leave Link 1102 at Wed Feb 23 13:52:50 2022, MaxMem= 17179869184 cpu:               0.6 elap:               0.1
 (Enter /home/saurabh/gaussian/g16/l1110.exe)
 Forming Gx(P) for the SCF density, NAtomX=     9.
 Integral derivatives from FoFJK, PRISM(SPDF).
 Do as many integral derivatives as possible in FoFJK.
 G2DrvN: MDV=   17179868121.
 G2DrvN: will do    10 centers at a time, making    1 passes.
 Calling FoFCou, ICntrl=  3107 FMM=F I1Cent=   0 AccDes= 0.00D+00.
 FoFJK:  IHMeth= 1 ICntrl=    3107 DoSepK=F KAlg= 0 I1Cent=           0 FoldK=F
 IRaf=         0 NMat=       1 IRICut=       1 DoRegI=T DoRafI=F ISym2E= 0 IDoP0=0 IntGTp=1.
 FoFCou: FMM=F IPFlag=           0 FMFlag=      100000 FMFlg1=           0
         NFxFlg=           0 DoJE=F BraDBF=F KetDBF=F FulRan=T
         wScrn=  0.000000 ICntrl=      3107 IOpCl=  1 I1Cent=           0 NGrid=           0
         NMat0=    1 NMatS0=      1 NMatT0=    0 NMatD0=    1 NMtDS0=    0 NMtDT0=    0
 Symmetry not used in FoFCou.
 End of G2Drv F.D. properties file   721 does not exist.
 End of G2Drv F.D. properties file   722 does not exist.
 End of G2Drv F.D. properties file   788 does not exist.
 Leave Link 1110 at Wed Feb 23 13:52:59 2022, MaxMem= 17179869184 cpu:             194.3 elap:               8.9
 (Enter /home/saurabh/gaussian/g16/l1002.exe)
 Minotr:  UHF open shell wavefunction.
          IDoAtm=111111111
          Direct CPHF calculation.
          Differentiating once with respect to nuclear coordinates.
          Requested convergence is 1.0D-08 RMS, and 1.0D-07 maximum.
          Secondary convergence is 1.0D-12 RMS, and 1.0D-12 maximum.
          NewPWx=T KeepS1=F KeepF1=F KeepIn=T MapXYZ=F SortEE=F KeepMc=T.
         2676 words used for storage of precomputed grid.
 Keep R1 and R2 ints in memory in canonical form, NReq=352134214.
 FoFCou: FMM=F IPFlag=           0 FMFlag=           0 FMFlg1=           0
         NFxFlg=           0 DoJE=F BraDBF=F KetDBF=F FulRan=T
         wScrn=  0.000000 ICntrl=       600 IOpCl=  0 I1Cent=           0 NGrid=           0
         NMat0=    1 NMatS0=  18145 NMatT0=    0 NMatD0=    1 NMtDS0=    0 NMtDT0=    0
 Symmetry not used in FoFCou.
 Two-electron integral symmetry not used.
          MDV=   17179869184 using IRadAn=       1.
          Solving linear equations simultaneously, MaxMat=       0.
          There are    30 degrees of freedom in the 1st order CPHF.  IDoFFX=6 NUNeed=     0.
     24 vectors produced by pass  0 Test12= 1.91D-14 3.33D-09 XBig12= 1.90D-01 1.37D-01.
 AX will form    24 AO Fock derivatives at one time.
     24 vectors produced by pass  1 Test12= 1.91D-14 3.33D-09 XBig12= 3.56D-02 3.82D-02.
     24 vectors produced by pass  2 Test12= 1.91D-14 3.33D-09 XBig12= 5.04D-04 4.04D-03.
     24 vectors produced by pass  3 Test12= 1.91D-14 3.33D-09 XBig12= 7.55D-06 5.78D-04.
     24 vectors produced by pass  4 Test12= 1.91D-14 3.33D-09 XBig12= 5.40D-08 3.73D-05.
     24 vectors produced by pass  5 Test12= 1.91D-14 3.33D-09 XBig12= 4.58D-10 2.72D-06.
     22 vectors produced by pass  6 Test12= 1.91D-14 3.33D-09 XBig12= 2.19D-12 2.04D-07.
      6 vectors produced by pass  7 Test12= 1.91D-14 3.33D-09 XBig12= 7.88D-15 1.16D-08.
 InvSVY:  IOpt=1 It=  1 EMax= 1.33D-15
 Solved reduced A of dimension   172 with    24 vectors.
 End of Minotr F.D. properties file   721 does not exist.
 End of Minotr F.D. properties file   722 does not exist.
 End of Minotr F.D. properties file   788 does not exist.
 Leave Link 1002 at Wed Feb 23 13:53:09 2022, MaxMem= 17179869184 cpu:             231.3 elap:              10.5
 (Enter /home/saurabh/gaussian/g16/l601.exe)
 Copying SCF densities to generalized density rwf, IOpCl= 1 IROHF=0.

 **********************************************************************

            Population analysis using the SCF Density.

 **********************************************************************

 Orbital symmetries:
 Alpha Orbitals:
       Occupied  (A) (A) (A) (A) (A) (A) (A) (A) (A) (A) (A) (A)
                 (A) (A) (A) (A) (A)
       Virtual   (A) (A) (A) (A) (A) (A) (A) (A) (A) (A) (A) (A)
                 (A) (A) (A) (A) (A) (A) (A) (A) (A) (A) (A) (A)
                 (A) (A) (A) (A) (A) (A) (A) (A) (A) (A) (A) (A)
                 (A) (A) (A) (A) (A) (A) (A) (A) (A) (A) (A) (A)
                 (A) (A) (A) (A) (A) (A) (A) (A) (A) (A) (A) (A)
                 (A) (A) (A) (A) (A) (A) (A) (A) (A) (A) (A) (A)
                 (A) (A) (A) (A) (A) (A) (A) (A) (A) (A) (A) (A)
                 (A) (A) (A) (A) (A) (A) (A) (A) (A) (A) (A) (A)
                 (A) (A) (A) (A) (A) (A) (A) (A) (A) (A) (A) (A)
                 (A) (A) (A) (A) (A) (A) (A) (A) (A) (A) (A) (A)
                 (A) (A) (A) (A) (A) (A) (A) (A) (A) (A) (A) (A)
                 (A) (A) (A) (A) (A) (A) (A) (A) (A) (A) (A) (A)
                 (A) (A) (A) (A) (A) (A) (A) (A) (A) (A) (A) (A)
                 (A) (A) (A) (A) (A) (A) (A) (A) (A) (A) (A) (A)
                 (A) (A) (A) (A) (A)
 Beta  Orbitals:
       Occupied  (A) (A) (A) (A) (A) (A) (A) (A) (A) (A) (A) (A)
                 (A) (A) (A) (A)
       Virtual   (A) (A) (A) (A) (A) (A) (A) (A) (A) (A) (A) (A)
                 (A) (A) (A) (A) (A) (A) (A) (A) (A) (A) (A) (A)
                 (A) (A) (A) (A) (A) (A) (A) (A) (A) (A) (A) (A)
                 (A) (A) (A) (A) (A) (A) (A) (A) (A) (A) (A) (A)
                 (A) (A) (A) (A) (A) (A) (A) (A) (A) (A) (A) (A)
                 (A) (A) (A) (A) (A) (A) (A) (A) (A) (A) (A) (A)
                 (A) (A) (A) (A) (A) (A) (A) (A) (A) (A) (A) (A)
                 (A) (A) (A) (A) (A) (A) (A) (A) (A) (A) (A) (A)
                 (A) (A) (A) (A) (A) (A) (A) (A) (A) (A) (A) (A)
                 (A) (A) (A) (A) (A) (A) (A) (A) (A) (A) (A) (A)
                 (A) (A) (A) (A) (A) (A) (A) (A) (A) (A) (A) (A)
                 (A) (A) (A) (A) (A) (A) (A) (A) (A) (A) (A) (A)
                 (A) (A) (A) (A) (A) (A) (A) (A) (A) (A) (A) (A)
                 (A) (A) (A) (A) (A) (A) (A) (A) (A) (A) (A) (A)
                 (A) (A) (A) (A) (A) (A)
 The electronic state is 2-A.
 Alpha  occ. eigenvalues --  -19.18549 -19.18302 -10.23430 -10.20550  -1.18700
 Alpha  occ. eigenvalues --   -0.90461  -0.74680  -0.61685  -0.56329  -0.50238
 Alpha  occ. eigenvalues --   -0.47853  -0.43285  -0.39393  -0.37495  -0.29916
 Alpha  occ. eigenvalues --   -0.26829  -0.24996
 Alpha virt. eigenvalues --    0.02411   0.04029   0.08285   0.09701   0.11208
 Alpha virt. eigenvalues --    0.11838   0.16781   0.18911   0.26258   0.29844
 Alpha virt. eigenvalues --    0.31051   0.33431   0.35113   0.37964   0.38910
 Alpha virt. eigenvalues --    0.41973   0.42516   0.45302   0.46074   0.47892
 Alpha virt. eigenvalues --    0.48510   0.51743   0.56560   0.61600   0.63682
 Alpha virt. eigenvalues --    0.64053   0.66804   0.68136   0.72207   0.78790
 Alpha virt. eigenvalues --    0.81224   0.82790   0.88676   0.91514   0.92939
 Alpha virt. eigenvalues --    1.00035   1.03121   1.04757   1.05708   1.06641
 Alpha virt. eigenvalues --    1.10682   1.14131   1.17717   1.18773   1.22692
 Alpha virt. eigenvalues --    1.23658   1.27137   1.31084   1.32374   1.35847
 Alpha virt. eigenvalues --    1.40528   1.44129   1.47652   1.54155   1.63047
 Alpha virt. eigenvalues --    1.72795   1.75775   1.93911   1.95484   1.99629
 Alpha virt. eigenvalues --    2.02452   2.09631   2.12657   2.17471   2.23567
 Alpha virt. eigenvalues --    2.25791   2.27961   2.30600   2.37622   2.42684
 Alpha virt. eigenvalues --    2.46908   2.53532   2.60036   2.61059   2.64888
 Alpha virt. eigenvalues --    2.70983   2.76213   2.81743   2.85537   2.89815
 Alpha virt. eigenvalues --    2.90819   2.92916   2.97302   2.99663   3.02198
 Alpha virt. eigenvalues --    3.04980   3.07293   3.11450   3.12258   3.17215
 Alpha virt. eigenvalues --    3.21833   3.23317   3.26541   3.28224   3.32068
 Alpha virt. eigenvalues --    3.34852   3.37794   3.42572   3.45724   3.47728
 Alpha virt. eigenvalues --    3.50298   3.55007   3.63573   3.66083   3.68145
 Alpha virt. eigenvalues --    3.70110   3.74043   3.74979   3.79709   3.82530
 Alpha virt. eigenvalues --    3.84663   3.85339   3.92670   3.97567   3.98128
 Alpha virt. eigenvalues --    4.00470   4.03013   4.05266   4.07924   4.10958
 Alpha virt. eigenvalues --    4.13688   4.17294   4.25588   4.32356   4.33261
 Alpha virt. eigenvalues --    4.38266   4.40516   4.59048   4.64555   4.67276
 Alpha virt. eigenvalues --    4.73783   4.74314   4.77577   4.79352   4.84897
 Alpha virt. eigenvalues --    4.87299   4.93923   4.94619   4.98299   5.07756
 Alpha virt. eigenvalues --    5.12287   5.18588   5.21851   5.28133   5.32542
 Alpha virt. eigenvalues --    5.33603   5.47223   5.54854   5.71306   5.79924
 Alpha virt. eigenvalues --    5.84007   5.94833   6.04357   6.06100   6.27101
 Alpha virt. eigenvalues --    6.34097   6.37889   6.46237   6.48984   6.57078
 Alpha virt. eigenvalues --    6.66782   6.77429   6.83139   6.91102   6.94261
 Alpha virt. eigenvalues --    7.22109   7.33449   7.48782   7.74048  10.17157
 Alpha virt. eigenvalues --   11.23714  11.68760  12.31749
  Beta  occ. eigenvalues --  -19.18536 -19.18306 -10.23453 -10.19065  -1.18689
  Beta  occ. eigenvalues --   -0.90339  -0.72987  -0.60023  -0.56232  -0.49724
  Beta  occ. eigenvalues --   -0.47502  -0.42536  -0.38500  -0.36728  -0.29822
  Beta  occ. eigenvalues --   -0.26363
  Beta virt. eigenvalues --   -0.09021   0.02473   0.04333   0.08562   0.10015
  Beta virt. eigenvalues --    0.11588   0.12128   0.16960   0.19675   0.26554
  Beta virt. eigenvalues --    0.31838   0.33593   0.34200   0.35884   0.38790
  Beta virt. eigenvalues --    0.39414   0.42386   0.43390   0.46114   0.46819
  Beta virt. eigenvalues --    0.48565   0.49350   0.52441   0.57334   0.61932
  Beta virt. eigenvalues --    0.63938   0.64500   0.67185   0.68437   0.72774
  Beta virt. eigenvalues --    0.79475   0.81597   0.83265   0.89174   0.92297
  Beta virt. eigenvalues --    0.93448   1.01013   1.03700   1.05322   1.06995
  Beta virt. eigenvalues --    1.07557   1.11489   1.14955   1.18384   1.19102
  Beta virt. eigenvalues --    1.24142   1.24565   1.27559   1.31537   1.33226
  Beta virt. eigenvalues --    1.37094   1.40803   1.44550   1.48727   1.54653
  Beta virt. eigenvalues --    1.63524   1.73094   1.76527   1.94224   1.95776
  Beta virt. eigenvalues --    1.99794   2.02577   2.09913   2.15057   2.20349
  Beta virt. eigenvalues --    2.24649   2.26781   2.28647   2.31467   2.38001
  Beta virt. eigenvalues --    2.43646   2.47581   2.55553   2.61191   2.62413
  Beta virt. eigenvalues --    2.65670   2.72725   2.78049   2.82924   2.87935
  Beta virt. eigenvalues --    2.91318   2.91870   2.94389   2.98911   3.00802
  Beta virt. eigenvalues --    3.04373   3.06760   3.08071   3.13484   3.14521
  Beta virt. eigenvalues --    3.17795   3.23654   3.24358   3.26906   3.28631
  Beta virt. eigenvalues --    3.32997   3.35292   3.38549   3.43604   3.46223
  Beta virt. eigenvalues --    3.48097   3.50884   3.55447   3.63952   3.66486
  Beta virt. eigenvalues --    3.68656   3.70865   3.74438   3.75761   3.80063
  Beta virt. eigenvalues --    3.83267   3.85007   3.85990   3.93230   3.98372
  Beta virt. eigenvalues --    3.98841   4.00866   4.03638   4.05833   4.08865
  Beta virt. eigenvalues --    4.11464   4.13904   4.17807   4.26367   4.32666
  Beta virt. eigenvalues --    4.33848   4.39560   4.40857   4.59471   4.65011
  Beta virt. eigenvalues --    4.67933   4.74158   4.75592   4.77904   4.80289
  Beta virt. eigenvalues --    4.85508   4.87853   4.95151   4.95738   4.98765
  Beta virt. eigenvalues --    5.07936   5.12642   5.19004   5.22467   5.28730
  Beta virt. eigenvalues --    5.32987   5.33890   5.47962   5.55029   5.71849
  Beta virt. eigenvalues --    5.80578   5.84334   5.94973   6.04412   6.06142
  Beta virt. eigenvalues --    6.27130   6.34102   6.37904   6.46246   6.48990
  Beta virt. eigenvalues --    6.57076   6.66789   6.77455   6.83171   6.91122
  Beta virt. eigenvalues --    6.94289   7.22118   7.33473   7.48798   7.74057
  Beta virt. eigenvalues --   10.17186  11.25357  11.68767  12.32103
          Condensed to atoms (all electrons):
               1          2          3          4          5          6
     1  C    5.246514   0.302180   0.386522   0.385719  -0.032893  -0.034757
     2  C    0.302180   4.650878  -0.035666  -0.037089   0.345310   0.402124
     3  H    0.386522  -0.035666   0.594602  -0.041158   0.002851  -0.003437
     4  H    0.385719  -0.037089  -0.041158   0.594676   0.002867   0.009917
     5  O   -0.032893   0.345310   0.002851   0.002867   7.959117  -0.052279
     6  H   -0.034757   0.402124  -0.003437   0.009917  -0.052279   0.690376
     7  H   -0.038671   0.358819   0.001641  -0.009752  -0.062355  -0.078127
     8  O    0.010601  -0.054987  -0.000327  -0.000348   0.034838   0.005227
     9  H   -0.001544  -0.007620   0.000058  -0.000072  -0.035452  -0.002184
               7          8          9
     1  C   -0.038671   0.010601  -0.001544
     2  C    0.358819  -0.054987  -0.007620
     3  H    0.001641  -0.000327   0.000058
     4  H   -0.009752  -0.000348  -0.000072
     5  O   -0.062355   0.034838  -0.035452
     6  H   -0.078127   0.005227  -0.002184
     7  H    0.760441   0.011325   0.009229
     8  O    0.011325   7.882062   0.330311
     9  H    0.009229   0.330311   0.479692
          Atomic-Atomic Spin Densities.
               1          2          3          4          5          6
     1  C    1.027795  -0.023714   0.004680   0.004837   0.000535  -0.005547
     2  C   -0.023714  -0.013506   0.002181   0.001410  -0.001483   0.003208
     3  H    0.004680   0.002181  -0.026166   0.005852   0.000075   0.001427
     4  H    0.004837   0.001410   0.005852  -0.017930   0.000846   0.000356
     5  O    0.000535  -0.001483   0.000075   0.000846   0.007520   0.002135
     6  H   -0.005547   0.003208   0.001427   0.000356   0.002135   0.013275
     7  H   -0.028416   0.017196  -0.003172  -0.003708  -0.006902  -0.006942
     8  O    0.000036   0.000788   0.000016  -0.000038  -0.000113  -0.000131
     9  H    0.000005  -0.000095  -0.000004  -0.000013   0.000034   0.000004
               7          8          9
     1  C   -0.028416   0.000036   0.000005
     2  C    0.017196   0.000788  -0.000095
     3  H   -0.003172   0.000016  -0.000004
     4  H   -0.003708  -0.000038  -0.000013
     5  O   -0.006902  -0.000113   0.000034
     6  H   -0.006942  -0.000131   0.000004
     7  H    0.078557   0.000664  -0.000002
     8  O    0.000664  -0.001659   0.000122
     9  H   -0.000002   0.000122  -0.000133
 Mulliken charges and spin densities:
               1          2
     1  C   -0.223671   0.980211
     2  C    0.076052  -0.014017
     3  H    0.094914  -0.015113
     4  H    0.095240  -0.008389
     5  O   -0.162005   0.002646
     6  H    0.063141   0.007785
     7  H    0.047449   0.047275
     8  O   -0.218701  -0.000315
     9  H    0.227582  -0.000083
 Sum of Mulliken charges =  -0.00000   1.00000
 Mulliken charges and spin densities with hydrogens summed into heavy atoms:
               1          2
     1  C   -0.033517   0.956710
     2  C    0.186642   0.041043
     5  O   -0.162005   0.002646
     8  O    0.008881  -0.000398
 APT charges:
               1
     1  C   -0.682307
     2  C   -0.448972
     3  H    0.419341
     4  H    0.289985
     5  O   -0.020066
     6  H    0.268833
     7  H    0.231839
     8  O   -0.580794
     9  H    0.522142
 Sum of APT charges =  -0.00000
 APT charges with hydrogens summed into heavy atoms:
               1
     1  C    0.027018
     2  C    0.051700
     5  O   -0.020066
     8  O   -0.058652
 Electronic spatial extent (au):  <R**2>=            310.6514
 Charge=             -0.0000 electrons
 Dipole moment (field-independent basis, Debye):
    X=             -0.3667    Y=              0.7504    Z=              2.0917  Tot=              2.2523
 Quadrupole moment (field-independent basis, Debye-Ang):
   XX=            -23.1515   YY=            -25.4124   ZZ=            -23.6459
   XY=             -1.7178   XZ=              2.1859   YZ=             -1.0640
 Traceless Quadrupole moment (field-independent basis, Debye-Ang):
   XX=              0.9184   YY=             -1.3424   ZZ=              0.4240
   XY=             -1.7178   XZ=              2.1859   YZ=             -1.0640
 Octapole moment (field-independent basis, Debye-Ang**2):
  XXX=             16.5859  YYY=             -0.7984  ZZZ=              2.1782  XYY=              2.7931
  XXY=             -0.6970  XXZ=              9.2732  XZZ=              7.1391  YZZ=             -0.1557
  YYZ=              0.5156  XYZ=              0.1945
 Hexadecapole moment (field-independent basis, Debye-Ang**3):
 XXXX=           -291.9788 YYYY=            -59.2597 ZZZZ=            -35.7201 XXXY=            -11.0942
 XXXZ=             10.1280 YYYX=             -2.5941 YYYZ=             -1.5311 ZZZX=              1.6269
 ZZZY=             -1.1070 XXYY=            -60.2397 XXZZ=            -54.2388 YYZZ=            -15.1385
 XXYZ=             -2.9796 YYXZ=             -0.8794 ZZXY=             -1.1196
 N-N= 1.261409115670D+02 E-N=-7.910385511347D+02  KE= 2.282782346666D+02
  Exact polarizability:       0.000       0.000       0.000       0.000       0.000       0.000
 Approx polarizability:      52.618       1.113      43.427       2.585      -1.390      41.813
                          Isotropic Fermi Contact Couplings
        Atom                 a.u.       MegaHertz       Gauss      10(-4) cm-1
     1  C(13)              0.26219     294.75428     105.17566      98.31944
     2  C(13)             -0.01793     -20.16093      -7.19392      -6.72496
     3  H(1)              -0.00454     -20.29043      -7.24013      -6.76816
     4  H(1)               0.00027       1.22652       0.43765       0.40912
     5  O(17)              0.00757      -4.58741      -1.63690      -1.53020
     6  H(1)               0.00652      29.12151      10.39128       9.71389
     7  H(1)               0.02582     115.39822      41.17696      38.49270
     8  O(17)             -0.00260       1.57434       0.56176       0.52514
     9  H(1)               0.00000       0.01410       0.00503       0.00470
 --------------------------------------------------------
       Center         ----  Spin Dipole Couplings  ----
                      3XX-RR        3YY-RR        3ZZ-RR
 --------------------------------------------------------
     1   Atom       -0.511374     -0.271233      0.782608
     2   Atom        0.027644     -0.025291     -0.002353
     3   Atom        0.011195      0.001602     -0.012797
     4   Atom       -0.059215      0.032556      0.026659
     5   Atom        0.022689     -0.004783     -0.017906
     6   Atom        0.002257      0.005203     -0.007460
     7   Atom        0.002586     -0.004468      0.001882
     8   Atom       -0.003728      0.002711      0.001017
     9   Atom        0.003994     -0.002038     -0.001956
 --------------------------------------------------------
                        XY            XZ            YZ
 --------------------------------------------------------
     1   Atom        0.052616      0.126108      0.574580
     2   Atom        0.018981      0.038363      0.009850
     3   Atom       -0.060299      0.003896      0.021763
     4   Atom        0.012758     -0.004819     -0.038287
     5   Atom       -0.011286     -0.003267      0.010387
     6   Atom        0.015629     -0.005985     -0.005581
     7   Atom        0.006663      0.002744      0.009720
     8   Atom        0.002183      0.003311      0.003631
     9   Atom       -0.000470      0.001396      0.000131
 --------------------------------------------------------


 ---------------------------------------------------------------------------------
              Anisotropic Spin Dipole Couplings in Principal Axis System
 ---------------------------------------------------------------------------------

       Atom             a.u.   MegaHertz   Gauss  10(-4) cm-1        Axes

              Baa    -0.5262   -70.617   -25.198   -23.555  0.6648  0.6584 -0.3531
     1 C(13)  Bbb    -0.5210   -69.917   -24.948   -23.322  0.7419 -0.6371  0.2090
              Bcc     1.0473   140.534    50.146    46.877  0.0873  0.4009  0.9120
 
              Baa    -0.0323    -4.333    -1.546    -1.445 -0.4772  0.8080  0.3456
     2 C(13)  Bbb    -0.0269    -3.608    -1.288    -1.204 -0.3527 -0.5363  0.7668
              Bcc     0.0592     7.941     2.834     2.649  0.8049  0.2440  0.5409
 
              Baa    -0.0614   -32.759   -11.689   -10.927  0.6064  0.7065 -0.3650
     3 H(1)   Bbb    -0.0073    -3.890    -1.388    -1.298  0.3565  0.1687  0.9189
              Bcc     0.0687    36.649    13.077    12.225  0.7107 -0.6874 -0.1496
 
              Baa    -0.0610   -32.524   -11.606   -10.849  0.9905 -0.1374 -0.0056
     4 H(1)   Bbb    -0.0083    -4.426    -1.579    -1.476  0.0963  0.6645  0.7411
              Bcc     0.0693    36.950    13.185    12.325  0.0981  0.7346 -0.6714
 
              Baa    -0.0238     1.722     0.614     0.574 -0.0627 -0.5070  0.8597
     5 O(17)  Bbb    -0.0039     0.284     0.102     0.095  0.3907  0.7802  0.4885
              Bcc     0.0277    -2.006    -0.716    -0.669  0.9184 -0.3665 -0.1492
 
              Baa    -0.0121    -6.479    -2.312    -2.161  0.7579 -0.6022  0.2510
     6 H(1)   Bbb    -0.0096    -5.105    -1.821    -1.703 -0.0156  0.3679  0.9297
              Bcc     0.0217    11.583     4.133     3.864  0.6522  0.7086 -0.2694
 
              Baa    -0.0126    -6.714    -2.396    -2.240 -0.2704  0.8221 -0.5011
     7 H(1)   Bbb    -0.0002    -0.130    -0.047    -0.043  0.8008 -0.0968 -0.5910
              Bcc     0.0128     6.845     2.442     2.283  0.5344  0.5611  0.6322
 
              Baa    -0.0054     0.394     0.141     0.131  0.8994 -0.0473 -0.4345
     8 O(17)  Bbb    -0.0015     0.109     0.039     0.036 -0.2778  0.7056 -0.6519
              Bcc     0.0069    -0.503    -0.179    -0.168  0.3374  0.7070  0.6215
 
              Baa    -0.0024    -1.290    -0.460    -0.430 -0.2162 -0.5470  0.8087
     9 H(1)   Bbb    -0.0019    -1.022    -0.365    -0.341 -0.0630  0.8344  0.5476
              Bcc     0.0043     2.313     0.825     0.771  0.9743 -0.0675  0.2149
 

 ---------------------------------------------------------------------------------

 No NMR shielding tensors so no spin-rotation constants.
 Leave Link  601 at Wed Feb 23 13:53:10 2022, MaxMem= 17179869184 cpu:               5.3 elap:               0.3
 (Enter /home/saurabh/gaussian/g16/l701.exe)
 ... and contract with generalized density number  0.
 Compute integral second derivatives.
 Leave Link  701 at Wed Feb 23 13:53:10 2022, MaxMem= 17179869184 cpu:               4.9 elap:               0.2
 (Enter /home/saurabh/gaussian/g16/l702.exe)
 L702 exits ... SP integral derivatives will be done elsewhere.
 Leave Link  702 at Wed Feb 23 13:53:10 2022, MaxMem= 17179869184 cpu:               0.4 elap:               0.0
 (Enter /home/saurabh/gaussian/g16/l703.exe)
 Integral derivatives from FoFJK, PRISM(SPDF).
 Compute integral second derivatives, UseDBF=F ICtDFT=           0.
 Calling FoFJK, ICntrl=    100127 FMM=F ISym2X=0 I1Cent= 0 IOpClX= 1 NMat=1 NMatS=1 NMatT=0.
 FoFJK:  IHMeth= 1 ICntrl=  100127 DoSepK=F KAlg= 0 I1Cent=           0 FoldK=F
 IRaf=         0 NMat=       1 IRICut=       1 DoRegI=T DoRafI=F ISym2E= 0 IDoP0=0 IntGTp=1.
 FoFCou: FMM=F IPFlag=           0 FMFlag=      100000 FMFlg1=         800
         NFxFlg=           0 DoJE=F BraDBF=F KetDBF=F FulRan=T
         wScrn=  0.000000 ICntrl=    100127 IOpCl=  1 I1Cent=           0 NGrid=           0
         NMat0=    1 NMatS0=      1 NMatT0=    0 NMatD0=    1 NMtDS0=    0 NMtDT0=    0
 Symmetry not used in FoFCou.
 Leave Link  703 at Wed Feb 23 13:53:30 2022, MaxMem= 17179869184 cpu:             433.7 elap:              19.7
 (Enter /home/saurabh/gaussian/g16/l716.exe)
 Dipole        =-1.44267366D-01 2.95233306D-01 8.22954916D-01
 Polarizability= 0.00000000D+00 0.00000000D+00 0.00000000D+00
                 0.00000000D+00 0.00000000D+00 0.00000000D+00
 ***** Axes restored to original set *****
 -------------------------------------------------------------------
 Center     Atomic                   Forces (Hartrees/Bohr)
 Number     Number              X              Y              Z
 -------------------------------------------------------------------
      1        6          -0.007430004    0.023960170   -0.045428188
      2        6           0.032434017   -0.000176179    0.018382424
      3        1          -0.004490598   -0.013332868    0.011934587
      4        1           0.003255470   -0.004095857    0.019440670
      5        8           0.074906613   -0.038457421   -0.002575525
      6        1          -0.005931804   -0.002674627   -0.011418671
      7        1          -0.000349587   -0.001557435    0.007538810
      8        8          -0.099630413    0.031525931   -0.015467723
      9        1           0.007236305    0.004808285    0.017593615
 -------------------------------------------------------------------
 Cartesian Forces:  Max     0.099630413 RMS     0.029628372
 Force constants in Cartesian coordinates: 
                1             2             3             4             5 
      1  0.424004D+00
      2  0.563470D-01  0.404385D+00
      3 -0.336359D-01  0.122477D+00  0.292060D+00
      4 -0.153166D+00  0.384100D-01  0.124793D-01  0.459830D+00
      5  0.398113D-01 -0.103777D+00 -0.147392D-01  0.129298D-02  0.492132D+00
      6 -0.803353D-02 -0.331222D-02 -0.693361D-01 -0.600218D-02  0.273857D-01
      7 -0.160737D+00 -0.107901D+00  0.782026D-02 -0.157409D-01 -0.265711D-01
      8 -0.124474D+00 -0.171048D+00 -0.457700D-02  0.101910D-01  0.997239D-02
      9  0.230606D-01  0.125840D-01 -0.390445D-01 -0.183073D-03 -0.931949D-03
     10 -0.541109D-01  0.732734D-02  0.119502D-01 -0.271570D-02  0.219370D-01
     11  0.910801D-02 -0.127608D+00 -0.101644D+00  0.389803D-02 -0.778536D-02
     12  0.197093D-01 -0.131692D+00 -0.188916D+00 -0.336939D-02 -0.214157D-02
     13 -0.344743D-01 -0.197644D-01  0.933969D-03 -0.111086D+00 -0.107715D+00
     14  0.885113D-02  0.142854D-01 -0.504632D-03 -0.479495D-01 -0.197709D+00
     15 -0.639959D-04  0.737816D-03  0.160976D-02  0.339238D-02  0.641280D-02
     16 -0.351631D-02  0.195220D-01  0.232980D-01 -0.520574D-01  0.127997D-01
     17  0.507133D-02 -0.912699D-02 -0.106889D-01  0.804295D-02 -0.116320D+00
     18  0.151505D-02 -0.855690D-03  0.335670D-03  0.145394D-01 -0.976457D-01
     19 -0.108608D-01  0.175153D-01 -0.225667D-01 -0.493741D-01  0.224843D-01
     20  0.928749D-02 -0.734540D-02  0.971963D-02  0.106288D-01 -0.932953D-01
     21 -0.302099D-02  0.809462D-04  0.173098D-02 -0.258313D-01  0.814826D-01
     22 -0.646136D-02 -0.102441D-01 -0.779320D-03 -0.720401D-01  0.322019D-01
     23 -0.395980D-02  0.114805D-03 -0.818434D-03 -0.221783D-01  0.182808D-01
     24 -0.396385D-03 -0.510799D-03  0.166904D-02  0.371674D-02  0.159810D-02
     25 -0.676394D-03 -0.121245D-02  0.500076D-03 -0.364929D-02  0.375924D-02
     26 -0.423615D-04  0.120582D-03  0.775145D-03 -0.233596D-02 -0.149843D-02
     27  0.865890D-03  0.490794D-03 -0.108840D-03  0.125808D-02 -0.142081D-02
                6             7             8             9            10 
      6  0.520469D+00
      7  0.130115D-02  0.176594D+00
      8 -0.123099D-02  0.127862D+00  0.171349D+00
      9  0.470812D-02 -0.111640D-01  0.565871D-02  0.296968D-01
     10  0.235568D-01  0.469059D-02 -0.152905D-01 -0.141826D-01  0.542445D-01
     11 -0.173333D-01  0.772814D-03 -0.102102D-01 -0.180220D-01 -0.151259D-01
     12  0.365232D-02  0.206602D-02 -0.115772D-03  0.353550D-02 -0.202422D-01
     13  0.599242D-02 -0.320166D-02  0.172748D-02  0.467141D-03  0.228628D-02
     14  0.723600D-02  0.582756D-02 -0.917692D-03  0.177671D-03 -0.442364D-04
     15 -0.643611D-01 -0.290449D-03  0.130138D-04  0.490909D-03 -0.407296D-03
     16  0.184026D-01  0.111730D-02 -0.768268D-03 -0.540248D-03 -0.531670D-02
     17 -0.941305D-01  0.426543D-03  0.471031D-03  0.867027D-03  0.214413D-02
     18 -0.193866D+00  0.778404D-03 -0.100462D-04 -0.631201D-04  0.715591D-04
     19 -0.367769D-01  0.684786D-03 -0.106800D-02  0.190123D-02  0.797826D-03
     20  0.840254D-01  0.243047D-03  0.252623D-03 -0.651319D-03 -0.237014D-03
     21 -0.203172D+00 -0.686881D-03  0.223142D-03 -0.240648D-04 -0.266168D-03
     22  0.623869D-02 -0.306858D-02  0.158883D-02  0.470688D-03  0.204249D-03
     23 -0.688283D-03 -0.657480D-03  0.131575D-03  0.475916D-03 -0.631274D-03
     24  0.172796D-03 -0.912518D-04  0.141771D-03  0.704769D-03 -0.454145D-03
     25 -0.467909D-02 -0.338123D-03  0.232005D-03  0.170197D-03 -0.801214D-04
     26 -0.195178D-02 -0.229247D-05  0.000000D+00 -0.158061D-03 -0.795466D-04
     27  0.173242D-02  0.266702D-03 -0.102827D-03 -0.435541D-05 -0.261388D-04
               11            12            13            14            15 
     11  0.143774D+00
     12  0.134413D+00  0.180167D+00
     13 -0.104697D-03 -0.328613D-03  0.599357D+00
     14  0.931291D-03  0.343531D-03 -0.771562D-01  0.363614D+00
     15  0.103261D-02 -0.285935D-03  0.166508D-01 -0.154723D-01  0.551482D-01
     16  0.357503D-02 -0.270362D-03 -0.943964D-02 -0.259997D-01 -0.176882D-01
     17  0.211180D-03 -0.664727D-03 -0.113481D-01 -0.309098D-01 -0.207043D-01
     18  0.919572D-03  0.130269D-02 -0.308009D-02 -0.920997D-03  0.103499D-01
     19 -0.217784D-02  0.220813D-02 -0.786709D-02 -0.236350D-01  0.216245D-01
     20  0.701534D-03 -0.577583D-03 -0.845877D-02 -0.279226D-01  0.266085D-01
     21  0.468291D-03  0.506106D-03  0.417715D-02  0.985936D-02  0.331376D-02
     22 -0.378145D-04  0.209001D-03 -0.393501D+00  0.160498D+00  0.136984D-01
     23 -0.779635D-04  0.587651D-03  0.193480D+00 -0.119089D+00 -0.248186D-01
     24  0.225000D-03  0.360711D-04 -0.252582D-01 -0.910039D-02 -0.217860D-01
     25  0.923927D-04  0.181999D-04 -0.420733D-01 -0.391915D-03 -0.369161D-01
     26  0.628613D-04 -0.151937D-03  0.293403D-01 -0.228155D-02  0.261904D-01
     27 -0.588459D-04  0.287719D-05  0.445423D-03  0.838172D-02  0.155205D-01
               16            17            18            19            20 
     16  0.612226D-01
     17 -0.641415D-02  0.143640D+00
     18 -0.170262D-01  0.111147D+00  0.202739D+00
     19  0.261346D-02 -0.667589D-03  0.373332D-02  0.581031D-01
     20 -0.181232D-02  0.955478D-02 -0.141499D-01 -0.111702D-01  0.115547D+00
     21 -0.576777D-02  0.115633D-01 -0.206907D-01  0.299401D-01 -0.101474D+00
     22  0.540358D-02  0.264173D-02 -0.724004D-03  0.602146D-02  0.233250D-02
     23 -0.139229D-02  0.223535D-02  0.111723D-02 -0.727056D-03  0.225377D-02
     24 -0.760828D-03  0.234234D-02  0.427561D-03  0.735383D-03 -0.342612D-02
     25 -0.269673D-04  0.103152D-03  0.192540D-03 -0.118674D-03 -0.813507D-03
     26  0.490041D-03  0.243664D-03  0.398095D-03 -0.553753D-03  0.253977D-03
     27  0.352924D-03  0.268483D-03 -0.535302D-03 -0.799087D-03 -0.744069D-04
               21            22            23            24            25 
     21  0.217158D+00
     22  0.747860D-03  0.544608D+00
     23 -0.257102D-02 -0.156816D+00  0.140241D+00
     24  0.217172D-02  0.111593D+00  0.117076D+00  0.363676D+00
     25  0.707982D-03 -0.811664D-01 -0.711713D-02 -0.890842D-01  0.128129D+00
     26  0.367711D-03 -0.321646D-01 -0.440898D-01 -0.108346D+00  0.534821D-02
     27 -0.994223D-03 -0.131454D+00 -0.903606D-01 -0.347072D+00  0.129090D+00
               26            27 
     26  0.471889D-01
     27  0.828765D-01  0.331459D+00
 FormGI is forming the generalized inverse of G from B-inverse, IUseBI=4.
 Force constants in internal coordinates: 
                1             2             3             4             5 
      1  0.258835D+00
      2  0.239449D-02  0.301156D+00
      3  0.552155D-02  0.197280D-02  0.299314D+00
      4  0.189142D-01 -0.744266D-03  0.635535D-03  0.344521D+00
      5  0.897104D-02  0.765508D-03 -0.772938D-03  0.163403D-01  0.289401D+00
      6  0.108922D-01  0.522117D-03  0.642545D-03  0.178544D-01  0.461454D-02
      7  0.266943D-02  0.809316D-03 -0.578762D-05  0.232628D-01  0.443347D-03
      8 -0.473605D-03 -0.679907D-04 -0.104225D-04  0.506338D-03  0.754505D-04
      9  0.175928D-01  0.110231D-01 -0.752275D-02  0.352248D-02  0.197004D-03
     10  0.238262D-01 -0.808343D-02  0.100778D-01 -0.261697D-02  0.272829D-02
     11 -0.152044D-01  0.432754D-02  0.432125D-02 -0.541832D-03 -0.110529D-02
     12  0.220656D-01  0.544992D-02 -0.391995D-02  0.834939D-02 -0.352876D-02
     13  0.109685D-01 -0.175949D-02  0.433742D-02 -0.186832D-01  0.486738D-02
     14  0.595541D-02 -0.828348D-03  0.134580D-03 -0.200221D-01 -0.572938D-02
     15 -0.142461D-01 -0.128823D-02  0.832816D-04  0.189022D-01  0.568243D-03
     16 -0.147392D-01 -0.168350D-02  0.465766D-03  0.176962D-01 -0.497885D-03
     17 -0.858889D-02  0.208192D-03 -0.106874D-02 -0.750787D-02  0.422037D-02
     18  0.175290D-01  0.209594D-02  0.100042D-02  0.467625D-01 -0.715434D-02
     19  0.121430D-02  0.182293D-03  0.208077D-03  0.427121D-03 -0.361902D-04
     20  0.170835D-02  0.375422D-02  0.284465D-02 -0.129589D-02 -0.187469D-02
     21  0.364023D-02  0.430273D-02  0.323139D-02  0.153192D-01 -0.369967D-03
     22  0.301133D-02  0.307522D-02  0.450971D-02 -0.157231D-01  0.421683D-02
     23 -0.596515D-02 -0.353805D-02 -0.414898D-02 -0.121069D-02 -0.237503D-02
     24 -0.403327D-02 -0.298955D-02 -0.376224D-02  0.154044D-01 -0.870301D-03
     25 -0.466217D-02 -0.421705D-02 -0.248393D-02 -0.156379D-01  0.371650D-02
     26  0.221139D-02 -0.386963D-03  0.174386D-02  0.396793D-03  0.313405D-02
     27 -0.161131D-01 -0.785013D-03 -0.121629D-02  0.691492D-02 -0.997080D-03
     28  0.142911D-01  0.957522D-03 -0.237433D-03 -0.831201D-02 -0.637285D-02
     29  0.138207D-02  0.123900D-03 -0.311309D-04  0.499901D-02 -0.101283D-02
                6             7             8             9            10 
      6  0.284173D+00
      7  0.254053D-02  0.578621D+00
      8 -0.370429D-03  0.137428D-01  0.410472D+00
      9  0.607403D-03  0.560964D-02 -0.149364D-03  0.115316D+00
     10 -0.890658D-03 -0.163293D-02  0.142460D-03 -0.635402D-02  0.124330D+00
     11 -0.377604D-03 -0.150739D-02 -0.175061D-04 -0.457912D-01 -0.462605D-01
     12 -0.441364D-02  0.227802D-01 -0.368927D-03  0.259085D-01 -0.148691D-01
     13 -0.549538D-02 -0.137037D-02  0.473480D-03 -0.105381D-01  0.181432D-01
     14  0.335080D-02 -0.807075D-03 -0.628069D-03 -0.797385D-02 -0.399312D-02
     15 -0.718699D-03 -0.101519D-01 -0.656584D-03 -0.489862D-02 -0.146390D-02
     16  0.221523D-02 -0.108774D-01  0.118501D-02 -0.540168D-02  0.485382D-02
     17  0.482458D-02  0.118499D-02 -0.275937D-04  0.314650D-02 -0.264685D-02
     18 -0.668204D-02  0.947126D-01  0.214633D-02  0.914059D-02  0.515567D-05
     19  0.186150D-02  0.869126D-01 -0.524357D-02  0.127887D-02 -0.264360D-03
     20  0.264336D-02  0.658737D-04  0.501732D-03  0.706513D-02  0.591473D-02
     21 -0.396758D-02  0.120386D-03 -0.223304D-03  0.987659D-02  0.622827D-02
     22  0.566802D-03  0.297204D-03 -0.341882D-03  0.308956D-02  0.111734D-01
     23  0.329304D-02 -0.621058D-03  0.528286D-03 -0.608242D-02 -0.121344D-01
     24 -0.331790D-02 -0.566546D-03 -0.196750D-03 -0.327097D-02 -0.118208D-01
     25  0.121648D-02 -0.389728D-03 -0.315328D-03 -0.100580D-01 -0.687572D-02
     26 -0.248838D-02 -0.426495D-03  0.325836D-03 -0.138464D-02  0.850857D-02
     27  0.731713D-02 -0.656332D-02  0.361320D-03 -0.135237D-02 -0.372687D-02
     28  0.220727D-03  0.613391D-02  0.416167D-04  0.162768D-02 -0.266669D-02
     29  0.153382D-02 -0.676257D-02  0.626092D-02  0.852968D-03  0.368450D-03
               11            12            13            14            15 
     11  0.489589D-01
     12 -0.280375D-02  0.152938D+00
     13 -0.210294D-02 -0.392379D-01  0.718274D-01
     14  0.214210D-02 -0.335505D-01 -0.396144D-02  0.623371D-01
     15  0.153502D-02 -0.478835D-01 -0.258811D-01  0.150830D-01  0.653833D-01
     16  0.898553D-03 -0.503534D-01  0.161114D-01 -0.236370D-01 -0.251269D-04
     17  0.223401D-03  0.209913D-01 -0.177190D-01 -0.153771D-01 -0.882381D-02
     18 -0.408228D-02  0.375884D-01 -0.548175D-02 -0.628484D-02 -0.149127D-01
     19 -0.527180D-03  0.382090D-02 -0.102504D-02 -0.860696D-03 -0.318395D-03
     20  0.180729D-02  0.191637D-02  0.289294D-02 -0.463390D-02 -0.194294D-01
     21  0.816012D-03  0.911668D-02 -0.877385D-02 -0.805257D-02  0.166437D-01
     22  0.109599D-02 -0.723886D-02  0.885727D-02  0.664569D-02 -0.169916D-03
     23  0.128386D-04 -0.173258D-02  0.660281D-03  0.389435D-03 -0.172497D-01
     24 -0.978440D-03  0.546774D-02 -0.110065D-01 -0.302923D-02  0.188234D-01
     25 -0.698463D-03 -0.108878D-01  0.662462D-02  0.116690D-01  0.200977D-02
     26 -0.190422D-02 -0.194776D-02  0.236079D-01 -0.204515D-01 -0.500870D-02
     27  0.145208D-02 -0.185293D-01 -0.248405D-01 -0.419887D-02  0.168692D-01
     28 -0.473179D-03  0.212773D-01  0.416740D-02  0.209393D-01 -0.161823D-01
     29 -0.317998D-03  0.222489D-02  0.379862D-03 -0.158498D-02 -0.539663D-03
               16            17            18            19            20 
     16  0.646818D-01
     17 -0.908764D-02  0.297208D-01
     18 -0.150634D-01  0.511160D-02  0.397225D+00
     19 -0.145878D-02 -0.897931D-04  0.144511D-01  0.255610D+00
     20  0.187539D-01  0.407804D-03  0.321420D-03 -0.539726D-03  0.197372D-01
     21 -0.752672D-03 -0.852501D-02  0.740808D-03  0.670491D-03 -0.853644D-03
     22 -0.158304D-01  0.819786D-02  0.158297D-03 -0.511958D-03 -0.133996D-02
     23  0.180004D-01 -0.197746D-03 -0.483856D-03 -0.537221D-03  0.915514D-02
     24 -0.150621D-02 -0.913056D-02 -0.644687D-04  0.672996D-03 -0.114357D-01
     25 -0.165839D-01  0.759231D-02 -0.646980D-03 -0.509453D-03 -0.119220D-01
     26  0.467081D-02 -0.746692D-03 -0.281596D-03  0.126880D-02 -0.411793D-02
     27  0.155923D-01  0.133520D-01 -0.756951D-02  0.388963D-03  0.270310D-02
     28 -0.165025D-01 -0.120733D-01  0.621075D-02  0.170049D-02  0.268840D-02
     29 -0.697368D-03  0.258735D-03  0.158278D-01  0.919031D-02 -0.284855D-03
               21            22            23            24            25 
     21  0.192779D-01
     22 -0.519826D-03  0.181354D-01
     23 -0.122121D-01 -0.118501D-01  0.208270D-01
     24  0.791943D-02 -0.110299D-01 -0.540248D-03  0.188149D-01
     25 -0.118783D-01  0.762534D-02 -0.178240D-03 -0.134459D-03  0.193691D-01
     26  0.254013D-02  0.354672D-02 -0.631130D-02  0.346754D-03  0.135335D-02
     27 -0.215353D-02 -0.276138D-02  0.415512D-02 -0.701508D-03 -0.130936D-02
     28 -0.213883D-02 -0.232758D-02  0.393879D-02 -0.888437D-03 -0.107719D-02
     29  0.564608D-03  0.192254D-03 -0.674080D-03  0.175383D-03 -0.196971D-03
               26            27            28            29 
     26  0.192978D-01
     27 -0.534214D-02  0.261991D-01
     28 -0.416040D-02 -0.125656D-01  0.247339D-01
     29  0.579326D-03 -0.914213D-03 -0.406040D-03  0.806823D-02
 Leave Link  716 at Wed Feb 23 13:53:30 2022, MaxMem= 17179869184 cpu:               0.7 elap:               0.1
 (Enter /home/saurabh/gaussian/g16/l103.exe)

 GradGradGradGradGradGradGradGradGradGradGradGradGradGradGradGradGradGrad
 Berny optimization.
 Red2BG is reusing G-inverse.
 Internal  Forces:  Max     0.098811750 RMS     0.020791077
 Search for a local minimum.
 Step number   1 out of a maximum of  100
 All quantities printed in internal units (Hartrees-Bohrs-Radians)
 RMS Force = .20791D-01 SwitMx=.10000D-02 MixMth= 1
 Mixed Optimization -- RFO/linear search
 Second derivative matrix not updated -- analytic derivatives used.
 ITU=  0
     Eigenvalues ---    0.00273   0.00642   0.00858   0.03625   0.05812
     Eigenvalues ---    0.06841   0.09314   0.11234   0.12964   0.15270
     Eigenvalues ---    0.20766   0.23334   0.26545   0.28248   0.28883
     Eigenvalues ---    0.30141   0.30481   0.33888   0.39801   0.41091
     Eigenvalues ---    0.64916
 RFO step:  Lambda=-3.01272825D-02 EMin= 2.73412811D-03
 Linear search not attempted -- first point.
 Iteration  1 RMS(Cart)=  0.06005021 RMS(Int)=  0.00715506
 Iteration  2 RMS(Cart)=  0.00584133 RMS(Int)=  0.00475217
 Iteration  3 RMS(Cart)=  0.00005358 RMS(Int)=  0.00475194
 Iteration  4 RMS(Cart)=  0.00000087 RMS(Int)=  0.00475194
 ITry= 1 IFail=0 DXMaxC= 1.26D-01 DCOld= 1.00D+10 DXMaxT= 3.00D-01 DXLimC= 3.00D+00 Rises=F
 Variable       Old X    -DE/DX   Delta X   Delta X   Delta X     New X
                                 (Linear)    (Quad)   (Total)
    R1        2.86969  -0.01032   0.00000  -0.06453  -0.06453   2.80516
    R2        2.09857  -0.01339   0.00000  -0.04857  -0.04857   2.05000
    R3        2.09907  -0.01248   0.00000  -0.04755  -0.04755   2.05152
    R4        2.65165   0.01344   0.00000   0.03406   0.03406   2.68571
    R5        2.10307  -0.01038   0.00000  -0.03306  -0.03306   2.07002
    R6        2.10417  -0.00713   0.00000  -0.01894  -0.01894   2.08523
    R7        2.49466   0.09881   0.00000   0.16531   0.16531   2.65997
    R8        1.87407  -0.01958   0.00000  -0.05050  -0.05050   1.82357
    A1        1.92063   0.01178   0.00000   0.08819   0.07612   1.99675
    A2        1.92432   0.01825   0.00000   0.11017   0.09824   2.02256
    A3        1.90567  -0.00197   0.00000   0.08168   0.06473   1.97039
    A4        1.90289   0.00154   0.00000  -0.01167  -0.01164   1.89125
    A5        1.88610   0.00760   0.00000   0.05353   0.05332   1.93942
    A6        1.89331  -0.00034   0.00000   0.02183   0.02163   1.91494
    A7        1.92421  -0.00270   0.00000  -0.00571  -0.00592   1.91829
    A8        1.92791  -0.00170   0.00000  -0.01532  -0.01535   1.91256
    A9        1.92847  -0.00407   0.00000  -0.04036  -0.04108   1.88739
   A10        1.85035   0.02372   0.00000   0.01740   0.01740   1.86776
   A11        1.83016   0.00225   0.00000  -0.04439  -0.04439   1.78577
    D1       -3.12941   0.00670   0.00000   0.09328   0.09680  -3.03262
    D2       -1.03780   0.00877   0.00000   0.11101   0.11449  -0.92332
    D3        1.05345   0.00805   0.00000   0.10571   0.10955   1.16300
    D4        1.05066  -0.01011   0.00000  -0.13563  -0.13934   0.91132
    D5       -3.14092  -0.00804   0.00000  -0.11790  -0.12165   3.02062
    D6       -1.04966  -0.00876   0.00000  -0.12320  -0.12659  -1.17625
    D7        3.13426   0.00285   0.00000   0.01453   0.01446  -3.13447
    D8        1.06638  -0.00575   0.00000  -0.04029  -0.04001   1.02638
    D9       -1.07002   0.00236   0.00000   0.02483   0.02462  -1.04540
   D10        1.88876  -0.00064   0.00000   0.01587   0.01587   1.90463
         Item               Value     Threshold  Converged?
 Maximum Force            0.098812     0.000450     NO 
 RMS     Force            0.020791     0.000300     NO 
 Maximum Displacement     0.126377     0.001800     NO 
 RMS     Displacement     0.058393     0.001200     NO 
 Predicted change in Energy=-1.740168D-02
 Lowest energy point so far.  Saving SCF results.
 GradGradGradGradGradGradGradGradGradGradGradGradGradGradGradGradGradGrad

 Leave Link  103 at Wed Feb 23 13:53:30 2022, MaxMem= 17179869184 cpu:               0.5 elap:               0.1
 (Enter /home/saurabh/gaussian/g16/l202.exe)
                          Input orientation:                          
 ---------------------------------------------------------------------
 Center     Atomic      Atomic             Coordinates (Angstroms)
 Number     Number       Type             X           Y           Z
 ---------------------------------------------------------------------
      1          6           0        1.651964   -0.129318   -0.078073
      2          6           0        0.298779    0.475575    0.002677
      3          1           0        2.466047    0.586596   -0.038640
      4          1           0        1.789101   -0.882871   -0.847438
      5          8           0       -0.656289   -0.573547    0.086590
      6          1           0        0.210818    1.130843    0.876062
      7          1           0        0.106405    1.079438   -0.900624
      8          8           0       -1.926296    0.029876    0.152110
      9          1           0       -2.299419   -0.181363   -0.712394
 ---------------------------------------------------------------------
                    Distance matrix (angstroms):
                    1          2          3          4          5
     1  C    0.000000
     2  C    1.484428   0.000000
     3  H    1.084813   2.170503   0.000000
     4  H    1.085620   2.188409   1.808797   0.000000
     5  O    2.356372   1.421216   3.333257   2.635911   0.000000
     6  H    2.138990   1.095406   2.493781   3.084878   2.068836
     7  H    2.127542   1.103454   2.560044   2.585528   2.070906
     8  O    3.589188   2.274189   4.431591   3.954286   1.407597
     9  H    4.002312   2.773721   4.873743   4.150464   1.868705
                    6          7          8          9
     6  H    0.000000
     7  H    1.780494   0.000000
     8  O    2.510675   2.518273   0.000000
     9  H    3.247517   2.722689   0.964992   0.000000
 Stoichiometry    C2H5O2(2)
 Framework group  C1[X(C2H5O2)]
 Deg. of freedom    21
 Full point group                 C1      NOp   1
 RotChk:  IX=0 Diff= 3.28D-02
 Largest Abelian subgroup         C1      NOp   1
 Largest concise Abelian subgroup C1      NOp   1
                         Standard orientation:                         
 ---------------------------------------------------------------------
 Center     Atomic      Atomic             Coordinates (Angstroms)
 Number     Number       Type             X           Y           Z
 ---------------------------------------------------------------------
      1          6           0       -1.848345   -0.192208   -0.062448
      2          6           0       -0.522449    0.468187    0.034519
      3          1           0       -2.691367    0.490320   -0.045414
      4          1           0       -1.993790   -1.059050    0.574735
      5          8           0        0.483745   -0.519277   -0.145328
      6          1           0       -0.415536    1.252014   -0.723174
      7          1           0       -0.410224    0.933748    1.028636
      8          8           0        1.725890    0.134223   -0.038827
      9          1           0        2.058603   -0.192473    0.806029
 ---------------------------------------------------------------------
 Rotational constants (GHZ):          34.9293600           4.4215160           4.1102212
 Leave Link  202 at Wed Feb 23 13:53:30 2022, MaxMem= 17179869184 cpu:               0.2 elap:               0.0
 (Enter /home/saurabh/gaussian/g16/l301.exe)
 Standard basis: CC-pVTZ+d (5D, 7F)
 Ernie: Thresh=  0.10000D-02 Tol=  0.10000D-05 Strict=F.
 Ernie:  12 primitive shells out of 144 were deleted.
 There are   215 symmetry adapted cartesian basis functions of A   symmetry.
 There are   190 symmetry adapted basis functions of A   symmetry.
   190 basis functions,   293 primitive gaussians,   215 cartesian basis functions
    17 alpha electrons       16 beta electrons
       nuclear repulsion energy       124.2379886779 Hartrees.
 IExCor=  402 DFT=T Ex+Corr=B3LYP ExCW=0 ScaHFX=  0.200000
 ScaDFX=  0.800000  0.720000  1.000000  0.810000 ScalE2=  1.000000  1.000000
 IRadAn=      5 IRanWt=     -1 IRanGd=            0 ICorTp=0 IEmpDi=  4
 NAtoms=    9 NActive=    9 NUniq=    9 SFac= 1.00D+00 NAtFMM=   60 NAOKFM=F Big=F
 Integral buffers will be    131072 words long.
 Raffenetti 2 integral format.
 Two-electron integral symmetry is turned on.
 Leave Link  301 at Wed Feb 23 13:53:30 2022, MaxMem= 17179869184 cpu:               1.3 elap:               0.1
 (Enter /home/saurabh/gaussian/g16/l302.exe)
 NPDir=0 NMtPBC=     1 NCelOv=     1 NCel=       1 NClECP=     1 NCelD=      1
         NCelK=      1 NCelE2=     1 NClLst=     1 CellRange=     0.0.
 One-electron integrals computed using PRISM.
 One-electron integral symmetry used in STVInt
 NBasis=   190 RedAO= T EigKep=  1.11D-03  NBF=   190
 NBsUse=   190 1.00D-06 EigRej= -1.00D+00 NBFU=   190
 Precomputing XC quadrature grid using
 IXCGrd= 4 IRadAn=           5 IRanWt=          -1 IRanGd=           0 AccXCQ= 0.00D+00.
 Generated NRdTot=       0 NPtTot=           0 NUsed=           0 NTot=          32
 NSgBfM=   215   215   215   215   215 MxSgAt=     9 MxSgA2=     9.
 Leave Link  302 at Wed Feb 23 13:53:30 2022, MaxMem= 17179869184 cpu:               3.9 elap:               0.2
 (Enter /home/saurabh/gaussian/g16/l303.exe)
 DipDrv:  MaxL=1.
 Leave Link  303 at Wed Feb 23 13:53:30 2022, MaxMem= 17179869184 cpu:               0.6 elap:               0.1
 (Enter /home/saurabh/gaussian/g16/l401.exe)
 Initial guess from the checkpoint file:  "CH2CH2OOH_w1u.chk"
 B after Tr=     0.000000   -0.000000   -0.000000
         Rot=    0.999993   -0.003454   -0.000153    0.001635 Ang=  -0.44 deg.
 Guess basis will be translated and rotated to current coordinates.
 JPrj=2 DoOrth=T DoCkMO=T.
 Initial guess <Sx>= 0.0000 <Sy>= 0.0000 <Sz>= 0.5000 <S**2>= 0.7529 S= 0.5015
 Generating alternative initial guess.
 ExpMin= 1.03D-01 ExpMax= 1.53D+04 ExpMxC= 5.22D+02 IAcc=3 IRadAn=         5 AccDes= 0.00D+00
 Harris functional with IExCor=  402 and IRadAn=       5 diagonalized for initial guess.
 HarFok:  IExCor=  402 AccDes= 0.00D+00 IRadAn=         5 IDoV= 1 UseB2=F ITyADJ=14
 ICtDFT=  3500011 ScaDFX=  1.000000  1.000000  1.000000  1.000000
 FoFCou: FMM=F IPFlag=           0 FMFlag=      100000 FMFlg1=           0
         NFxFlg=           0 DoJE=T BraDBF=F KetDBF=T FulRan=T
         wScrn=  0.000000 ICntrl=       500 IOpCl=  0 I1Cent=   200000004 NGrid=           0
         NMat0=    1 NMatS0=      1 NMatT0=    0 NMatD0=    1 NMtDS0=    0 NMtDT0=    0
 Petite list used in FoFCou.
 Harris En= -229.585777218583    
 Leave Link  401 at Wed Feb 23 13:53:31 2022, MaxMem= 17179869184 cpu:               9.5 elap:               0.5
 (Enter /home/saurabh/gaussian/g16/l502.exe)
 Keep R1 and R2 ints in memory in canonical form, NReq=352202282.
 FoFCou: FMM=F IPFlag=           0 FMFlag=           0 FMFlg1=           0
         NFxFlg=           0 DoJE=F BraDBF=F KetDBF=F FulRan=T
         wScrn=  0.000000 ICntrl=       600 IOpCl=  0 I1Cent=           0 NGrid=           0
         NMat0=    1 NMatS0=  18145 NMatT0=    0 NMatD0=    1 NMtDS0=    0 NMtDT0=    0
 Symmetry not used in FoFCou.
 Two-electron integral symmetry not used.
 UHF open shell SCF:
 Using DIIS extrapolation, IDIIS=  1040.
 NGot= 17179869184 LenX= 16850510632 LenY= 16850463966
 Requested convergence on RMS density matrix=1.00D-08 within1000 cycles.
 Requested convergence on MAX density matrix=1.00D-06.
 Requested convergence on             energy=1.00D-06.
 No special actions if energy rises.
 Integral accuracy reduced to 1.0D-05 until final iterations.

 Cycle   1  Pass 0  IDiag  1:
 E= -229.578307077611    
 DIIS: error= 6.72D-03 at cycle   1 NSaved=   1.
 NSaved= 1 IEnMin= 1 EnMin= -229.578307077611     IErMin= 1 ErrMin= 6.72D-03
 ErrMax= 6.72D-03  0.00D+00 EMaxC= 1.00D-01 BMatC= 3.19D-02 BMatP= 3.19D-02
 IDIUse=3 WtCom= 9.33D-01 WtEn= 6.72D-02
 Coeff-Com:  0.100D+01
 Coeff-En:   0.100D+01
 Coeff:      0.100D+01
 Gap=     0.884 Goal=   None    Shift=    0.000
 Gap=     0.905 Goal=   None    Shift=    0.000
 GapD=    0.884 DampG=2.000 DampE=1.000 DampFc=2.0000 IDamp=-1.
 RMSDP=4.49D-04 MaxDP=8.96D-03              OVMax= 3.33D-02

 Cycle   2  Pass 0  IDiag  1:
 E= -229.586451317625     Delta-E=       -0.008144240014 Rises=F Damp=F
 DIIS: error= 1.22D-03 at cycle   2 NSaved=   2.
 NSaved= 2 IEnMin= 2 EnMin= -229.586451317625     IErMin= 2 ErrMin= 1.22D-03
 ErrMax= 1.22D-03  0.00D+00 EMaxC= 1.00D-01 BMatC= 2.09D-03 BMatP= 3.19D-02
 IDIUse=3 WtCom= 9.88D-01 WtEn= 1.22D-02
 Coeff-Com:  0.607D-01 0.939D+00
 Coeff-En:   0.000D+00 0.100D+01
 Coeff:      0.600D-01 0.940D+00
 Gap=     0.261 Goal=   None    Shift=    0.000
 Gap=     0.197 Goal=   None    Shift=    0.000
 RMSDP=1.55D-04 MaxDP=7.98D-03 DE=-8.14D-03 OVMax= 1.11D-02

 Cycle   3  Pass 0  IDiag  1:
[...]
 Alpha virt. eigenvalues --   76.01071  86.41008  86.79414 168.08250 168.19245
 Alpha virt. eigenvalues --  309.48191 309.79615 614.67132 614.763771123.37239
 Alpha virt. eigenvalues -- 1123.637472492.151612492.226554392.764794392.96274
 Alpha virt. eigenvalues -- ****************************************
  Beta  occ. eigenvalues --  -20.63326 -20.63212 -11.29337 -11.22275  -1.46782
  Beta  occ. eigenvalues --   -1.22595  -0.97342  -0.80301  -0.71676  -0.65070
  Beta  occ. eigenvalues --   -0.64835  -0.60186  -0.54938  -0.51967  -0.48929
  Beta  occ. eigenvalues --   -0.44978
  Beta virt. eigenvalues --    0.11542   0.14591   0.16221   0.19147   0.20385
  Beta virt. eigenvalues --    0.23216   0.26230   0.31463   0.34329   0.39909
  Beta virt. eigenvalues --    0.46849   0.51606   0.53872   0.55381   0.57209
  Beta virt. eigenvalues --    0.59186   0.61678   0.63092   0.64499   0.65356
  Beta virt. eigenvalues --    0.66948   0.68408   0.71367   0.76634   0.79123
  Beta virt. eigenvalues --    0.82475   0.83538   0.87584   0.88030   0.90509
  Beta virt. eigenvalues --    0.99535   1.00991   1.05432   1.08517   1.11227
  Beta virt. eigenvalues --    1.16923   1.19113   1.21644   1.22456   1.25255
  Beta virt. eigenvalues --    1.27771   1.32133   1.34338   1.36010   1.38079
  Beta virt. eigenvalues --    1.42936   1.47529   1.51813   1.52279   1.52714
  Beta virt. eigenvalues --    1.53324   1.57116   1.58003   1.62276   1.71055
  Beta virt. eigenvalues --    1.78672   1.97421   2.00201   2.04135   2.11840
  Beta virt. eigenvalues --    2.13528   2.19714   2.24045   2.29029   2.32196
  Beta virt. eigenvalues --    2.36045   2.37063   2.39931   2.46427   2.50808
  Beta virt. eigenvalues --    2.54811   2.67093   2.68281   2.73389   2.86081
  Beta virt. eigenvalues --    2.93951   2.96822   3.00189   3.03671   3.08487
  Beta virt. eigenvalues --    3.09260   3.15516   3.18993   3.20007   3.25175
  Beta virt. eigenvalues --    3.26055   3.29851   3.32292   3.34721   3.36108
  Beta virt. eigenvalues --    3.42320   3.42988   3.48876   3.52894   3.55805
  Beta virt. eigenvalues --    3.58027   3.58996   3.60730   3.63149   3.68917
  Beta virt. eigenvalues --    3.70983   3.72684   3.75470   3.82319   3.88120
  Beta virt. eigenvalues --    3.92191   3.94696   3.99556   4.02237   4.04181
  Beta virt. eigenvalues --    4.05272   4.09128   4.10326   4.15580   4.18042
  Beta virt. eigenvalues --    4.24933   4.27445   4.29067   4.31252   4.36867
  Beta virt. eigenvalues --    4.37625   4.40379   4.40887   4.46796   4.52623
  Beta virt. eigenvalues --    4.57751   4.66326   4.67692   4.76495   4.87574
  Beta virt. eigenvalues --    4.89670   4.94310   4.95451   5.02045   5.08038
  Beta virt. eigenvalues --    5.14272   5.16146   5.17396   5.28653   5.29205
  Beta virt. eigenvalues --    5.33134   5.35527   5.39329   5.45576   5.52405
  Beta virt. eigenvalues --    5.55132   5.59642   5.66379   5.72124   5.74899
  Beta virt. eigenvalues --    5.83074   5.96518   6.04345   6.08534   6.16097
  Beta virt. eigenvalues --    6.25869   6.27302   6.33526   6.43540   6.63806
  Beta virt. eigenvalues --    6.72389   6.82075   6.86232   6.97085   7.03311
  Beta virt. eigenvalues --    7.10892   7.15631   7.22458   7.28179   7.40789
  Beta virt. eigenvalues --    7.54447   7.71772   7.96749   8.38086   8.66086
  Beta virt. eigenvalues --    9.22936   9.31726   9.34958   9.37678   9.49083
  Beta virt. eigenvalues --   10.06316  10.16588  10.19082  10.32813  10.37117
  Beta virt. eigenvalues --   10.44475  10.49756  10.54280  10.58412  10.61275
  Beta virt. eigenvalues --   10.74853  10.77235  10.81278  10.83708  10.95225
  Beta virt. eigenvalues --   11.02091  11.07159  11.15905  11.22883  11.30049
  Beta virt. eigenvalues --   11.37286  11.42268  11.45038  11.55850  12.23174
  Beta virt. eigenvalues --   12.38081  12.51466  12.78599  12.87436  13.17593
  Beta virt. eigenvalues --   13.23064  15.46673  15.56815  15.61771  15.95600
  Beta virt. eigenvalues --   16.26851  16.71066  18.32146  18.37846  18.44422
  Beta virt. eigenvalues --   18.55825  18.60705  18.72790  18.83745  18.86019
  Beta virt. eigenvalues --   18.96373  18.99516  19.05967  19.31044  19.48068
  Beta virt. eigenvalues --   19.84172  22.21355  22.61819  22.62861  22.69610
  Beta virt. eigenvalues --   22.71809  22.77090  22.80545  22.81577  22.89985
  Beta virt. eigenvalues --   22.99405  23.18680  23.44289  36.13324  36.21655
  Beta virt. eigenvalues --   36.25087  36.29287  36.33209  36.68606  36.70828
  Beta virt. eigenvalues --   36.83123  36.90092  37.32709  41.27345  41.69043
  Beta virt. eigenvalues --   41.85234  41.89110  41.98560  42.00146  47.28412
  Beta virt. eigenvalues --   47.40652  62.20643  62.24403  62.28107  62.28647
  Beta virt. eigenvalues --   62.31687  75.00368  75.03798  75.08009  75.21048
  Beta virt. eigenvalues --   75.22042  75.23500  75.26143  75.31499  75.33494
  Beta virt. eigenvalues --   75.34505  75.38373  75.45364  75.46918  75.62792
  Beta virt. eigenvalues --   75.75834  76.01095  86.41021  86.79441 168.08349
  Beta virt. eigenvalues --  168.19348 309.48197 309.79629 614.67159 614.76416
  Beta virt. eigenvalues -- 1123.372411123.637542492.151662492.226714392.76479
  Beta virt. eigenvalues -- 4392.96277****************************************
          Condensed to atoms (all electrons):
               1          2          3          4          5          6
     1  C    5.061177   0.368537   0.420901   0.414551  -0.044896  -0.040041
     2  C    0.368537   4.346444  -0.032434  -0.031650   0.292782   0.429419
     3  H    0.420901  -0.032434   0.564424  -0.020295   0.001853  -0.001813
     4  H    0.414551  -0.031650  -0.020295   0.563661   0.004563   0.006760
     5  O   -0.044896   0.292782   0.001853   0.004563   8.031294  -0.037808
     6  H   -0.040041   0.429419  -0.001813   0.006760  -0.037808   0.680223
     7  H   -0.044364   0.414536   0.002040  -0.003166  -0.053364  -0.060074
     8  O    0.006663  -0.033286  -0.000178  -0.000300   0.078796   0.000766
     9  H   -0.001070  -0.002437   0.000015   0.000030  -0.024799  -0.000084
               7          8          9
     1  C   -0.044364   0.006663  -0.001070
     2  C    0.414536  -0.033286  -0.002437
     3  H    0.002040  -0.000178   0.000015
     4  H   -0.003166  -0.000300   0.000030
     5  O   -0.053364   0.078796  -0.024799
     6  H   -0.060074   0.000766  -0.000084
     7  H    0.737255   0.003893   0.002563
     8  O    0.003893   7.872486   0.328430
     9  H    0.002563   0.328430   0.452966
          Atomic-Atomic Spin Densities.
               1          2          3          4          5          6
     1  C    1.285150  -0.036113   0.008397   0.007022  -0.010595  -0.008873
     2  C   -0.036113  -0.095658  -0.002029  -0.002465   0.001406   0.004996
     3  H    0.008397  -0.002029  -0.104824   0.006809  -0.000099   0.001097
     4  H    0.007022  -0.002465   0.006809  -0.098293   0.000853  -0.000017
     5  O   -0.010595   0.001406  -0.000099   0.000853   0.023505   0.003201
     6  H   -0.008873   0.004996   0.001097  -0.000017   0.003201   0.020748
     7  H   -0.026423   0.010293  -0.000404  -0.000189  -0.009031  -0.008547
     8  O    0.000709   0.000645   0.000006  -0.000048  -0.001438  -0.000396
     9  H   -0.000025  -0.000196  -0.000002   0.000009   0.000167   0.000089
               7          8          9
     1  C   -0.026423   0.000709  -0.000025
     2  C    0.010293   0.000645  -0.000196
     3  H   -0.000404   0.000006  -0.000002
     4  H   -0.000189  -0.000048   0.000009
     5  O   -0.009031  -0.001438   0.000167
     6  H   -0.008547  -0.000396   0.000089
     7  H    0.082779   0.001450  -0.000425
     8  O    0.001450   0.006914  -0.000093
     9  H   -0.000425  -0.000093   0.000203
 Mulliken charges and spin densities:
               1          2
     1  C   -0.141459   1.219250
     2  C    0.248089  -0.119122
     3  H    0.065487  -0.091051
     4  H    0.065848  -0.086319
     5  O   -0.248421   0.007968
     6  H    0.022654   0.012298
     7  H    0.000683   0.049502
     8  O   -0.257269   0.007748
     9  H    0.244387  -0.000274
 Sum of Mulliken charges =  -0.00000   1.00000
 Mulliken charges and spin densities with hydrogens summed into heavy atoms:
               1          2
     1  C   -0.010124   1.041880
     2  C    0.271426  -0.057322
     5  O   -0.248421   0.007968
     8  O   -0.012881   0.007474
 Electronic spatial extent (au):  <R**2>=            320.7465
 Charge=             -0.0000 electrons
 Dipole moment (field-independent basis, Debye):
    X=             -0.8174    Y=              0.4344    Z=              1.6572  Tot=              1.8982
 Quadrupole moment (field-independent basis, Debye-Ang):
   XX=            -21.9247   YY=            -24.4345   ZZ=            -23.8214
   XY=             -1.6824   XZ=              3.5903   YZ=             -1.5155
 Traceless Quadrupole moment (field-independent basis, Debye-Ang):
   XX=              1.4688   YY=             -1.0409   ZZ=             -0.4279
   XY=             -1.6824   XZ=              3.5903   YZ=             -1.5155
 Octapole moment (field-independent basis, Debye-Ang**2):
  XXX=             13.6919  YYY=             -1.3650  ZZZ=              1.2415  XYY=              2.2112
  XXY=             -4.0452  XXZ=              5.8194  XZZ=              6.6297  YZZ=             -0.0687
  YYZ=              0.5078  XYZ=             -0.0714
 Hexadecapole moment (field-independent basis, Debye-Ang**3):
 XXXX=           -285.5935 YYYY=            -56.8560 ZZZZ=            -33.2126 XXXY=            -10.5474
 XXXZ=             22.5425 YYYX=             -0.4835 YYYZ=             -2.1611 ZZZX=              3.6327
 ZZZY=             -1.0514 XXYY=            -59.2577 XXZZ=            -55.2123 YYZZ=            -14.3221
 XXYZ=             -5.7851 YYXZ=             -0.0240 ZZXY=             -1.7508
 N-N= 1.231199825119D+02 E-N=-7.858778950128D+02  KE= 2.290818778727D+02
 Leave Link  601 at Wed Feb 23 16:41:24 2022, MaxMem= 17179869184 cpu:               1.6 elap:               0.1
 (Enter /home/saurabh/gaussian/g16/l9999.exe)
 Unable to Open any file for archive entry.
 1\1\GINC-MEDIAWIKI\SP\UCCSD(T)-Full\MTSmall\C2H5O2(2)\SAURABH\23-Feb-2
 022\0\\#P Geom=AllCheck Guess=TCheck SCRF=Check CCSD(T,Full)/MTSmall i
 nt=dkh\\CH2CH2OOH_w1u\\0,2\C,0,1.652621692,-0.0416150598,-0.2388755318
 \C,0,0.307793274,0.53950532,-0.0506890627\H,0,2.5207153714,0.426606640
 3,0.197902617\H,0,1.7814864461,-0.9136608339,-0.8625856959\O,0,-0.6148
 829223,-0.545862985,0.0762450746\H,0,0.260131445,1.1761110045,0.837873
 5116\H,0,0.0078676767,1.1551347456,-0.9134366745\O,0,-1.9423261845,0.0
 391851331,0.1552610447\H,0,-2.3322967983,-0.3001739648,-0.6614252829\\
 Version=ES64L-G16RevC.01\State=2-A\HF=-228.428589\MP2=-229.4606932\MP3
 =-229.4853498\MP4D=-229.5045706\MP4DQ=-229.4838347\PUHF=-228.4320788\P
 MP2-0=-229.4628978\PMP3-0=-229.4866055\MP4SDQ=-229.4931478\CCSD=-229.4
 91802\CCSD(T)=-229.5279957\S2=0.762988\S2-1=0.753373\S2A=0.750108\RMSD
 =9.226e-09\PG=C01 [X(C2H5O2)]\\@
 The archive entry for this job was punched.


 WE HAVE SEEN THAT MAN ON THE AVERAGE DOES NOT LIVE ABOVE
 TWO-AND-TWENTY YEARS.  DURING THESE TWO AND TWENTY
 YEARS HE IS LIABLE TO TWO AND TWENTY THOUSAND EVILS,
 MANY OF WHICH ARE INCURABLE.  YET EVEN IN THIS DREADFUL STATE
 MEN STILL STRUT AND POSE ON THE STAGE OF LIFE.
 THEY MAKE LOVE AT THE RISK OF DESTRUCTION,
 INTRIGUE, CARRY ON WAR, AND FORM PROJECTS, JUST AS IF THEY
 WERE TO LIVE IN LUXURY AND HAPPINESS FOR A THOUSAND
 AGES.

                                              -- VOLTAIRE
 Diagonal vibrational polarizability:
        0.0000000       0.0000000       0.0000000

 W1 and W2 theory:
 J.M.L. Martin and G. de Oliveira, JCP 111, 1843 (1999)
 S. Parthiban and J.M.L. Martin, JCP 114, 6014 (2001)

 W1U   Energy Components

                         SCF                 CCSD               CCSD(T)
 AVDZ+2d            -228.240472         -228.949387         -228.972576
 AVTZ+2df           -228.297831         -229.141679         -229.176085
 AVQZ+2df           -228.312124         -229.198557

                        NR/FC              DKH/Full
 MTsmall            -229.184191         -229.527996

 Extrapolated Energy Components

                         SCF                 CCSD               CCSD(T)
                    -228.316571           -0.914353           -0.038575

 Core + Scalar Relativistic Component
                      -0.343804

 W1U   Electronic Energy          -229.613304

 Temperature=                298.150000 Pressure=                        1.000000
 E(ZPE)=                       0.066699 E(Thermal)=                      0.072659
 W1U  (0 K)=                -229.546605 W1U   Energy=                 -229.540644
 W1U   Enthalpy=            -229.539700 W1U   Free Energy=            -229.575505

 W1U spin correction:
 G.P.F. Wood, L. Radom, G.A. Petersson, E.C. Barnes, M.J. Frisch
 and J.A. Montgomery, Jr., JCP 125, 94106 (2006).

 DE(Spin)=                         -0.000083

 W1Usc Electronic Energy          -229.613386

 Temperature=                298.150000 Pressure=                        1.000000
 E(ZPE)=                       0.066699 E(Thermal)=                      0.072659
 W1Usc(0 K)=                -229.546688 W1Usc Energy=                 -229.540727
 W1Usc Enthalpy=            -229.539783 W1Usc Free Energy=            -229.575588
 Unable to Open any file for archive entry.
 1\1\GINC-MEDIAWIKI\Mixed\W1Usc\W1Usc\C2H5O2(2)\SAURABH\23-Feb-2022\0\\
 #p w1u scf(verytight, maxcycles=1000) opt(calcfc, maxcyc=1000) int(gri
 d=ultrafine)\\CH2CH2OOH_w1u\\0,2\C,0,1.652621692,-0.0416150598,-0.2388
 755318\C,0,0.307793274,0.53950532,-0.0506890627\H,0,2.5207153714,0.426
 6066403,0.197902617\H,0,1.7814864461,-0.9136608339,-0.8625856959\O,0,-
 0.6148829223,-0.545862985,0.0762450746\H,0,0.260131445,1.1761110045,0.
 8378735116\H,0,0.0078676767,1.1551347456,-0.9134366745\O,0,-1.94232618
 45,0.0391851331,0.1552610447\H,0,-2.3322967983,-0.3001739648,-0.661425
 2829\\Version=ES64L-G16RevC.01\State=2-A\HF/AVTZ+2d1f=-228.2978311\HF/
 AVQZ+2d1f=-228.3121236\HFExt=-228.3165705\CCSD/AVTZ+2d1f=-229.1416794\
 CCSD/AVQZ+2d1f=-229.1985569\CCSDExt=-0.9143535\CCSD(T)/AVDZ+2d=-228.97
 2576\CCSD(T)/AVTZ+2d1f=0.\TExt=-0.0385752\CCSD(T)/MTsmall=-229.1841913
 \DK-CCSD(T,FU)/MTsmall=-229.5279957\Core+Rel=-0.3438044\W1=-229.546605
 \W1sc=-229.5466876\FreqCoord=3.1230023854,-0.0786410657,-0.451409333,0
 .5816449908,1.0195172976,-0.0957884461,4.7634616899,0.8061697132,0.373
 9817454,3.3665214778,-1.7265687468,-1.6300507242,-1.1619603217,-1.0315
 315433,0.1440823093,0.4915771874,2.2225276906,1.583351464,0.0148677541
 ,2.1828883061,-1.7261451469,-3.6704645333,0.0740491698,0.2934008522,-4
 .4074021901,-0.5672465831,-1.2499126365\PG=C01 [X(C2H5O2)]\NImag=0\\0.
 56248441,0.00112185,0.42838655,0.06997405,0.26299750,0.25497224,-0.197
 81369,0.05916305,0.01035318,0.45139018,0.05513084,-0.10319719,-0.03125
 456,-0.06089266,0.48936693,0.01821596,-0.03114172,-0.06480559,0.010198
 87,0.05271531,0.53543720,-0.24284165,-0.10062529,-0.09979535,-0.012081
 68,-0.01423742,-0.00988216,0.25270258,-0.10211382,-0.09588532,-0.07563
 100,0.01088993,0.01046844,0.00396962,0.10781295,0.09286193,-0.10180548
 ,-0.07498496,-0.07456568,0.00493548,-0.00097610,0.00396041,0.10625555,
 0.07801376,0.07188926,-0.05831978,0.02911771,0.01324566,0.00107686,0.0
 2096355,0.01685425,0.00636047,-0.01792222,-0.01245969,0.05295719,0.030
 46836,-0.23016588,-0.15518112,-0.00161804,-0.00699886,-0.00898249,0.00
 366428,-0.00423998,-0.00507695,-0.03381345,0.23917680,0.01420333,-0.15
 778597,-0.12465368,-0.00014987,0.00055975,0.00228703,0.00295193,-0.007
 29290,-0.00197836,-0.01711530,0.16674686,0.12438846,-0.03834242,-0.016
 13548,0.00278278,-0.08559229,-0.07950357,0.00631319,-0.00215928,0.0008
 2450,0.00073310,0.00230458,-0.00040848,-0.00049236,0.35593753,0.003480
 21,0.01413291,0.00237241,-0.02395694,-0.18074432,0.00206197,0.00362983
 ,-0.00263481,0.00115843,0.00039680,0.00138417,-0.00097083,0.01850489,0
 .31228417,0.00334434,0.00226522,0.00125912,0.00330558,0.00690801,-0.05
 905869,-0.00044138,0.00029699,0.00000674,-0.00015902,0.00087601,-0.000
 15197,0.00058565,-0.01071129,0.06920952,-0.00170230,0.02041934,0.02367
 450,-0.05028276,0.01060346,0.01560445,0.00112167,-0.00063942,-0.000349
 78,-0.00453721,0.00183750,0.00036824,-0.00782549,-0.02454676,-0.016642
 86,0.05644645,0.00432135,-0.00818929,-0.01008304,0.00758076,-0.1195351
 9,-0.11064908,-0.00015800,0.00025222,0.00122174,0.00178502,0.00051064,
 -0.00100059,-0.01029031,-0.02850430,-0.02041236,-0.00454619,0.14345258
 ,-0.00017498,-0.00062180,-0.00069160,0.01405101,-0.11459887,-0.2231051
 7,0.00055567,-0.00014734,0.00068647,0.00025856,0.00104045,0.00050432,-
 0.00254416,0.00054734,0.01140911,-0.01273464,0.12588794,0.23473031,-0.
 01520354,0.01642289,-0.01746623,-0.05929669,0.04344904,-0.06155226,-0.
 00116154,0.00049773,0.00030408,-0.00013389,-0.00044948,0.00064796,-0.0
 0378302,-0.02469870,0.01933113,0.00313622,0.00014162,0.00144601,0.0723
 8921,0.01085096,-0.00476402,0.00689207,0.03110398,-0.10391891,0.092083
 85,0.00063324,-0.00140767,0.00070773,0.00011606,0.00033378,-0.00065437
 ,-0.00609093,-0.03218218,0.02592597,-0.00337622,0.01020138,-0.01300842
 ,-0.03453495,0.12942231,-0.00397978,-0.00137736,0.00665671,-0.04799438
 ,0.08836670,-0.19317965,0.00000727,0.00077063,-0.00017674,-0.00026231,
 0.00047154,-0.00037127,0.00435235,0.00969234,0.00221012,-0.00943061,0.
 01314914,-0.02352594,0.05738566,-0.10951964,0.20767485,-0.00722948,-0.
 00861676,-0.00300628,-0.04265773,0.02212664,0.00657931,-0.00181594,0.0
 0049324,0.00218412,0.00037862,0.00024918,-0.00044808,-0.18992117,0.056
 52397,0.01875314,0.00351188,0.00074980,-0.00100696,0.00403951,0.001780
 25,-0.00028716,0.32635986,-0.00368330,-0.00072041,-0.00047763,-0.02059
 094,0.01686925,0.00083365,-0.00083895,0.00061941,0.00007262,-0.0006036
 4,0.00000598,0.00041361,0.07001418,-0.08595267,-0.02171313,-0.00008444
 ,0.00163299,0.00049231,-0.00012096,0.00235275,-0.00171016,-0.00370865,
 0.14343771,-0.00071072,-0.00009569,0.00186174,0.00453628,0.00071104,-0
 .00284441,0.00012240,0.00013115,0.00025302,-0.00030272,0.00019137,-0.0
 0009979,-0.02047625,-0.00803667,-0.03362454,-0.00078502,0.00140757,0.0
 0021692,0.00018583,-0.00285818,0.00131997,0.14582732,0.18321932,0.4071
 2305,-0.00103153,-0.00086730,0.00023769,-0.00474219,0.00236013,-0.0023
 3162,-0.00012464,0.00015711,0.00020262,-0.00008684,0.00007012,0.000034
 14,-0.03061842,-0.00933330,-0.02807657,0.00013153,0.00041596,0.0001494
 8,0.00001374,-0.00048241,0.00020895,-0.09266555,-0.04038329,-0.1283971
 3,0.12912389,0.00042355,0.00040266,0.00036537,-0.00167915,-0.00231016,
 -0.00089112,0.00011937,-0.00003421,-0.00013629,-0.00003984,-0.00000664
 ,-0.00001556,0.02308521,0.00221705,0.01656457,0.00033274,0.00017897,0.
 00040839,-0.00070719,-0.00003745,0.00015682,-0.06959766,-0.07824501,-0
 .17466991,0.04806298,0.07783479,0.00093328,0.00074478,-0.00003328,0.00
 076384,-0.00243128,0.00130886,0.00022606,-0.00011091,-0.00007513,-0.00
 005944,-0.00008568,0.00007527,0.00874570,0.00388630,0.00874060,0.00029
 572,0.00047867,-0.00022443,-0.00028218,0.00043098,-0.00060806,-0.16859
 541,-0.16113059,-0.37420595,0.15797243,0.15821773,0.36502211\\-0.00000
 750,0.00000638,0.00000520,0.00001218,-0.00000447,-0.00000451,-0.000001
 69,0.00000130,0.00000039,-0.00000167,-0.00000416,-0.00000421,-0.000004
 63,0.00000092,0.00000019,0.00000025,0.00000071,0.00000253,-0.00000050,
 0.00000048,0.00000036,0.00000521,0.00000063,0.00000445,-0.00000166,-0.
 00000179,-0.00000439\\\@
 The archive entry for this job was punched.
 Job cpu time:       0 days 20 hours  6 minutes 43.3 seconds.
 Elapsed time:       0 days  0 hours 55 minutes 33.7 seconds.
 File lengths (MBytes):  RWF= 113382 Int=      0 D2E=      0 Chk=     22 Scr=      1
 Normal termination of Gaussian 16 at Wed Feb 23 16:41:39 2022.
