 Entering Gaussian System, Link 0=g16
 Input=CH2OCH2.com
 Output=CH2OCH2.log
 Initial command:
 /home/saurabh/gaussian/g16/l1.exe "/home/saurabh/gaussian/gauss_scr/Gau-36503.inp" -scrdir="/home/saurabh/gaussian/gauss_scr/"
 Entering Link 1 = /home/saurabh/gaussian/g16/l1.exe PID=     36504.
  
 Copyright (c) 1988-2019, Gaussian, Inc.  All Rights Reserved.
  
 This is part of the Gaussian(R) 16 program.  It is based on
 the Gaussian(R) 09 system (copyright 2009, Gaussian, Inc.),
 the Gaussian(R) 03 system (copyright 2003, Gaussian, Inc.),
 the Gaussian(R) 98 system (copyright 1998, Gaussian, Inc.),
 the Gaussian(R) 94 system (copyright 1995, Gaussian, Inc.),
 the Gaussian 92(TM) system (copyright 1992, Gaussian, Inc.),
 the Gaussian 90(TM) system (copyright 1990, Gaussian, Inc.),
 the Gaussian 88(TM) system (copyright 1988, Gaussian, Inc.),
 the Gaussian 86(TM) system (copyright 1986, Carnegie Mellon
 University), and the Gaussian 82(TM) system (copyright 1983,
 Carnegie Mellon University). Gaussian is a federally registered
 trademark of Gaussian, Inc.
  
 This software contains proprietary and confidential information,
 including trade secrets, belonging to Gaussian, Inc.
  
 This software is provided under written license and may be
 used, copied, transmitted, or stored only in accord with that
 written license.
  
 The following legend is applicable only to US Government
 contracts under FAR:
  
                    RESTRICTED RIGHTS LEGEND
  
 Use, reproduction and disclosure by the US Government is
 subject to restrictions as set forth in subparagraphs (a)
 and (c) of the Commercial Computer Software - Restricted
 Rights clause in FAR 52.227-19.
  
 Gaussian, Inc.
 340 Quinnipiac St., Bldg. 40, Wallingford CT 06492
  
  
 ---------------------------------------------------------------
 Warning -- This program may not be used in any manner that
 competes with the business of Gaussian, Inc. or will provide
 assistance to any competitor of Gaussian, Inc.  The licensee
 of this program is prohibited from giving any competitor of
 Gaussian, Inc. access to this program.  By using this program,
 the user acknowledges that Gaussian, Inc. is engaged in the
 business of creating and licensing software in the field of
 computational chemistry and represents and warrants to the
 licensee that it is not a competitor of Gaussian, Inc. and that
 it will not use this program in any manner prohibited above.
 ---------------------------------------------------------------
  

 Cite this work as:
 Gaussian 16, Revision C.01,
 M. J. Frisch, G. W. Trucks, H. B. Schlegel, G. E. Scuseria, 
 M. A. Robb, J. R. Cheeseman, G. Scalmani, V. Barone, 
 G. A. Petersson, H. Nakatsuji, X. Li, M. Caricato, A. V. Marenich, 
 J. Bloino, B. G. Janesko, R. Gomperts, B. Mennucci, H. P. Hratchian, 
 J. V. Ortiz, A. F. Izmaylov, J. L. Sonnenberg, D. Williams-Young, 
 F. Ding, F. Lipparini, F. Egidi, J. Goings, B. Peng, A. Petrone, 
 T. Henderson, D. Ranasinghe, V. G. Zakrzewski, J. Gao, N. Rega, 
 G. Zheng, W. Liang, M. Hada, M. Ehara, K. Toyota, R. Fukuda, 
 J. Hasegawa, M. Ishida, T. Nakajima, Y. Honda, O. Kitao, H. Nakai, 
 T. Vreven, K. Throssell, J. A. Montgomery, Jr., J. E. Peralta, 
 F. Ogliaro, M. J. Bearpark, J. J. Heyd, E. N. Brothers, K. N. Kudin, 
 V. N. Staroverov, T. A. Keith, R. Kobayashi, J. Normand, 
 K. Raghavachari, A. P. Rendell, J. C. Burant, S. S. Iyengar, 
 J. Tomasi, M. Cossi, J. M. Millam, M. Klene, C. Adamo, R. Cammi, 
 J. W. Ochterski, R. L. Martin, K. Morokuma, O. Farkas, 
 J. B. Foresman, and D. J. Fox, Gaussian, Inc., Wallingford CT, 2019.
 
 ******************************************
 Gaussian 16:  ES64L-G16RevC.01  3-Jul-2019
                23-Feb-2022 
 ******************************************
 %nproc=22
 Will use up to   22 processors via shared memory.
 %mem=128GB
 %chk=CH2OCH2_w1u.chk
 ----------------------------------------------------------------------
 #p w1u scf(verytight, maxcycles=1000) opt(calcfc, maxcyc=1000) int(gri
 d=ultrafine)
 ----------------------------------------------------------------------
 1/6=1000,10=4,18=20,19=15,26=4,38=1/1,3;
 2/9=110,12=2,17=6,18=5,40=1/2;
 3/5=16,6=1,7=9,11=2,25=1,30=1,71=2,74=-5,75=-5,140=1/1,2,3;
 4//1;
 5/5=2,7=1000,17=3,38=5/2;
 8/6=4,10=90,11=11/1;
 11/6=1,8=1,9=11,15=111,16=1/1,2,10;
 10/6=1,13=1/2;
 6/7=2,8=2,9=2,10=2,28=1/1;
 7/10=1,25=1/1,2,3,16;
 1/6=1000,10=4,18=20,19=15,26=4/3(2);
 2/9=110/2;
 99//99;
 2/9=110/2;
 3/5=16,6=1,7=9,11=2,25=1,30=1,71=1,74=-5,75=-5/1,2,3;
 4/5=5,16=3,69=1/1;
 5/5=2,7=1000,17=3,38=5/2;
 7//1,2,3,16;
 1/6=1000,18=20,19=15,26=4/3(-5);
 2/9=110/2;
 6/7=2,8=2,9=2,10=2,19=2,28=1/1;
 99/9=1/99;
 Leave Link    1 at Wed Feb 23 16:46:59 2022, MaxMem= 17179869184 cpu:               1.0 elap:               0.0
 (Enter /home/saurabh/gaussian/g16/l101.exe)
 -----------
 CH2OCH2_w1u
 -----------
 Symbolic Z-matrix:
 Charge =  0 Multiplicity = 1
 C                    -7.74451   3.58311   0.04924 
 C                    -6.27568   3.74895  -0.05158 
 O                    -7.14413   4.85293  -0.00146 
 H                    -8.17663   3.43042   1.05998 
 H                    -8.30883   3.41502  -0.89146 
 H                    -5.82034   3.696    -1.06227 
 H                    -5.68814   3.71139   0.88917 
 
 ITRead=  0  0  0  0  0  0  0
 MicOpt= -1 -1 -1 -1 -1 -1 -1
 NAtoms=      7 NQM=        7 NQMF=       0 NMMI=      0 NMMIF=      0
                NMic=       0 NMicF=      0.
                    Isotopes and Nuclear Properties:
 (Nuclear quadrupole moments (NQMom) in fm**2, nuclear magnetic moments (NMagM)
  in nuclear magnetons)

  Atom         1           2           3           4           5           6           7
 IAtWgt=          12          12          16           1           1           1           1
 AtmWgt=  12.0000000  12.0000000  15.9949146   1.0078250   1.0078250   1.0078250   1.0078250
 NucSpn=           0           0           0           1           1           1           1
 AtZEff=  -0.0000000  -0.0000000  -0.0000000  -0.0000000  -0.0000000  -0.0000000  -0.0000000
 NQMom=    0.0000000   0.0000000   0.0000000   0.0000000   0.0000000   0.0000000   0.0000000
 NMagM=    0.0000000   0.0000000   0.0000000   2.7928460   2.7928460   2.7928460   2.7928460
 AtZNuc=   6.0000000   6.0000000   8.0000000   1.0000000   1.0000000   1.0000000   1.0000000
 Leave Link  101 at Wed Feb 23 16:47:00 2022, MaxMem= 17179869184 cpu:               6.9 elap:               0.3
 (Enter /home/saurabh/gaussian/g16/l103.exe)

 GradGradGradGradGradGradGradGradGradGradGradGradGradGradGradGradGradGrad
 Berny optimization.
 Initialization pass.
                           ----------------------------
                           !    Initial Parameters    !
                           ! (Angstroms and Degrees)  !
 --------------------------                            --------------------------
 ! Name  Definition              Value          Derivative Info.                !
 --------------------------------------------------------------------------------
 ! R1    R(1,2)                  1.4816         calculate D2E/DX2 analytically  !
 ! R2    R(1,3)                  1.4055         calculate D2E/DX2 analytically  !
 ! R3    R(1,4)                  1.1098         calculate D2E/DX2 analytically  !
 ! R4    R(1,5)                  1.1098         calculate D2E/DX2 analytically  !
 ! R5    R(2,3)                  1.4055         calculate D2E/DX2 analytically  !
 ! R6    R(2,6)                  1.1098         calculate D2E/DX2 analytically  !
 ! R7    R(2,7)                  1.1098         calculate D2E/DX2 analytically  !
 ! A1    A(2,1,4)              117.6061         calculate D2E/DX2 analytically  !
 ! A2    A(2,1,5)              117.6058         calculate D2E/DX2 analytically  !
 ! A3    A(3,1,4)              108.8734         calculate D2E/DX2 analytically  !
 ! A4    A(3,1,5)              108.873          calculate D2E/DX2 analytically  !
 ! A5    A(4,1,5)              123.5837         calculate D2E/DX2 analytically  !
 ! A6    A(1,2,6)              117.6061         calculate D2E/DX2 analytically  !
 ! A7    A(1,2,7)              117.6057         calculate D2E/DX2 analytically  !
 ! A8    A(3,2,6)              108.8726         calculate D2E/DX2 analytically  !
 ! A9    A(3,2,7)              108.8732         calculate D2E/DX2 analytically  !
 ! A10   A(6,2,7)              123.5841         calculate D2E/DX2 analytically  !
 ! D1    D(4,1,2,6)            167.9209         calculate D2E/DX2 analytically  !
 ! D2    D(4,1,2,7)             -0.0002         calculate D2E/DX2 analytically  !
 ! D3    D(5,1,2,6)              0.0008         calculate D2E/DX2 analytically  !
 ! D4    D(5,1,2,7)           -167.9203         calculate D2E/DX2 analytically  !
 --------------------------------------------------------------------------------
 Trust Radius=3.00D-01 FncErr=1.00D-07 GrdErr=1.00D-06 EigMax=2.50D+02 EigMin=1.00D-04
 Number of steps in this run=    100 maximum allowed number of steps=    100.
 GradGradGradGradGradGradGradGradGradGradGradGradGradGradGradGradGradGrad

 Leave Link  103 at Wed Feb 23 16:47:00 2022, MaxMem= 17179869184 cpu:               0.2 elap:               0.0
 (Enter /home/saurabh/gaussian/g16/l202.exe)
                          Input orientation:                          
 ---------------------------------------------------------------------
 Center     Atomic      Atomic             Coordinates (Angstroms)
 Number     Number       Type             X           Y           Z
 ---------------------------------------------------------------------
      1          6           0       -7.744510    3.583110    0.049240
      2          6           0       -6.275680    3.748950   -0.051580
      3          8           0       -7.144130    4.852930   -0.001460
      4          1           0       -8.176630    3.430420    1.059980
      5          1           0       -8.308830    3.415020   -0.891460
      6          1           0       -5.820340    3.696000   -1.062270
      7          1           0       -5.688140    3.711390    0.889170
 ---------------------------------------------------------------------
                    Distance matrix (angstroms):
                    1          2          3          4          5
     1  C    0.000000
     2  C    1.481597   0.000000
     3  O    1.405514   1.405521   0.000000
     4  H    1.109792   2.225003   2.053350   0.000000
     5  H    1.109787   2.224996   2.053341   1.955973   0.000000
     6  H    2.225001   1.109789   2.053345   3.182229   2.510121
     7  H    2.224993   1.109786   2.053349   2.510120   3.182215
                    6          7
     6  H    0.000000
     7  H    1.955973   0.000000
 Stoichiometry    C2H4O
 Framework group  C1[X(C2H4O)]
 Deg. of freedom    15
 Full point group                 C1      NOp   1
 Largest Abelian subgroup         C1      NOp   1
 Largest concise Abelian subgroup C1      NOp   1
                         Standard orientation:                         
 ---------------------------------------------------------------------
 Center     Atomic      Atomic             Coordinates (Angstroms)
 Number     Number       Type             X           Y           Z
 ---------------------------------------------------------------------
      1          6           0        0.740795   -0.380905    0.000003
      2          6           0       -0.740802   -0.380899    0.000000
      3          8           0        0.000007    0.813542   -0.000004
      4          1           0        1.255063   -0.484395   -0.977982
      5          1           0        1.255051   -0.484379    0.977991
      6          1           0       -1.255070   -0.484356    0.977987
      7          1           0       -1.255057   -0.484382   -0.977986
 ---------------------------------------------------------------------
 Rotational constants (GHZ):          26.9013996          21.6190562          14.6693483
 Leave Link  202 at Wed Feb 23 16:47:00 2022, MaxMem= 17179869184 cpu:               0.2 elap:               0.0
 (Enter /home/saurabh/gaussian/g16/l301.exe)
 Standard basis: CC-pVTZ+d (5D, 7F)
 Ernie: Thresh=  0.10000D-02 Tol=  0.10000D-05 Strict=F.
 Ernie:  9 primitive shells out of 110 were deleted.
 There are   165 symmetry adapted cartesian basis functions of A   symmetry.
 There are   146 symmetry adapted basis functions of A   symmetry.
   146 basis functions,   224 primitive gaussians,   165 cartesian basis functions
    12 alpha electrons       12 beta electrons
       nuclear repulsion energy        75.6960025537 Hartrees.
 IExCor=  402 DFT=T Ex+Corr=B3LYP ExCW=0 ScaHFX=  0.200000
 ScaDFX=  0.800000  0.720000  1.000000  0.810000 ScalE2=  1.000000  1.000000
 IRadAn=      5 IRanWt=     -1 IRanGd=            0 ICorTp=0 IEmpDi=  4
 NAtoms=    7 NActive=    7 NUniq=    7 SFac= 1.00D+00 NAtFMM=   60 NAOKFM=F Big=F
 Integral buffers will be    131072 words long.
 Raffenetti 2 integral format.
 Two-electron integral symmetry is turned on.
 Leave Link  301 at Wed Feb 23 16:47:00 2022, MaxMem= 17179869184 cpu:               1.0 elap:               0.1
 (Enter /home/saurabh/gaussian/g16/l302.exe)
 NPDir=0 NMtPBC=     1 NCelOv=     1 NCel=       1 NClECP=     1 NCelD=      1
         NCelK=      1 NCelE2=     1 NClLst=     1 CellRange=     0.0.
 One-electron integrals computed using PRISM.
 One-electron integral symmetry used in STVInt
 NBasis=   146 RedAO= T EigKep=  5.75D-04  NBF=   146
 NBsUse=   146 1.00D-06 EigRej= -1.00D+00 NBFU=   146
 Precomputing XC quadrature grid using
 IXCGrd= 4 IRadAn=           5 IRanWt=          -1 IRanGd=           0 AccXCQ= 0.00D+00.
 Generated NRdTot=       0 NPtTot=           0 NUsed=           0 NTot=          32
 NSgBfM=   165   165   165   165   165 MxSgAt=     7 MxSgA2=     7.
 Leave Link  302 at Wed Feb 23 16:47:00 2022, MaxMem= 17179869184 cpu:               3.3 elap:               0.2
 (Enter /home/saurabh/gaussian/g16/l303.exe)
 DipDrv:  MaxL=1.
 Leave Link  303 at Wed Feb 23 16:47:00 2022, MaxMem= 17179869184 cpu:               0.5 elap:               0.0
 (Enter /home/saurabh/gaussian/g16/l401.exe)
 ExpMin= 1.03D-01 ExpMax= 1.53D+04 ExpMxC= 5.22D+02 IAcc=3 IRadAn=         5 AccDes= 0.00D+00
 Harris functional with IExCor=  402 and IRadAn=       5 diagonalized for initial guess.
 HarFok:  IExCor=  402 AccDes= 0.00D+00 IRadAn=         5 IDoV= 1 UseB2=F ITyADJ=14
 ICtDFT=  3500011 ScaDFX=  1.000000  1.000000  1.000000  1.000000
 FoFCou: FMM=F IPFlag=           0 FMFlag=      100000 FMFlg1=           0
         NFxFlg=           0 DoJE=T BraDBF=F KetDBF=T FulRan=T
         wScrn=  0.000000 ICntrl=       500 IOpCl=  0 I1Cent=   200000004 NGrid=           0
         NMat0=    1 NMatS0=      1 NMatT0=    0 NMatD0=    1 NMtDS0=    0 NMtDT0=    0
 Petite list used in FoFCou.
 Harris En= -153.843088698463    
 JPrj=0 DoOrth=F DoCkMO=F.
 Leave Link  401 at Wed Feb 23 16:47:00 2022, MaxMem= 17179869184 cpu:               5.8 elap:               0.3
 (Enter /home/saurabh/gaussian/g16/l502.exe)
 Keep R1 ints in memory in canonical form, NReq=79427406.
 FoFCou: FMM=F IPFlag=           0 FMFlag=           0 FMFlg1=           0
         NFxFlg=           0 DoJE=F BraDBF=F KetDBF=F FulRan=T
         wScrn=  0.000000 ICntrl=       600 IOpCl=  0 I1Cent=           0 NGrid=           0
         NMat0=    1 NMatS0=  10731 NMatT0=    0 NMatD0=    1 NMtDS0=    0 NMtDT0=    0
 Symmetry not used in FoFCou.
 Two-electron integral symmetry not used.
 Closed shell SCF:
 Using DIIS extrapolation, IDIIS=  1040.
 NGot= 17179869184 LenX= 17122226824 LenY= 17122199158
 Requested convergence on RMS density matrix=1.00D-08 within1000 cycles.
 Requested convergence on MAX density matrix=1.00D-06.
 Requested convergence on             energy=1.00D-06.
 No special actions if energy rises.
 Integral accuracy reduced to 1.0D-05 until final iterations.

 Cycle   1  Pass 0  IDiag  1:
 E= -153.773087896337    
 DIIS: error= 2.79D-02 at cycle   1 NSaved=   1.
 NSaved= 1 IEnMin= 1 EnMin= -153.773087896337     IErMin= 1 ErrMin= 2.79D-02
 ErrMax= 2.79D-02  0.00D+00 EMaxC= 1.00D-01 BMatC= 7.79D-02 BMatP= 7.79D-02
 IDIUse=3 WtCom= 7.21D-01 WtEn= 2.79D-01
 Coeff-Com:  0.100D+01
 Coeff-En:   0.100D+01
 Coeff:      0.100D+01
 Gap=     0.315 Goal=   None    Shift=    0.000
 GapD=    0.315 DampG=1.000 DampE=0.500 DampFc=0.5000 IDamp=-1.
 Damping current iteration by 5.00D-01
 RMSDP=3.11D-03 MaxDP=8.00D-02              OVMax= 1.44D-01

 Cycle   2  Pass 0  IDiag  1:
 E= -153.798518661483     Delta-E=       -0.025430765146 Rises=F Damp=T
 DIIS: error= 7.11D-03 at cycle   2 NSaved=   2.
 NSaved= 2 IEnMin= 2 EnMin= -153.798518661483     IErMin= 2 ErrMin= 7.11D-03
 ErrMax= 7.11D-03  0.00D+00 EMaxC= 1.00D-01 BMatC= 7.58D-03 BMatP= 7.79D-02
 IDIUse=3 WtCom= 9.29D-01 WtEn= 7.11D-02
 Coeff-Com:  0.124D+00 0.876D+00
 Coeff-En:   0.205D+00 0.795D+00
 Coeff:      0.130D+00 0.870D+00
 Gap=     0.325 Goal=   None    Shift=    0.000
 RMSDP=6.02D-04 MaxDP=1.15D-02 DE=-2.54D-02 OVMax= 9.68D-02

 Cycle   3  Pass 0  IDiag  1:
 E= -153.835237379088     Delta-E=       -0.036718717605 Rises=F Damp=F
 DIIS: error= 6.14D-03 at cycle   3 NSaved=   3.
 NSaved= 3 IEnMin= 3 EnMin= -153.835237379088     IErMin= 3 ErrMin= 6.14D-03
 ErrMax= 6.14D-03  0.00D+00 EMaxC= 1.00D-01 BMatC= 4.85D-03 BMatP= 7.58D-03
 IDIUse=3 WtCom= 9.39D-01 WtEn= 6.14D-02
 Coeff-Com: -0.107D-01 0.433D+00 0.578D+00
 Coeff-En:   0.000D+00 0.000D+00 0.100D+01
 Coeff:     -0.101D-01 0.406D+00 0.604D+00
 Gap=     0.307 Goal=   None    Shift=    0.000
 RMSDP=2.81D-04 MaxDP=7.56D-03 DE=-3.67D-02 OVMax= 2.65D-02

 Cycle   4  Pass 0  IDiag  1:
 E= -153.837780184065     Delta-E=       -0.002542804978 Rises=F Damp=F
 DIIS: error= 4.01D-03 at cycle   4 NSaved=   4.
 NSaved= 4 IEnMin= 4 EnMin= -153.837780184065     IErMin= 4 ErrMin= 4.01D-03
 ErrMax= 4.01D-03  0.00D+00 EMaxC= 1.00D-01 BMatC= 1.24D-03 BMatP= 4.85D-03
 IDIUse=3 WtCom= 9.60D-01 WtEn= 4.01D-02
 Coeff-Com: -0.184D-01 0.112D+00 0.363D+00 0.544D+00
 Coeff-En:   0.000D+00 0.000D+00 0.233D+00 0.767D+00
 Coeff:     -0.177D-01 0.107D+00 0.358D+00 0.553D+00
 Gap=     0.311 Goal=   None    Shift=    0.000
 RMSDP=1.07D-04 MaxDP=2.18D-03 DE=-2.54D-03 OVMax= 8.84D-03

 Cycle   5  Pass 0  IDiag  1:
 E= -153.838724820152     Delta-E=       -0.000944636086 Rises=F Damp=F
 DIIS: error= 4.88D-04 at cycle   5 NSaved=   5.
 NSaved= 5 IEnMin= 5 EnMin= -153.838724820152     IErMin= 5 ErrMin= 4.88D-04
 ErrMax= 4.88D-04  0.00D+00 EMaxC= 1.00D-01 BMatC= 1.10D-05 BMatP= 1.24D-03
 IDIUse=3 WtCom= 9.95D-01 WtEn= 4.88D-03
 Coeff-Com: -0.462D-02 0.876D-02 0.740D-01 0.163D+00 0.758D+00
 Coeff-En:   0.000D+00 0.000D+00 0.000D+00 0.000D+00 0.100D+01
 Coeff:     -0.460D-02 0.872D-02 0.737D-01 0.163D+00 0.760D+00
 Gap=     0.311 Goal=   None    Shift=    0.000
 RMSDP=9.86D-06 MaxDP=1.51D-04 DE=-9.45D-04 OVMax= 6.07D-04

 Initial convergence to 1.0D-05 achieved.  Increase integral accuracy.
 Cycle   6  Pass 1  IDiag  1:
 E= -153.838731691762     Delta-E=       -0.000006871610 Rises=F Damp=F
 DIIS: error= 1.58D-05 at cycle   1 NSaved=   1.
 NSaved= 1 IEnMin= 1 EnMin= -153.838731691762     IErMin= 1 ErrMin= 1.58D-05
 ErrMax= 1.58D-05  0.00D+00 EMaxC= 1.00D-01 BMatC= 2.00D-08 BMatP= 2.00D-08
 IDIUse=1 WtCom= 1.00D+00 WtEn= 0.00D+00
 Coeff-Com:  0.100D+01
 Coeff:      0.100D+01
 Gap=     0.311 Goal=   None    Shift=    0.000
 RMSDP=9.86D-06 MaxDP=1.51D-04 DE=-6.87D-06 OVMax= 8.08D-05

 Cycle   7  Pass 1  IDiag  1:
 E= -153.838731699199     Delta-E=       -0.000000007437 Rises=F Damp=F
 DIIS: error= 1.35D-05 at cycle   2 NSaved=   2.
 NSaved= 2 IEnMin= 2 EnMin= -153.838731699199     IErMin= 2 ErrMin= 1.35D-05
 ErrMax= 1.35D-05  0.00D+00 EMaxC= 1.00D-01 BMatC= 1.81D-08 BMatP= 2.00D-08
 IDIUse=1 WtCom= 1.00D+00 WtEn= 0.00D+00
 Coeff-Com:  0.485D+00 0.515D+00
 Coeff:      0.485D+00 0.515D+00
 Gap=     0.311 Goal=   None    Shift=    0.000
 RMSDP=6.40D-07 MaxDP=1.88D-05 DE=-7.44D-09 OVMax= 4.51D-05

 Cycle   8  Pass 1  IDiag  1:
 E= -153.838731709083     Delta-E=       -0.000000009884 Rises=F Damp=F
 DIIS: error= 5.30D-06 at cycle   3 NSaved=   3.
 NSaved= 3 IEnMin= 3 EnMin= -153.838731709083     IErMin= 3 ErrMin= 5.30D-06
 ErrMax= 5.30D-06  0.00D+00 EMaxC= 1.00D-01 BMatC= 3.61D-09 BMatP= 1.81D-08
 IDIUse=1 WtCom= 1.00D+00 WtEn= 0.00D+00
 Coeff-Com:  0.137D+00 0.313D+00 0.551D+00
 Coeff:      0.137D+00 0.313D+00 0.551D+00
 Gap=     0.311 Goal=   None    Shift=    0.000
 RMSDP=1.96D-07 MaxDP=5.70D-06 DE=-9.88D-09 OVMax= 1.69D-05

 Cycle   9  Pass 1  IDiag  1:
 E= -153.838731711492     Delta-E=       -0.000000002409 Rises=F Damp=F
 DIIS: error= 9.43D-07 at cycle   4 NSaved=   4.
 NSaved= 4 IEnMin= 4 EnMin= -153.838731711492     IErMin= 4 ErrMin= 9.43D-07
 ErrMax= 9.43D-07  0.00D+00 EMaxC= 1.00D-01 BMatC= 6.91D-11 BMatP= 3.61D-09
 IDIUse=1 WtCom= 1.00D+00 WtEn= 0.00D+00
 Coeff-Com:  0.161D-01 0.628D-01 0.184D+00 0.737D+00
 Coeff:      0.161D-01 0.628D-01 0.184D+00 0.737D+00
 Gap=     0.311 Goal=   None    Shift=    0.000
 RMSDP=4.42D-08 MaxDP=8.31D-07 DE=-2.41D-09 OVMax= 2.95D-06

 Cycle  10  Pass 1  IDiag  1:
 E= -153.838731711544     Delta-E=       -0.000000000052 Rises=F Damp=F
 DIIS: error= 4.51D-07 at cycle   5 NSaved=   5.
 NSaved= 5 IEnMin= 5 EnMin= -153.838731711544     IErMin= 5 ErrMin= 4.51D-07
 ErrMax= 4.51D-07  0.00D+00 EMaxC= 1.00D-01 BMatC= 1.19D-11 BMatP= 6.91D-11
 IDIUse=1 WtCom= 1.00D+00 WtEn= 0.00D+00
 Coeff-Com: -0.195D-02 0.894D-02 0.490D-01 0.365D+00 0.579D+00
 Coeff:     -0.195D-02 0.894D-02 0.490D-01 0.365D+00 0.579D+00
 Gap=     0.311 Goal=   None    Shift=    0.000
 RMSDP=1.45D-08 MaxDP=2.95D-07 DE=-5.24D-11 OVMax= 8.81D-07

 Cycle  11  Pass 1  IDiag  1:
 E= -153.838731711555     Delta-E=       -0.000000000011 Rises=F Damp=F
 DIIS: error= 3.95D-08 at cycle   6 NSaved=   6.
 NSaved= 6 IEnMin= 6 EnMin= -153.838731711555     IErMin= 6 ErrMin= 3.95D-08
 ErrMax= 3.95D-08  0.00D+00 EMaxC= 1.00D-01 BMatC= 1.62D-13 BMatP= 1.19D-11
 IDIUse=1 WtCom= 1.00D+00 WtEn= 0.00D+00
 Coeff-Com: -0.198D-02-0.263D-02-0.560D-02 0.265D-01 0.108D+00 0.876D+00
 Coeff:     -0.198D-02-0.263D-02-0.560D-02 0.265D-01 0.108D+00 0.876D+00
 Gap=     0.311 Goal=   None    Shift=    0.000
 RMSDP=2.65D-09 MaxDP=5.03D-08 DE=-1.09D-11 OVMax= 1.72D-07

 SCF Done:  E(RB3LYP) =  -153.838731712     A.U. after   11 cycles
            NFock= 11  Conv=0.26D-08     -V/T= 2.0068
 KE= 1.528025501697D+02 PE=-5.109729854039D+02 EE= 1.286357009690D+02
 Leave Link  502 at Wed Feb 23 16:47:03 2022, MaxMem= 17179869184 cpu:              37.2 elap:               2.6
 (Enter /home/saurabh/gaussian/g16/l801.exe)
 DoSCS=F DFT=T ScalE2(SS,OS)=  1.000000  1.000000
 Range of M.O.s used for correlation:     1   146
 NBasis=   146 NAE=    12 NBE=    12 NFC=     0 NFV=     0
 NROrb=    146 NOA=    12 NOB=    12 NVA=   134 NVB=   134

 **** Warning!!: The largest alpha MO coefficient is  0.11697694D+02

 Leave Link  801 at Wed Feb 23 16:47:03 2022, MaxMem= 17179869184 cpu:               0.4 elap:               0.0
 (Enter /home/saurabh/gaussian/g16/l1101.exe)
 Using compressed storage, NAtomX=     7.
 Will process      8 centers per pass.
 Leave Link 1101 at Wed Feb 23 16:47:03 2022, MaxMem= 17179869184 cpu:               3.8 elap:               0.2
 (Enter /home/saurabh/gaussian/g16/l1102.exe)
 Symmetrizing basis deriv contribution to polar:
 IMax=3 JMax=2 DiffMx= 0.00D+00
 Leave Link 1102 at Wed Feb 23 16:47:03 2022, MaxMem= 17179869184 cpu:               0.5 elap:               0.1
 (Enter /home/saurabh/gaussian/g16/l1110.exe)
 Forming Gx(P) for the SCF density, NAtomX=     7.
 Integral derivatives from FoFJK, PRISM(SPDF).
 Do as many integral derivatives as possible in FoFJK.
 G2DrvN: MDV=   17179868327.
 G2DrvN: will do     8 centers at a time, making    1 passes.
 Calling FoFCou, ICntrl=  3107 FMM=F I1Cent=   0 AccDes= 0.00D+00.
 FoFJK:  IHMeth= 1 ICntrl=    3107 DoSepK=F KAlg= 0 I1Cent=           0 FoldK=F
 IRaf=         0 NMat=       1 IRICut=       1 DoRegI=T DoRafI=F ISym2E= 0 IDoP0=0 IntGTp=1.
 FoFCou: FMM=F IPFlag=           0 FMFlag=      100000 FMFlg1=           0
         NFxFlg=           0 DoJE=F BraDBF=F KetDBF=F FulRan=T
         wScrn=  0.000000 ICntrl=      3107 IOpCl=  0 I1Cent=           0 NGrid=           0
         NMat0=    1 NMatS0=      1 NMatT0=    0 NMatD0=    1 NMtDS0=    0 NMtDT0=    0
 Symmetry not used in FoFCou.
 End of G2Drv F.D. properties file   721 does not exist.
 End of G2Drv F.D. properties file   722 does not exist.
 End of G2Drv F.D. properties file   788 does not exist.
 Leave Link 1110 at Wed Feb 23 16:47:06 2022, MaxMem= 17179869184 cpu:              65.9 elap:               3.0
 (Enter /home/saurabh/gaussian/g16/l1002.exe)
 Minotr:  Closed shell wavefunction.
          IDoAtm=1111111
          Direct CPHF calculation.
          Differentiating once with respect to nuclear coordinates.
          Requested convergence is 1.0D-08 RMS, and 1.0D-07 maximum.
          Secondary convergence is 1.0D-12 RMS, and 1.0D-12 maximum.
          NewPWx=T KeepS1=F KeepF1=F KeepIn=T MapXYZ=F SortEE=F KeepMc=T.
         2073 words used for storage of precomputed grid.
 Keep R1 ints in memory in canonical form, NReq=79356997.
 FoFCou: FMM=F IPFlag=           0 FMFlag=           0 FMFlg1=           0
         NFxFlg=           0 DoJE=F BraDBF=F KetDBF=F FulRan=T
         wScrn=  0.000000 ICntrl=       600 IOpCl=  0 I1Cent=           0 NGrid=           0
         NMat0=    1 NMatS0=  10731 NMatT0=    0 NMatD0=    1 NMtDS0=    0 NMtDT0=    0
 Symmetry not used in FoFCou.
 Two-electron integral symmetry not used.
          MDV=   17179869184 using IRadAn=       1.
          Solving linear equations simultaneously, MaxMat=       0.
          There are    24 degrees of freedom in the 1st order CPHF.  IDoFFX=6 NUNeed=     0.
     18 vectors produced by pass  0 Test12= 6.70D-15 4.17D-09 XBig12= 1.03D-01 1.36D-01.
 AX will form    18 AO Fock derivatives at one time.
     18 vectors produced by pass  1 Test12= 6.70D-15 4.17D-09 XBig12= 1.26D-02 4.13D-02.
     18 vectors produced by pass  2 Test12= 6.70D-15 4.17D-09 XBig12= 2.32D-04 4.41D-03.
     18 vectors produced by pass  3 Test12= 6.70D-15 4.17D-09 XBig12= 2.51D-06 4.91D-04.
     18 vectors produced by pass  4 Test12= 6.70D-15 4.17D-09 XBig12= 1.33D-08 2.88D-05.
     14 vectors produced by pass  5 Test12= 6.70D-15 4.17D-09 XBig12= 2.83D-11 1.25D-06.
      4 vectors produced by pass  6 Test12= 6.70D-15 4.17D-09 XBig12= 3.64D-14 4.39D-08.
 InvSVY:  IOpt=1 It=  1 EMax= 1.11D-15
 Solved reduced A of dimension   108 with    18 vectors.
 End of Minotr F.D. properties file   721 does not exist.
 End of Minotr F.D. properties file   722 does not exist.
 End of Minotr F.D. properties file   788 does not exist.
 Leave Link 1002 at Wed Feb 23 16:47:10 2022, MaxMem= 17179869184 cpu:              70.4 elap:               3.2
 (Enter /home/saurabh/gaussian/g16/l601.exe)
 Copying SCF densities to generalized density rwf, IOpCl= 0 IROHF=0.

 **********************************************************************

            Population analysis using the SCF Density.

 **********************************************************************

 Orbital symmetries:
       Occupied  (A) (A) (A) (A) (A) (A) (A) (A) (A) (A) (A) (A)
       Virtual   (A) (A) (A) (A) (A) (A) (A) (A) (A) (A) (A) (A)
                 (A) (A) (A) (A) (A) (A) (A) (A) (A) (A) (A) (A)
                 (A) (A) (A) (A) (A) (A) (A) (A) (A) (A) (A) (A)
                 (A) (A) (A) (A) (A) (A) (A) (A) (A) (A) (A) (A)
                 (A) (A) (A) (A) (A) (A) (A) (A) (A) (A) (A) (A)
                 (A) (A) (A) (A) (A) (A) (A) (A) (A) (A) (A) (A)
                 (A) (A) (A) (A) (A) (A) (A) (A) (A) (A) (A) (A)
                 (A) (A) (A) (A) (A) (A) (A) (A) (A) (A) (A) (A)
                 (A) (A) (A) (A) (A) (A) (A) (A) (A) (A) (A) (A)
                 (A) (A) (A) (A) (A) (A) (A) (A) (A) (A) (A) (A)
                 (A) (A) (A) (A) (A) (A) (A) (A) (A) (A) (A) (A)
                 (A) (A)
 The electronic state is 1-A.
 Alpha  occ. eigenvalues --  -19.13301 -10.23365 -10.23335  -1.08814  -0.66367
 Alpha  occ. eigenvalues --   -0.63667  -0.52559  -0.47828  -0.39645  -0.39210
 Alpha  occ. eigenvalues --   -0.31837  -0.27063
 Alpha virt. eigenvalues --    0.04009   0.06185   0.07421   0.09383   0.10458
 Alpha virt. eigenvalues --    0.13091   0.20208   0.22485   0.30738   0.31571
 Alpha virt. eigenvalues --    0.35809   0.38396   0.40755   0.41260   0.45277
 Alpha virt. eigenvalues --    0.46892   0.47405   0.52108   0.53172   0.55091
 Alpha virt. eigenvalues --    0.56404   0.70092   0.72115   0.73837   0.80668
 Alpha virt. eigenvalues --    0.82098   0.91991   0.93610   0.98169   1.02248
 Alpha virt. eigenvalues --    1.03224   1.06606   1.06716   1.10371   1.11282
 Alpha virt. eigenvalues --    1.21162   1.21717   1.24031   1.24679   1.30009
 Alpha virt. eigenvalues --    1.40034   1.40934   1.50175   1.56511   1.61831
 Alpha virt. eigenvalues --    1.75680   1.91243   1.96035   2.02451   2.06799
 Alpha virt. eigenvalues --    2.12894   2.25131   2.26729   2.27837   2.41313
 Alpha virt. eigenvalues --    2.48205   2.48735   2.58258   2.61769   2.72861
 Alpha virt. eigenvalues --    2.73791   2.77318   2.84219   2.87973   2.89530
 Alpha virt. eigenvalues --    2.91489   2.94489   2.95956   2.98797   3.05526
 Alpha virt. eigenvalues --    3.07899   3.09739   3.11295   3.15194   3.17784
 Alpha virt. eigenvalues --    3.21853   3.29322   3.32386   3.39066   3.44907
 Alpha virt. eigenvalues --    3.48207   3.55830   3.57242   3.60398   3.64959
 Alpha virt. eigenvalues --    3.65709   3.74446   3.75061   3.75456   3.83424
 Alpha virt. eigenvalues --    3.86304   3.94061   3.96197   4.02273   4.03935
 Alpha virt. eigenvalues --    4.07388   4.16206   4.17699   4.24441   4.31070
 Alpha virt. eigenvalues --    4.38663   4.45714   4.52650   4.62231   4.68862
 Alpha virt. eigenvalues --    4.71251   4.81066   4.87936   4.93659   4.95719
 Alpha virt. eigenvalues --    5.01088   5.05817   5.12195   5.24213   5.39468
 Alpha virt. eigenvalues --    5.44573   5.51685   5.62615   5.63418   5.71459
 Alpha virt. eigenvalues --    5.83455   5.85241   5.90297   5.99064   6.23467
 Alpha virt. eigenvalues --    6.45052   6.66491   6.86703   6.86930   6.97916
 Alpha virt. eigenvalues --    7.25345  10.23072  11.37062  12.87457
          Condensed to atoms (all electrons):
               1          2          3          4          5          6
     1  C    4.697741   0.332946   0.228058   0.413371   0.413373  -0.024346
     2  C    0.332946   4.697750   0.228052  -0.024346  -0.024346   0.413373
     3  O    0.228058   0.228052   7.988996  -0.036474  -0.036474  -0.036473
     4  H    0.413371  -0.024346  -0.036474   0.592309  -0.038448   0.000195
     5  H    0.413373  -0.024346  -0.036474  -0.038448   0.592308   0.000191
     6  H   -0.024346   0.413373  -0.036473   0.000195   0.000191   0.592302
     7  H   -0.024347   0.413373  -0.036472   0.000192   0.000195  -0.038447
               7
     1  C   -0.024347
     2  C    0.413373
     3  O   -0.036472
     4  H    0.000192
     5  H    0.000195
     6  H   -0.038447
     7  H    0.592303
 Mulliken charges:
               1
     1  C   -0.036796
     2  C   -0.036802
     3  O   -0.299213
     4  H    0.093201
     5  H    0.093202
     6  H    0.093204
     7  H    0.093204
 Sum of Mulliken charges =  -0.00000
 Mulliken charges with hydrogens summed into heavy atoms:
               1
     1  C    0.149607
     2  C    0.149606
     3  O   -0.299213
 APT charges:
               1
     1  C   -0.531424
     2  C   -0.531427
     3  O   -0.178361
     4  H    0.310303
     5  H    0.310301
     6  H    0.310304
     7  H    0.310304
 Sum of APT charges =  -0.00000
 APT charges with hydrogens summed into heavy atoms:
               1
     1  C    0.089180
     2  C    0.089182
     3  O   -0.178361
 Electronic spatial extent (au):  <R**2>=            129.0355
 Charge=             -0.0000 electrons
 Dipole moment (field-independent basis, Debye):
    X=             -0.0000    Y=             -1.5610    Z=              0.0000  Tot=              1.5610
 Quadrupole moment (field-independent basis, Debye-Ang):
   XX=            -16.8283   YY=            -21.2026   ZZ=            -16.9531
   XY=             -0.0000   XZ=             -0.0000   YZ=              0.0000
 Traceless Quadrupole moment (field-independent basis, Debye-Ang):
   XX=              1.4997   YY=             -2.8746   ZZ=              1.3749
   XY=             -0.0000   XZ=             -0.0000   YZ=              0.0000
 Octapole moment (field-independent basis, Debye-Ang**2):
  XXX=             -0.0000  YYY=              3.0281  ZZZ=              0.0000  XYY=              0.0000
  XXY=              0.9041  XXZ=             -0.0000  XZZ=             -0.0000  YZZ=              0.2889
  YYZ=             -0.0000  XYZ=             -0.0000
 Hexadecapole moment (field-independent basis, Debye-Ang**3):
 XXXX=            -80.4549 YYYY=            -55.9838 ZZZZ=            -31.6164 XXXY=              0.0000
 XXXZ=             -0.0001 YYYX=              0.0000 YYYZ=              0.0000 ZZZX=              0.0000
 ZZZY=              0.0001 XXYY=            -22.3367 XXZZ=            -15.6599 YYZZ=            -15.2596
 XXYZ=              0.0001 YYXZ=              0.0000 ZZXY=             -0.0000
 N-N= 7.569600255371D+01 E-N=-5.109729888768D+02  KE= 1.528025501697D+02
  Exact polarizability:       0.000       0.000       0.000       0.000       0.000       0.000
 Approx polarizability:      41.596       0.000      33.954      -0.000       0.000      34.599
 No NMR shielding tensors so no spin-rotation constants.
 Leave Link  601 at Wed Feb 23 16:47:10 2022, MaxMem= 17179869184 cpu:               2.9 elap:               0.2
 (Enter /home/saurabh/gaussian/g16/l701.exe)
 ... and contract with generalized density number  0.
 Compute integral second derivatives.
 Leave Link  701 at Wed Feb 23 16:47:10 2022, MaxMem= 17179869184 cpu:               4.3 elap:               0.2
 (Enter /home/saurabh/gaussian/g16/l702.exe)
 L702 exits ... SP integral derivatives will be done elsewhere.
 Leave Link  702 at Wed Feb 23 16:47:10 2022, MaxMem= 17179869184 cpu:               0.4 elap:               0.0
 (Enter /home/saurabh/gaussian/g16/l703.exe)
 Integral derivatives from FoFJK, PRISM(SPDF).
 Compute integral second derivatives, UseDBF=F ICtDFT=           0.
 Calling FoFJK, ICntrl=    100127 FMM=F ISym2X=0 I1Cent= 0 IOpClX= 0 NMat=1 NMatS=1 NMatT=0.
 FoFJK:  IHMeth= 1 ICntrl=  100127 DoSepK=F KAlg= 0 I1Cent=           0 FoldK=F
 IRaf=         0 NMat=       1 IRICut=       1 DoRegI=T DoRafI=F ISym2E= 0 IDoP0=0 IntGTp=1.
 FoFCou: FMM=F IPFlag=           0 FMFlag=      100000 FMFlg1=         800
         NFxFlg=           0 DoJE=F BraDBF=F KetDBF=F FulRan=T
         wScrn=  0.000000 ICntrl=    100127 IOpCl=  0 I1Cent=           0 NGrid=           0
         NMat0=    1 NMatS0=      1 NMatT0=    0 NMatD0=    1 NMtDS0=    0 NMtDT0=    0
 Symmetry not used in FoFCou.
 Leave Link  703 at Wed Feb 23 16:47:18 2022, MaxMem= 17179869184 cpu:             179.4 elap:               8.2
 (Enter /home/saurabh/gaussian/g16/l716.exe)
 Dipole        =-7.71032172D-06-6.14139547D-01 2.58547633D-06
 Polarizability= 0.00000000D+00 0.00000000D+00 0.00000000D+00
                 0.00000000D+00 0.00000000D+00 0.00000000D+00
 ***** Axes restored to original set *****
 -------------------------------------------------------------------
 Center     Atomic                   Forces (Hartrees/Bohr)
 Number     Number              X              Y              Z
 -------------------------------------------------------------------
      1        6          -0.006565897    0.005501733    0.000401976
      2        6           0.005170594    0.006830014   -0.000405834
      3        8          -0.003540074    0.031363589   -0.000006536
      4        1          -0.000505145   -0.011124569   -0.019753263
      5        1           0.002173564   -0.010813151    0.019811556
      6        1           0.002973060   -0.010723316    0.019757885
      7        1           0.000293897   -0.011034300   -0.019805784
 -------------------------------------------------------------------
 Cartesian Forces:  Max     0.031363589 RMS     0.012344191
 Force constants in Cartesian coordinates: 
                1             2             3             4             5 
      1  0.537598D+00
      2  0.135190D+00  0.285804D+00
      3  0.314760D-02 -0.667970D-02  0.599596D+00
      4 -0.265299D+00 -0.580106D-01  0.141131D-01  0.583850D+00
      5 -0.679775D-02  0.180249D-01 -0.184917D-03 -0.669990D-01  0.239546D+00
      6  0.137086D-01  0.328489D-02 -0.646935D-01  0.160974D-02  0.738002D-02
      7 -0.593070D-01 -0.633492D-01  0.488588D-03 -0.104717D+00  0.895869D-01
      8 -0.108921D+00 -0.219431D+00  0.864157D-02  0.135159D+00 -0.174017D+00
      9  0.848699D-03  0.555419D-02 -0.595721D-01  0.199854D-02 -0.516534D-02
     10 -0.856727D-01 -0.103787D-01  0.711103D-01 -0.769944D-02 -0.667723D-02
     11 -0.364987D-02 -0.382899D-01  0.138646D-01  0.225626D-02 -0.427897D-02
     12  0.750393D-01  0.221110D-01 -0.252577D+00 -0.308953D-02  0.932917D-03
     13 -0.108220D+00 -0.147649D-01 -0.905244D-01 -0.102560D-01 -0.709191D-02
     14 -0.704788D-02 -0.388897D-01 -0.163465D-01  0.406189D-02 -0.408215D-02
     15 -0.945678D-01 -0.236146D-01 -0.229435D+00  0.471667D-02  0.119595D-03
     16 -0.849130D-02  0.572357D-02  0.200777D-01 -0.863742D-01 -0.585603D-03
     17 -0.322183D-02 -0.348033D-02  0.179676D-01 -0.731256D-02 -0.375965D-01
     18 -0.280271D-02 -0.159539D-02  0.215390D-02  0.780946D-01 -0.492126D-02
     19 -0.106070D-01  0.559023D-02 -0.184129D-01 -0.109504D+00 -0.143532D-02
     20 -0.555150D-02 -0.373848D-02 -0.172626D-01 -0.915493D-02 -0.375963D-01
     21  0.462639D-02  0.939528D-03  0.452704D-02 -0.974431D-01  0.183899D-02
                6             7             8             9            10 
      6  0.599596D+00
      7  0.235829D-02  0.213222D+00
      8 -0.825299D-02 -0.272336D-01  0.451342D+00
      9 -0.595651D-01 -0.827302D-02 -0.102296D-02  0.885054D-01
     10  0.235816D-01 -0.705536D-02 -0.938792D-02  0.558376D-02  0.935493D-01
     11 -0.130343D-01 -0.281259D-01 -0.188233D-01  0.331843D-01  0.244468D-01
     12  0.216052D-02  0.564409D-02  0.689676D-02  0.676387D-02 -0.866286D-01
     13 -0.217961D-01 -0.825922D-02 -0.102749D-01 -0.334087D-02  0.790003D-02
     14  0.127260D-01 -0.323860D-01 -0.194072D-01 -0.286608D-01  0.393901D-02
     15  0.452006D-02 -0.307862D-02 -0.514036D-02  0.855089D-02 -0.122825D-01
     16  0.724221D-01 -0.157971D-01  0.100870D-01  0.128374D-01 -0.139933D-02
     17  0.224119D-02  0.288240D-01 -0.101006D-01 -0.310935D-01 -0.287509D-02
     18 -0.252571D+00  0.702486D-02 -0.545544D-02  0.678205D-02 -0.998013D-03
     19 -0.918842D-01 -0.180865D-01  0.105711D-01 -0.965451D-02  0.377527D-03
     20 -0.434479D-02  0.326838D-01 -0.956310D-02  0.272042D-01  0.933052D-03
     21 -0.229447D+00 -0.416420D-02  0.433342D-02  0.853503D-02 -0.366549D-03
               11            12            13            14            15 
     11  0.575950D-01
     12 -0.323270D-01  0.253699D+00
     13  0.373758D-02  0.970384D-02  0.119556D+00
     14  0.166840D-02  0.240992D-02  0.302939D-01  0.586039D-01
     15 -0.312500D-02 -0.105952D-01  0.104388D+00  0.315033D-01  0.226690D+00
     16  0.211442D-02 -0.840623D-03  0.402365D-03 -0.887997D-03 -0.169652D-03
     17  0.192360D-02 -0.806404D-03  0.824633D-03  0.179554D-03 -0.900064D-03
     18  0.597936D-03  0.241330D-03  0.341409D-03 -0.724800D-03  0.307510D-03
     19 -0.779318D-03  0.171564D-03 -0.112307D-02  0.202711D-02  0.993446D-03
     20  0.205185D-03  0.782791D-03 -0.272438D-02  0.192726D-02  0.115705D-02
     21  0.839554D-03  0.306726D-03  0.122770D-02 -0.907198D-03 -0.386166D-04
               16            17            18            19            20 
     16  0.102400D+00
     17 -0.142428D-01  0.487649D-01
     18 -0.916591D-01  0.122895D-01  0.253682D+00
     19  0.925915D-02 -0.199632D-02  0.999891D-02  0.129684D+00
     20 -0.220857D-02  0.309427D-03 -0.190517D-03 -0.139775D-01  0.484561D-01
     21 -0.126679D-01  0.301789D-03 -0.105951D-01  0.108788D+00 -0.734607D-02
               21 
     21  0.226712D+00
 FormGI is forming the generalized inverse of G from B-inverse, IUseBI=4.
 Force constants in internal coordinates: 
                1             2             3             4             5 
      1  0.305016D+00
      2  0.560988D-02  0.317583D+00
      3  0.360889D-02  0.181486D-01  0.297867D+00
      4  0.360904D-02  0.181485D-01  0.102803D-02  0.297875D+00
      5  0.560906D-02 -0.273143D-02 -0.527989D-02 -0.527989D-02  0.317572D+00
      6  0.360886D-02 -0.527988D-02 -0.695534D-03  0.311372D-03  0.181481D-01
      7  0.360901D-02 -0.527982D-02  0.311379D-03 -0.695524D-03  0.181477D-01
      8  0.614538D-02 -0.964522D-03  0.326005D-02 -0.890510D-02  0.578845D-02
      9  0.614641D-02 -0.964477D-03 -0.890521D-02  0.326005D-02  0.578771D-02
     10  0.219736D-01  0.351140D-01  0.175074D-02  0.135620D-03 -0.436316D-01
     11  0.219735D-01  0.351156D-01  0.135655D-03  0.175083D-02 -0.436315D-01
     12 -0.952870D-02 -0.463591D-02  0.556398D-02  0.556388D-02 -0.123390D-01
     13  0.614535D-02  0.578823D-02 -0.614654D-03  0.972815D-03 -0.963957D-03
     14  0.614627D-02  0.578823D-02  0.972853D-03 -0.614619D-03 -0.964478D-03
     15  0.219732D-01 -0.436326D-01 -0.101425D-02 -0.352750D-02  0.351146D-01
     16  0.219731D-01 -0.436326D-01 -0.352752D-02 -0.101422D-02  0.351136D-01
     17 -0.952886D-02 -0.123394D-01 -0.595853D-03 -0.595844D-03 -0.463602D-02
     18  0.124431D-01 -0.191871D-01 -0.742730D-04 -0.869553D-03 -0.191870D-01
     19  0.000000D+00 -0.138468D-01  0.117611D-02  0.380806D-03  0.138474D-01
     20  0.000000D+00  0.138469D-01 -0.380797D-03 -0.117612D-02 -0.138475D-01
     21 -0.124433D-01  0.191871D-01  0.869590D-03  0.742381D-04  0.191870D-01
                6             7             8             9            10 
      6  0.297871D+00
      7  0.102787D-02  0.297878D+00
      8 -0.614645D-03  0.972835D-03  0.717717D-01
      9  0.972806D-03 -0.614682D-03 -0.392742D-01  0.717719D-01
     10 -0.101417D-02 -0.352756D-02  0.385108D-02  0.407244D-02  0.756569D-01
     11 -0.352749D-02 -0.101400D-02  0.407209D-02  0.385127D-02 -0.387309D-01
     12 -0.595827D-03 -0.595811D-03 -0.302408D-01 -0.302409D-01 -0.106359D-01
     13  0.325990D-02 -0.890507D-02 -0.267186D-02  0.363309D-02  0.214064D-01
     14 -0.890501D-02  0.326011D-02  0.363303D-02 -0.267187D-02 -0.198544D-01
     15  0.175076D-02  0.135706D-03  0.214059D-01 -0.198539D-01 -0.540967D-01
     16  0.135570D-03  0.175057D-02 -0.198539D-01  0.214061D-01  0.401052D-01
     17  0.556393D-02  0.556379D-02 -0.699086D-03 -0.699120D-03 -0.112713D-02
     18 -0.742614D-04 -0.869618D-03  0.809343D-02  0.419251D-03 -0.749042D-02
     19 -0.380743D-03 -0.117614D-02  0.688701D-02 -0.787223D-03 -0.944716D-02
     20  0.117609D-02  0.380698D-03  0.787340D-03 -0.688718D-02  0.726721D-02
     21  0.869608D-03  0.741793D-04 -0.419080D-03 -0.809365D-02  0.531048D-02
               11            12            13            14            15 
     11  0.756573D-01
     12 -0.106358D-01  0.578864D-01
     13 -0.198544D-01 -0.699147D-03  0.717709D-01
     14  0.214066D-01 -0.699050D-03 -0.392743D-01  0.717715D-01
     15  0.401046D-01 -0.112711D-02  0.385178D-02  0.407203D-02  0.756562D-01
     16 -0.540971D-01 -0.112727D-02  0.407241D-02  0.385142D-02 -0.387300D-01
     17 -0.112731D-02  0.132033D-02 -0.302403D-01 -0.302408D-01 -0.106360D-01
     18 -0.531077D-02 -0.284007D-02  0.809302D-02  0.419082D-03 -0.749073D-02
     19 -0.726721D-02 -0.262315D-02  0.787559D-03 -0.688703D-02  0.726715D-02
     20  0.944718D-02  0.262318D-02  0.688674D-02 -0.787337D-03 -0.944715D-02
     21  0.749074D-02  0.284010D-02 -0.418727D-03 -0.809345D-02  0.531072D-02
               16            17            18            19            20 
     16  0.756563D-01
     17 -0.106360D-01  0.578860D-01
     18 -0.531038D-02 -0.284001D-02  0.347891D-01
     19  0.944709D-02  0.262315D-02  0.711610D-02  0.239642D-01
     20 -0.726705D-02 -0.262309D-02  0.711593D-02 -0.973205D-02  0.239642D-01
     21  0.749042D-02  0.284007D-02 -0.205571D-01  0.711602D-02  0.711620D-02
               21 
     21  0.347893D-01
 Leave Link  716 at Wed Feb 23 16:47:18 2022, MaxMem= 17179869184 cpu:               0.5 elap:               0.0
 (Enter /home/saurabh/gaussian/g16/l103.exe)

 GradGradGradGradGradGradGradGradGradGradGradGradGradGradGradGradGradGrad
 Berny optimization.
 Red2BG is reusing G-inverse.
 Internal  Forces:  Max     0.019675875 RMS     0.011834963
 Search for a local minimum.
 Step number   1 out of a maximum of  100
 All quantities printed in internal units (Hartrees-Bohrs-Radians)
 RMS Force = .11835D-01 SwitMx=.10000D-02 MixMth= 1
 Mixed Optimization -- RFO/linear search
 Second derivative matrix not updated -- analytic derivatives used.
 ITU=  0
     Eigenvalues ---    0.03032   0.03673   0.06015   0.09146   0.09356
     Eigenvalues ---    0.10052   0.12231   0.22418   0.28594   0.28919
     Eigenvalues ---    0.29660   0.29909   0.31210   0.33432   0.37818
 RFO step:  Lambda=-1.67264770D-02 EMin= 3.03180895D-02
 Linear search not attempted -- first point.
 Iteration  1 RMS(Cart)=  0.06769177 RMS(Int)=  0.00520386
 Iteration  2 RMS(Cart)=  0.00462762 RMS(Int)=  0.00242401
 Iteration  3 RMS(Cart)=  0.00000690 RMS(Int)=  0.00242401
 Iteration  4 RMS(Cart)=  0.00000000 RMS(Int)=  0.00242401
 ITry= 1 IFail=0 DXMaxC= 1.39D-01 DCOld= 1.00D+10 DXMaxT= 3.00D-01 DXLimC= 3.00D+00 Rises=F
 Variable       Old X    -DE/DX   Delta X   Delta X   Delta X     New X
                                 (Linear)    (Quad)   (Total)
    R1        2.79981  -0.00516   0.00000  -0.03238  -0.03179   2.76802
    R2        2.65604   0.01968   0.00000   0.03958   0.03928   2.69531
    R3        2.09720  -0.01626   0.00000  -0.05048  -0.05048   2.04672
    R4        2.09719  -0.01626   0.00000  -0.05047  -0.05047   2.04672
    R5        2.65605   0.01967   0.00000   0.03957   0.03927   2.69532
    R6        2.09720  -0.01626   0.00000  -0.05047  -0.05047   2.04672
    R7        2.09719  -0.01626   0.00000  -0.05047  -0.05047   2.04672
    A1        2.05261   0.00436   0.00000   0.03398   0.03015   2.08276
    A2        2.05261   0.00436   0.00000   0.03399   0.03015   2.08276
    A3        1.90020   0.00649   0.00000   0.08553   0.08362   1.98382
    A4        1.90019   0.00649   0.00000   0.08553   0.08363   1.98382
    A5        2.15694  -0.01180   0.00000  -0.10426  -0.10923   2.04771
    A6        2.05261   0.00436   0.00000   0.03398   0.03015   2.08276
    A7        2.05261   0.00436   0.00000   0.03399   0.03015   2.08276
    A8        1.90019   0.00649   0.00000   0.08554   0.08363   1.98382
    A9        1.90020   0.00649   0.00000   0.08553   0.08363   1.98382
   A10        2.15695  -0.01180   0.00000  -0.10426  -0.10923   2.04771
    D1        2.93077  -0.01673   0.00000  -0.19262  -0.19248   2.73829
    D2       -0.00000  -0.00000   0.00000   0.00000   0.00000  -0.00000
    D3        0.00001  -0.00000   0.00000  -0.00001  -0.00001   0.00000
    D4       -2.93076   0.01673   0.00000   0.19262   0.19247  -2.73829
         Item               Value     Threshold  Converged?
 Maximum Force            0.019676     0.000450     NO 
 RMS     Force            0.011835     0.000300     NO 
 Maximum Displacement     0.139305     0.001800     NO 
 RMS     Displacement     0.068741     0.001200     NO 
 Predicted change in Energy=-9.565239D-03
 Lowest energy point so far.  Saving SCF results.
 GradGradGradGradGradGradGradGradGradGradGradGradGradGradGradGradGradGrad

 Leave Link  103 at Wed Feb 23 16:47:18 2022, MaxMem= 17179869184 cpu:               0.3 elap:               0.0
 (Enter /home/saurabh/gaussian/g16/l202.exe)
                          Input orientation:                          
 ---------------------------------------------------------------------
 Center     Atomic      Atomic             Coordinates (Angstroms)
 Number     Number       Type             X           Y           Z
 ---------------------------------------------------------------------
      1          6           0       -7.741191    3.628494    0.048656
      2          6           0       -6.289039    3.792454   -0.051018
      3          8           0       -7.152453    4.926647   -0.001474
      4          1           0       -8.183461    3.388466    1.007742
      5          1           0       -8.308514    3.373899   -0.838130
      6          1           0       -5.804328    3.656647   -1.010014
      7          1           0       -5.679274    3.671212    0.835859
 ---------------------------------------------------------------------
                    Distance matrix (angstroms):
                    1          2          3          4          5
     1  C    0.000000
     2  C    1.464775   0.000000
     3  O    1.426299   1.426300   0.000000
     4  H    1.083080   2.207491   2.108909   0.000000
     5  H    1.083080   2.207491   2.108909   1.850160   0.000000
     6  H    2.207490   1.083080   2.108908   3.131060   2.525953
     7  H    2.207491   1.083080   2.108910   2.525954   3.131060
                    6          7
     6  H    0.000000
     7  H    1.850161   0.000000
 Stoichiometry    C2H4O
 Framework group  C1[X(C2H4O)]
 Deg. of freedom    15
 Full point group                 C1      NOp   1
 RotChk:  IX=0 Diff= 1.48D-05
 Largest Abelian subgroup         C1      NOp   1
 Largest concise Abelian subgroup C1      NOp   1
                         Standard orientation:                         
 ---------------------------------------------------------------------
 Center     Atomic      Atomic             Coordinates (Angstroms)
 Number     Number       Type             X           Y           Z
 ---------------------------------------------------------------------
      1          6           0        0.732387   -0.376449   -0.000000
      2          6           0       -0.732388   -0.376448    0.000000
      3          8           0        0.000002    0.847454   -0.000000
      4          1           0        1.262976   -0.565564   -0.925080
      5          1           0        1.262975   -0.565564    0.925080
      6          1           0       -1.262977   -0.565558    0.925081
      7          1           0       -1.262978   -0.565560   -0.925080
 ---------------------------------------------------------------------
 Rotational constants (GHZ):          25.8987114          22.2109054          14.2893394
 Leave Link  202 at Wed Feb 23 16:47:18 2022, MaxMem= 17179869184 cpu:               0.2 elap:               0.0
 (Enter /home/saurabh/gaussian/g16/l301.exe)
 Standard basis: CC-pVTZ+d (5D, 7F)
 Ernie: Thresh=  0.10000D-02 Tol=  0.10000D-05 Strict=F.
 Ernie:  9 primitive shells out of 110 were deleted.
 There are   165 symmetry adapted cartesian basis functions of A   symmetry.
 There are   146 symmetry adapted basis functions of A   symmetry.
   146 basis functions,   224 primitive gaussians,   165 cartesian basis functions
    12 alpha electrons       12 beta electrons
       nuclear repulsion energy        75.4609619192 Hartrees.
 IExCor=  402 DFT=T Ex+Corr=B3LYP ExCW=0 ScaHFX=  0.200000
 ScaDFX=  0.800000  0.720000  1.000000  0.810000 ScalE2=  1.000000  1.000000
 IRadAn=      5 IRanWt=     -1 IRanGd=            0 ICorTp=0 IEmpDi=  4
 NAtoms=    7 NActive=    7 NUniq=    7 SFac= 1.00D+00 NAtFMM=   60 NAOKFM=F Big=F
 Integral buffers will be    131072 words long.
 Raffenetti 2 integral format.
 Two-electron integral symmetry is turned on.
 Leave Link  301 at Wed Feb 23 16:47:18 2022, MaxMem= 17179869184 cpu:               1.0 elap:               0.1
 (Enter /home/saurabh/gaussian/g16/l302.exe)
 NPDir=0 NMtPBC=     1 NCelOv=     1 NCel=       1 NClECP=     1 NCelD=      1
         NCelK=      1 NCelE2=     1 NClLst=     1 CellRange=     0.0.
 One-electron integrals computed using PRISM.
 One-electron integral symmetry used in STVInt
 NBasis=   146 RedAO= T EigKep=  6.25D-04  NBF=   146
 NBsUse=   146 1.00D-06 EigRej= -1.00D+00 NBFU=   146
 Precomputing XC quadrature grid using
 IXCGrd= 4 IRadAn=           5 IRanWt=          -1 IRanGd=           0 AccXCQ= 0.00D+00.
 Generated NRdTot=       0 NPtTot=           0 NUsed=           0 NTot=          32
 NSgBfM=   165   165   165   165   165 MxSgAt=     7 MxSgA2=     7.
 Leave Link  302 at Wed Feb 23 16:47:19 2022, MaxMem= 17179869184 cpu:               3.3 elap:               0.2
 (Enter /home/saurabh/gaussian/g16/l303.exe)
 DipDrv:  MaxL=1.
 Leave Link  303 at Wed Feb 23 16:47:19 2022, MaxMem= 17179869184 cpu:               0.5 elap:               0.0
 (Enter /home/saurabh/gaussian/g16/l401.exe)
 Initial guess from the checkpoint file:  "CH2OCH2_w1u.chk"
 B after Tr=    -0.000000   -0.000000   -0.000000
         Rot=    1.000000   -0.000003   -0.000001   -0.000003 Ang=  -0.00 deg.
 Guess basis will be translated and rotated to current coordinates.
 JPrj=2 DoOrth=T DoCkMO=T.
 Generating alternative initial guess.
 ExpMin= 1.03D-01 ExpMax= 1.53D+04 ExpMxC= 5.22D+02 IAcc=3 IRadAn=         5 AccDes= 0.00D+00
 Harris functional with IExCor=  402 and IRadAn=       5 diagonalized for initial guess.
 HarFok:  IExCor=  402 AccDes= 0.00D+00 IRadAn=         5 IDoV= 1 UseB2=F ITyADJ=14
 ICtDFT=  3500011 ScaDFX=  1.000000  1.000000  1.000000  1.000000
 FoFCou: FMM=F IPFlag=           0 FMFlag=      100000 FMFlg1=           0
         NFxFlg=           0 DoJE=T BraDBF=F KetDBF=T FulRan=T
         wScrn=  0.000000 ICntrl=       500 IOpCl=  0 I1Cent=   200000004 NGrid=           0
         NMat0=    1 NMatS0=      1 NMatT0=    0 NMatD0=    1 NMtDS0=    0 NMtDT0=    0
 Petite list used in FoFCou.
 Harris En= -153.858480977881    
 Leave Link  401 at Wed Feb 23 16:47:19 2022, MaxMem= 17179869184 cpu:               6.9 elap:               0.3
 (Enter /home/saurabh/gaussian/g16/l502.exe)
 Keep R1 ints in memory in canonical form, NReq=79427406.
 FoFCou: FMM=F IPFlag=           0 FMFlag=           0 FMFlg1=           0
         NFxFlg=           0 DoJE=F BraDBF=F KetDBF=F FulRan=T
         wScrn=  0.000000 ICntrl=       600 IOpCl=  0 I1Cent=           0 NGrid=           0
         NMat0=    1 NMatS0=  10731 NMatT0=    0 NMatD0=    1 NMtDS0=    0 NMtDT0=    0
 Symmetry not used in FoFCou.
 Two-electron integral symmetry not used.
 Closed shell SCF:
 Using DIIS extrapolation, IDIIS=  1040.
 NGot= 17179869184 LenX= 17122226824 LenY= 17122199158
 Requested convergence on RMS density matrix=1.00D-08 within1000 cycles.
 Requested convergence on MAX density matrix=1.00D-06.
 Requested convergence on             energy=1.00D-06.
 No special actions if energy rises.
 Integral accuracy reduced to 1.0D-05 until final iterations.

 Cycle   1  Pass 0  IDiag  1:
 E= -153.845638709056    
 DIIS: error= 7.62D-03 at cycle   1 NSaved=   1.
 NSaved= 1 IEnMin= 1 EnMin= -153.845638709056     IErMin= 1 ErrMin= 7.62D-03
 ErrMax= 7.62D-03  0.00D+00 EMaxC= 1.00D-01 BMatC= 3.54D-03 BMatP= 3.54D-03
 IDIUse=3 WtCom= 9.24D-01 WtEn= 7.62D-02
 Coeff-Com:  0.100D+01
 Coeff-En:   0.100D+01
 Coeff:      0.100D+01
 Gap=     0.974 Goal=   None    Shift=    0.000
 GapD=    0.974 DampG=2.000 DampE=1.000 DampFc=2.0000 IDamp=-1.
 RMSDP=3.79D-04 MaxDP=6.83D-03              OVMax= 2.05D-02

 Cycle   2  Pass 0  IDiag  1:
 E= -153.848305417197     Delta-E=       -0.002666708141 Rises=F Damp=F
 DIIS: error= 1.30D-03 at cycle   2 NSaved=   2.
 NSaved= 2 IEnMin= 2 EnMin= -153.848305417197     IErMin= 2 ErrMin= 1.30D-03
 ErrMax= 1.30D-03  0.00D+00 EMaxC= 1.00D-01 BMatC= 8.67D-05 BMatP= 3.54D-03
 IDIUse=3 WtCom= 9.87D-01 WtEn= 1.30D-02
 Coeff-Com:  0.195D-01 0.980D+00
 Coeff-En:   0.000D+00 0.100D+01
 Coeff:      0.193D-01 0.981D+00
 Gap=     0.323 Goal=   None    Shift=    0.000
 RMSDP=7.74D-05 MaxDP=1.63D-03 DE=-2.67D-03 OVMax= 4.64D-03

 Cycle   3  Pass 0  IDiag  1:
 E= -153.848279475870     Delta-E=        0.000025941327 Rises=F Damp=F
 DIIS: error= 1.27D-03 at cycle   3 NSaved=   3.
 NSaved= 3 IEnMin= 2 EnMin= -153.848305417197     IErMin= 3 ErrMin= 1.27D-03
 ErrMax= 1.27D-03  0.00D+00 EMaxC= 1.00D-01 BMatC= 1.39D-04 BMatP= 8.67D-05
 IDIUse=3 WtCom= 2.19D-01 WtEn= 7.81D-01
 Coeff-Com: -0.838D-02 0.567D+00 0.441D+00
 Coeff-En:   0.000D+00 0.565D+00 0.435D+00
 Coeff:     -0.183D-02 0.565D+00 0.436D+00
 Gap=     0.321 Goal=   None    Shift=    0.000
 RMSDP=3.87D-05 MaxDP=8.94D-04 DE= 2.59D-05 OVMax= 3.40D-03

 Cycle   4  Pass 0  IDiag  1:
 E= -153.848389520064     Delta-E=       -0.000110044194 Rises=F Damp=F
 DIIS: error= 2.46D-04 at cycle   4 NSaved=   4.
 NSaved= 4 IEnMin= 4 EnMin= -153.848389520064     IErMin= 4 ErrMin= 2.46D-04
 ErrMax= 2.46D-04  0.00D+00 EMaxC= 1.00D-01 BMatC= 7.49D-06 BMatP= 8.67D-05
 IDIUse=3 WtCom= 9.98D-01 WtEn= 2.46D-03
 Coeff-Com: -0.606D-02 0.222D+00 0.231D+00 0.553D+00
 Coeff-En:   0.000D+00 0.000D+00 0.000D+00 0.100D+01
 Coeff:     -0.604D-02 0.221D+00 0.230D+00 0.554D+00
 Gap=     0.322 Goal=   None    Shift=    0.000
 RMSDP=1.36D-05 MaxDP=3.72D-04 DE=-1.10D-04 OVMax= 7.78D-04

 Cycle   5  Pass 0  IDiag  1:
 E= -153.848393873569     Delta-E=       -0.000004353505 Rises=F Damp=F
 DIIS: error= 8.51D-05 at cycle   5 NSaved=   5.
 NSaved= 5 IEnMin= 5 EnMin= -153.848393873569     IErMin= 5 ErrMin= 8.51D-05
 ErrMax= 8.51D-05  0.00D+00 EMaxC= 1.00D-01 BMatC= 8.64D-07 BMatP= 7.49D-06
 IDIUse=1 WtCom= 1.00D+00 WtEn= 0.00D+00
 Coeff-Com: -0.224D-02 0.351D-01 0.575D-01 0.289D+00 0.620D+00
 Coeff:     -0.224D-02 0.351D-01 0.575D-01 0.289D+00 0.620D+00
 Gap=     0.322 Goal=   None    Shift=    0.000
 RMSDP=4.27D-06 MaxDP=1.01D-04 DE=-4.35D-06 OVMax= 2.30D-04

 Initial convergence to 1.0D-05 achieved.  Increase integral accuracy.
 Cycle   6  Pass 1  IDiag  1:
 E= -153.848394161136     Delta-E=       -0.000000287567 Rises=F Damp=F
 DIIS: error= 1.25D-05 at cycle   1 NSaved=   1.
 NSaved= 1 IEnMin= 1 EnMin= -153.848394161136     IErMin= 1 ErrMin= 1.25D-05
 ErrMax= 1.25D-05  0.00D+00 EMaxC= 1.00D-01 BMatC= 1.15D-08 BMatP= 1.15D-08
 IDIUse=1 WtCom= 1.00D+00 WtEn= 0.00D+00
 Coeff-Com:  0.100D+01
 Coeff:      0.100D+01
 Gap=     0.322 Goal=   None    Shift=    0.000
 RMSDP=4.27D-06 MaxDP=1.01D-04 DE=-2.88D-07 OVMax= 6.64D-05

 Cycle   7  Pass 1  IDiag  1:
 E= -153.848394155622     Delta-E=        0.000000005513 Rises=F Damp=F
 DIIS: error= 1.31D-05 at cycle   2 NSaved=   2.
 NSaved= 2 IEnMin= 1 EnMin= -153.848394161136     IErMin= 1 ErrMin= 1.25D-05
 ErrMax= 1.31D-05  0.00D+00 EMaxC= 1.00D-01 BMatC= 2.12D-08 BMatP= 1.15D-08
 IDIUse=1 WtCom= 1.00D+00 WtEn= 0.00D+00
 Coeff-Com:  0.584D+00 0.416D+00
 Coeff:      0.584D+00 0.416D+00
 Gap=     0.322 Goal=   None    Shift=    0.000
 RMSDP=5.75D-07 MaxDP=1.51D-05 DE= 5.51D-09 OVMax= 4.46D-05

 Cycle   8  Pass 1  IDiag  1:
 E= -153.848394169747     Delta-E=       -0.000000014125 Rises=F Damp=F
 DIIS: error= 3.84D-06 at cycle   3 NSaved=   3.
 NSaved= 3 IEnMin= 3 EnMin= -153.848394169747     IErMin= 3 ErrMin= 3.84D-06
 ErrMax= 3.84D-06  0.00D+00 EMaxC= 1.00D-01 BMatC= 1.24D-09 BMatP= 1.15D-08
 IDIUse=1 WtCom= 1.00D+00 WtEn= 0.00D+00
 Coeff-Com:  0.198D+00 0.226D+00 0.576D+00
 Coeff:      0.198D+00 0.226D+00 0.576D+00
 Gap=     0.322 Goal=   None    Shift=    0.000
 RMSDP=1.07D-07 MaxDP=2.55D-06 DE=-1.41D-08 OVMax= 8.01D-06

 Cycle   9  Pass 1  IDiag  1:
 E= -153.848394170531     Delta-E=       -0.000000000783 Rises=F Damp=F
 DIIS: error= 5.60D-07 at cycle   4 NSaved=   4.
 NSaved= 4 IEnMin= 4 EnMin= -153.848394170531     IErMin= 4 ErrMin= 5.60D-07
 ErrMax= 5.60D-07  0.00D+00 EMaxC= 1.00D-01 BMatC= 1.92D-11 BMatP= 1.24D-09
 IDIUse=1 WtCom= 1.00D+00 WtEn= 0.00D+00
 Coeff-Com:  0.388D-01 0.546D-01 0.178D+00 0.729D+00
 Coeff:      0.388D-01 0.546D-01 0.178D+00 0.729D+00
 Gap=     0.322 Goal=   None    Shift=    0.000
 RMSDP=2.79D-08 MaxDP=5.25D-07 DE=-7.83D-10 OVMax= 1.49D-06

 Cycle  10  Pass 1  IDiag  1:
 E= -153.848394170546     Delta-E=       -0.000000000015 Rises=F Damp=F
 DIIS: error= 2.95D-07 at cycle   5 NSaved=   5.
 NSaved= 5 IEnMin= 5 EnMin= -153.848394170546     IErMin= 5 ErrMin= 2.95D-07
 ErrMax= 2.95D-07  0.00D+00 EMaxC= 1.00D-01 BMatC= 4.64D-12 BMatP= 1.92D-11
 IDIUse=1 WtCom= 1.00D+00 WtEn= 0.00D+00
 Coeff-Com: -0.130D-01-0.110D-01-0.172D-01 0.337D+00 0.705D+00
 Coeff:     -0.130D-01-0.110D-01-0.172D-01 0.337D+00 0.705D+00
 Gap=     0.322 Goal=   None    Shift=    0.000
 RMSDP=1.02D-08 MaxDP=2.03D-07 DE=-1.53D-11 OVMax= 5.42D-07

 Cycle  11  Pass 1  IDiag  1:
 E= -153.848394170549     Delta-E=       -0.000000000003 Rises=F Damp=F
 DIIS: error= 6.21D-09 at cycle   6 NSaved=   6.
 NSaved= 6 IEnMin= 6 EnMin= -153.848394170549     IErMin= 6 ErrMin= 6.21D-09
 ErrMax= 6.21D-09  0.00D+00 EMaxC= 1.00D-01 BMatC= 2.84D-15 BMatP= 4.64D-12
 IDIUse=1 WtCom= 1.00D+00 WtEn= 0.00D+00
 Coeff-Com: -0.528D-03-0.811D-03-0.225D-02 0.544D-02 0.129D-01 0.985D+00
 Coeff:     -0.528D-03-0.811D-03-0.225D-02 0.544D-02 0.129D-01 0.985D+00
 Gap=     0.322 Goal=   None    Shift=    0.000
 RMSDP=5.17D-10 MaxDP=6.67D-09 DE=-3.41D-12 OVMax= 3.44D-08

 SCF Done:  E(RB3LYP) =  -153.848394171     A.U. after   11 cycles
            NFock= 11  Conv=0.52D-09     -V/T= 2.0063
 KE= 1.528827820232D+02 PE=-5.105605224030D+02 EE= 1.283683842901D+02
 Leave Link  502 at Wed Feb 23 16:47:22 2022, MaxMem= 17179869184 cpu:              37.7 elap:               2.6
 (Enter /home/saurabh/gaussian/g16/l701.exe)
 ... and contract with generalized density number  0.
 Compute integral first derivatives.
 Leave Link  701 at Wed Feb 23 16:47:22 2022, MaxMem= 17179869184 cpu:               3.5 elap:               0.2
 (Enter /home/saurabh/gaussian/g16/l702.exe)
 L702 exits ... SP integral derivatives will be done elsewhere.
 Leave Link  702 at Wed Feb 23 16:47:22 2022, MaxMem= 17179869184 cpu:               0.4 elap:               0.0
 (Enter /home/saurabh/gaussian/g16/l703.exe)
 Integral derivatives from FoFJK, PRISM(SPDF).
 Compute integral first derivatives, UseDBF=F ICtDFT=           0.
 Calling FoFJK, ICntrl=      2127 FMM=F ISym2X=0 I1Cent= 0 IOpClX= 0 NMat=1 NMatS=1 NMatT=0.
 FoFJK:  IHMeth= 1 ICntrl=    2127 DoSepK=F KAlg= 0 I1Cent=           0 FoldK=F
 IRaf=         0 NMat=       1 IRICut=       1 DoRegI=T DoRafI=F ISym2E= 0 IDoP0=0 IntGTp=1.
 FoFCou: FMM=F IPFlag=           0 FMFlag=      100000 FMFlg1=         800
         NFxFlg=           0 DoJE=F BraDBF=F KetDBF=F FulRan=T
         wScrn=  0.000000 ICntrl=      2127 IOpCl=  0 I1Cent=           0 NGrid=           0
         NMat0=    1 NMatS0=      1 NMatT0=    0 NMatD0=    1 NMtDS0=    0 NMtDT0=    0
 Symmetry not used in FoFCou.
 Leave Link  703 at Wed Feb 23 16:47:23 2022, MaxMem= 17179869184 cpu:              23.1 elap:               1.1
 (Enter /home/saurabh/gaussian/g16/l716.exe)
 Dipole        =-1.71997899D-06-7.27659403D-01 7.25957003D-08
 ***** Axes restored to original set *****
 -------------------------------------------------------------------
 Center     Atomic                   Forces (Hartrees/Bohr)
 Number     Number              X              Y              Z
 -------------------------------------------------------------------
      1        6           0.000946657    0.004783702   -0.000102221
      2        6          -0.001989950    0.004452856    0.000099743
      3        8          -0.000451434    0.003999767   -0.000000835
      4        1          -0.001406717   -0.003510263   -0.000607983
      5        1          -0.001308052   -0.003498713    0.000847478
      6        1           0.002154156   -0.003108031    0.000609802
      7        1           0.002055340   -0.003119319   -0.000845984
 -------------------------------------------------------------------
 Cartesian Forces:  Max     0.004783702 RMS     0.002414965
 Leave Link  716 at Wed Feb 23 16:47:23 2022, MaxMem= 17179869184 cpu:               0.4 elap:               0.0
 (Enter /home/saurabh/gaussian/g16/l103.exe)

 GradGradGradGradGradGradGradGradGradGradGradGradGradGradGradGradGradGrad
 Berny optimization.
 Using GEDIIS/GDIIS optimizer.
 FormGI is forming the generalized inverse of G from B-inverse, IUseBI=4.
 Internal  Forces:  Max     0.004041143 RMS     0.001828484
 Search for a local minimum.
 Step number   2 out of a maximum of  100
 All quantities printed in internal units (Hartrees-Bohrs-Radians)
 RMS Force = .18285D-02 SwitMx=.10000D-02 MixMth= 1
 Mixed Optimization -- RFO/linear search
 Update second derivatives using D2CorX and points    1    2
 DE= -9.66D-03 DEPred=-9.57D-03 R= 1.01D+00
 TightC=F SS=  1.41D+00  RLast= 3.79D-01 DXNew= 5.0454D-01 1.1378D+00
 Trust test= 1.01D+00 RLast= 3.79D-01 DXMaxT set to 5.05D-01
 ITU=  1  0
 Use linear search instead of GDIIS.
     Eigenvalues ---    0.03032   0.03650   0.05751   0.09134   0.09318
     Eigenvalues ---    0.10052   0.12209   0.22418   0.28593   0.29638
     Eigenvalues ---    0.29659   0.29909   0.31110   0.33493   0.37816
 RFO step:  Lambda=-3.77656042D-04 EMin= 3.03176113D-02
 Quartic linear search produced a step of  0.19277.
 Iteration  1 RMS(Cart)=  0.01820693 RMS(Int)=  0.00081848
 Iteration  2 RMS(Cart)=  0.00042191 RMS(Int)=  0.00070971
 Iteration  3 RMS(Cart)=  0.00000020 RMS(Int)=  0.00070971
 ITry= 1 IFail=0 DXMaxC= 3.58D-02 DCOld= 1.00D+10 DXMaxT= 5.05D-01 DXLimC= 3.00D+00 Rises=F
 Variable       Old X    -DE/DX   Delta X   Delta X   Delta X     New X
                                 (Linear)    (Quad)   (Total)
    R1        2.76802   0.00030  -0.00613   0.00235  -0.00362   2.76440
    R2        2.69531   0.00261   0.00757  -0.00614   0.00135   2.69667
    R3        2.04672   0.00081  -0.00973   0.01356   0.00383   2.05055
    R4        2.04672   0.00081  -0.00973   0.01356   0.00383   2.05055
    R5        2.69532   0.00260   0.00757  -0.00614   0.00135   2.69667
    R6        2.04672   0.00081  -0.00973   0.01356   0.00383   2.05055
    R7        2.04672   0.00081  -0.00973   0.01356   0.00383   2.05055
    A1        2.08276   0.00047   0.00581  -0.00151   0.00317   2.08592
    A2        2.08276   0.00047   0.00581  -0.00151   0.00317   2.08593
    A3        1.98382   0.00162   0.01612   0.01244   0.02806   2.01188
    A4        1.98382   0.00162   0.01612   0.01244   0.02806   2.01188
    A5        2.04771  -0.00222  -0.02106  -0.00758  -0.03011   2.01760
    A6        2.08276   0.00047   0.00581  -0.00151   0.00317   2.08592
    A7        2.08276   0.00047   0.00581  -0.00152   0.00317   2.08592
    A8        1.98382   0.00162   0.01612   0.01244   0.02806   2.01188
    A9        1.98382   0.00162   0.01612   0.01244   0.02806   2.01188
   A10        2.04771  -0.00222  -0.02106  -0.00758  -0.03011   2.01760
    D1        2.73829  -0.00404  -0.03710  -0.03091  -0.06786   2.67043
    D2       -0.00000   0.00000   0.00000   0.00000   0.00000   0.00000
    D3        0.00000  -0.00000  -0.00000  -0.00000  -0.00000  -0.00000
    D4       -2.73829   0.00404   0.03710   0.03091   0.06786  -2.67043
         Item               Value     Threshold  Converged?
 Maximum Force            0.004041     0.000450     NO 
 RMS     Force            0.001828     0.000300     NO 
 Maximum Displacement     0.035838     0.001800     NO 
 RMS     Displacement     0.018246     0.001200     NO 
 Predicted change in Energy=-4.415037D-04
 Lowest energy point so far.  Saving SCF results.
 GradGradGradGradGradGradGradGradGradGradGradGradGradGradGradGradGradGrad

 Leave Link  103 at Wed Feb 23 16:47:23 2022, MaxMem= 17179869184 cpu:               0.3 elap:               0.0
 (Enter /home/saurabh/gaussian/g16/l202.exe)
                          Input orientation:                          
 ---------------------------------------------------------------------
 Center     Atomic      Atomic             Coordinates (Angstroms)
 Number     Number       Type             X           Y           Z
 ---------------------------------------------------------------------
      1          6           0       -7.742226    3.646169    0.048586
      2          6           0       -6.291972    3.809917   -0.050957
      3          8           0       -7.154594    4.945612   -0.001478
      4          1           0       -8.185399    3.374547    1.001096
      5          1           0       -8.309524    3.360090   -0.831066
      6          1           0       -5.799335    3.643514   -1.003362
      7          1           0       -5.675210    3.657972    0.828801
 ---------------------------------------------------------------------
                    Distance matrix (angstroms):
                    1          2          3          4          5
     1  C    0.000000
     2  C    1.462860   0.000000
     3  O    1.427014   1.427014   0.000000
     4  H    1.085107   2.209396   2.129779   0.000000
     5  H    1.085106   2.209395   2.129779   1.836419   0.000000
     6  H    2.209395   1.085106   2.129779   3.127858   2.532008
     7  H    2.209395   1.085106   2.129779   2.532008   3.127858
                    6          7
     6  H    0.000000
     7  H    1.836419   0.000000
 Stoichiometry    C2H4O
 Framework group  C1[X(C2H4O)]
 Deg. of freedom    15
 Full point group                 C1      NOp   1
 RotChk:  IX=0 Diff= 2.86D-06
 Largest Abelian subgroup         C1      NOp   1
 Largest concise Abelian subgroup C1      NOp   1
                         Standard orientation:                         
 ---------------------------------------------------------------------
 Center     Atomic      Atomic             Coordinates (Angstroms)
 Number     Number       Type             X           Y           Z
 ---------------------------------------------------------------------
      1          6           0        0.731430   -0.371702    0.000000
      2          6           0       -0.731430   -0.371702   -0.000000
      3          8           0       -0.000000    0.853606    0.000000
      4          1           0        1.266004   -0.592106   -0.918210
      5          1           0        1.266004   -0.592106    0.918209
      6          1           0       -1.266003   -0.592106    0.918210
      7          1           0       -1.266004   -0.592106   -0.918209
 ---------------------------------------------------------------------
 Rotational constants (GHZ):          25.7089903          22.2635841          14.2120750
 Leave Link  202 at Wed Feb 23 16:47:23 2022, MaxMem= 17179869184 cpu:               0.2 elap:               0.0
 (Enter /home/saurabh/gaussian/g16/l301.exe)
 Standard basis: CC-pVTZ+d (5D, 7F)
 Ernie: Thresh=  0.10000D-02 Tol=  0.10000D-05 Strict=F.
 Ernie:  9 primitive shells out of 110 were deleted.
 There are   165 symmetry adapted cartesian basis functions of A   symmetry.
 There are   146 symmetry adapted basis functions of A   symmetry.
   146 basis functions,   224 primitive gaussians,   165 cartesian basis functions
    12 alpha electrons       12 beta electrons
       nuclear repulsion energy        75.3582361322 Hartrees.
 IExCor=  402 DFT=T Ex+Corr=B3LYP ExCW=0 ScaHFX=  0.200000
 ScaDFX=  0.800000  0.720000  1.000000  0.810000 ScalE2=  1.000000  1.000000
 IRadAn=      5 IRanWt=     -1 IRanGd=            0 ICorTp=0 IEmpDi=  4
 NAtoms=    7 NActive=    7 NUniq=    7 SFac= 1.00D+00 NAtFMM=   60 NAOKFM=F Big=F
 Integral buffers will be    131072 words long.
 Raffenetti 2 integral format.
 Two-electron integral symmetry is turned on.
 Leave Link  301 at Wed Feb 23 16:47:23 2022, MaxMem= 17179869184 cpu:               0.9 elap:               0.1
 (Enter /home/saurabh/gaussian/g16/l302.exe)
 NPDir=0 NMtPBC=     1 NCelOv=     1 NCel=       1 NClECP=     1 NCelD=      1
         NCelK=      1 NCelE2=     1 NClLst=     1 CellRange=     0.0.
 One-electron integrals computed using PRISM.
 One-electron integral symmetry used in STVInt
 NBasis=   146 RedAO= T EigKep=  6.59D-04  NBF=   146
 NBsUse=   146 1.00D-06 EigRej= -1.00D+00 NBFU=   146
 Precomputing XC quadrature grid using
 IXCGrd= 4 IRadAn=           5 IRanWt=          -1 IRanGd=           0 AccXCQ= 0.00D+00.
 Generated NRdTot=       0 NPtTot=           0 NUsed=           0 NTot=          32
 NSgBfM=   165   165   165   165   165 MxSgAt=     7 MxSgA2=     7.
 Leave Link  302 at Wed Feb 23 16:47:23 2022, MaxMem= 17179869184 cpu:               3.3 elap:               0.2
 (Enter /home/saurabh/gaussian/g16/l303.exe)
 DipDrv:  MaxL=1.
 Leave Link  303 at Wed Feb 23 16:47:23 2022, MaxMem= 17179869184 cpu:               0.5 elap:               0.0
 (Enter /home/saurabh/gaussian/g16/l401.exe)
 Initial guess from the checkpoint file:  "CH2OCH2_w1u.chk"
 B after Tr=     0.000000    0.000000    0.000000
         Rot=    1.000000   -0.000000    0.000000   -0.000001 Ang=  -0.00 deg.
 Guess basis will be translated and rotated to current coordinates.
 JPrj=2 DoOrth=T DoCkMO=T.
 Generating alternative initial guess.
 ExpMin= 1.03D-01 ExpMax= 1.53D+04 ExpMxC= 5.22D+02 IAcc=3 IRadAn=         5 AccDes= 0.00D+00
 Harris functional with IExCor=  402 and IRadAn=       5 diagonalized for initial guess.
 HarFok:  IExCor=  402 AccDes= 0.00D+00 IRadAn=         5 IDoV= 1 UseB2=F ITyADJ=14
 ICtDFT=  3500011 ScaDFX=  1.000000  1.000000  1.000000  1.000000
 FoFCou: FMM=F IPFlag=           0 FMFlag=      100000 FMFlg1=           0
         NFxFlg=           0 DoJE=T BraDBF=F KetDBF=T FulRan=T
         wScrn=  0.000000 ICntrl=       500 IOpCl=  0 I1Cent=   200000004 NGrid=           0
         NMat0=    1 NMatS0=      1 NMatT0=    0 NMatD0=    1 NMtDS0=    0 NMtDT0=    0
 Petite list used in FoFCou.
 Harris En= -153.858603315597    
 Leave Link  401 at Wed Feb 23 16:47:24 2022, MaxMem= 17179869184 cpu:               7.1 elap:               0.4
 (Enter /home/saurabh/gaussian/g16/l502.exe)
 Keep R1 ints in memory in canonical form, NReq=79427406.
 FoFCou: FMM=F IPFlag=           0 FMFlag=           0 FMFlg1=           0
         NFxFlg=           0 DoJE=F BraDBF=F KetDBF=F FulRan=T
         wScrn=  0.000000 ICntrl=       600 IOpCl=  0 I1Cent=           0 NGrid=           0
         NMat0=    1 NMatS0=  10731 NMatT0=    0 NMatD0=    1 NMtDS0=    0 NMtDT0=    0
 Symmetry not used in FoFCou.
 Two-electron integral symmetry not used.
 Closed shell SCF:
 Using DIIS extrapolation, IDIIS=  1040.
 NGot= 17179869184 LenX= 17122226824 LenY= 17122199158
 Requested convergence on RMS density matrix=1.00D-08 within1000 cycles.
 Requested convergence on MAX density matrix=1.00D-06.
 Requested convergence on             energy=1.00D-06.
 No special actions if energy rises.
 Integral accuracy reduced to 1.0D-05 until final iterations.

 Cycle   1  Pass 0  IDiag  1:
 E= -153.848636284467    
 DIIS: error= 2.21D-03 at cycle   1 NSaved=   1.
 NSaved= 1 IEnMin= 1 EnMin= -153.848636284467     IErMin= 1 ErrMin= 2.21D-03
 ErrMax= 2.21D-03  0.00D+00 EMaxC= 1.00D-01 BMatC= 3.21D-04 BMatP= 3.21D-04
 IDIUse=3 WtCom= 9.78D-01 WtEn= 2.21D-02
 Coeff-Com:  0.100D+01
 Coeff-En:   0.100D+01
 Coeff:      0.100D+01
 Gap=     0.966 Goal=   None    Shift=    0.000
 GapD=    0.966 DampG=2.000 DampE=1.000 DampFc=2.0000 IDamp=-1.
 RMSDP=1.17D-04 MaxDP=2.26D-03              OVMax= 5.19D-03

 Cycle   2  Pass 0  IDiag  1:
 E= -153.848834554520     Delta-E=       -0.000198270054 Rises=F Damp=F
 DIIS: error= 4.52D-04 at cycle   2 NSaved=   2.
 NSaved= 2 IEnMin= 2 EnMin= -153.848834554520     IErMin= 2 ErrMin= 4.52D-04
 ErrMax= 4.52D-04  0.00D+00 EMaxC= 1.00D-01 BMatC= 1.85D-05 BMatP= 3.21D-04
 IDIUse=3 WtCom= 9.95D-01 WtEn= 4.52D-03
 Coeff-Com:  0.590D-01 0.941D+00
 Coeff-En:   0.000D+00 0.100D+01
 Coeff:      0.588D-01 0.941D+00
 Gap=     0.322 Goal=   None    Shift=    0.000
 RMSDP=3.40D-05 MaxDP=9.00D-04 DE=-1.98D-04 OVMax= 3.07D-03

 Cycle   3  Pass 0  IDiag  1:
 E= -153.848812035549     Delta-E=        0.000022518972 Rises=F Damp=F
 DIIS: error= 6.56D-04 at cycle   3 NSaved=   3.
 NSaved= 3 IEnMin= 2 EnMin= -153.848834554520     IErMin= 2 ErrMin= 4.52D-04
 ErrMax= 6.56D-04  0.00D+00 EMaxC= 1.00D-01 BMatC= 5.22D-05 BMatP= 1.85D-05
 IDIUse=3 WtCom= 2.81D-01 WtEn= 7.19D-01
 Coeff-Com: -0.182D-01 0.638D+00 0.381D+00
 Coeff-En:   0.000D+00 0.695D+00 0.305D+00
 Coeff:     -0.511D-02 0.679D+00 0.326D+00
 Gap=     0.323 Goal=   None    Shift=    0.000
 RMSDP=1.92D-05 MaxDP=4.79D-04 DE= 2.25D-05 OVMax= 1.59D-03

 Cycle   4  Pass 0  IDiag  1:
 E= -153.848847117187     Delta-E=       -0.000035081639 Rises=F Damp=F
 DIIS: error= 7.62D-05 at cycle   4 NSaved=   4.
 NSaved= 4 IEnMin= 4 EnMin= -153.848847117187     IErMin= 4 ErrMin= 7.62D-05
 ErrMax= 7.62D-05  0.00D+00 EMaxC= 1.00D-01 BMatC= 7.87D-07 BMatP= 1.85D-05
 IDIUse=1 WtCom= 1.00D+00 WtEn= 0.00D+00
 Coeff-Com: -0.510D-02 0.144D+00-0.187D-01 0.879D+00
 Coeff:     -0.510D-02 0.144D+00-0.187D-01 0.879D+00
 Gap=     0.323 Goal=   None    Shift=    0.000
 RMSDP=2.64D-06 MaxDP=5.66D-05 DE=-3.51D-05 OVMax= 1.74D-04

 Initial convergence to 1.0D-05 achieved.  Increase integral accuracy.
 Cycle   5  Pass 1  IDiag  1:
 E= -153.848847610838     Delta-E=       -0.000000493651 Rises=F Damp=F
 DIIS: error= 1.60D-05 at cycle   1 NSaved=   1.
 NSaved= 1 IEnMin= 1 EnMin= -153.848847610838     IErMin= 1 ErrMin= 1.60D-05
 ErrMax= 1.60D-05  0.00D+00 EMaxC= 1.00D-01 BMatC= 2.34D-08 BMatP= 2.34D-08
 IDIUse=1 WtCom= 1.00D+00 WtEn= 0.00D+00
 Coeff-Com:  0.100D+01
 Coeff:      0.100D+01
 Gap=     0.323 Goal=   None    Shift=    0.000
 RMSDP=2.64D-06 MaxDP=5.66D-05 DE=-4.94D-07 OVMax= 7.64D-05

 Cycle   6  Pass 1  IDiag  1:
 E= -153.848847603991     Delta-E=        0.000000006847 Rises=F Damp=F
 DIIS: error= 1.80D-05 at cycle   2 NSaved=   2.
 NSaved= 2 IEnMin= 1 EnMin= -153.848847610838     IErMin= 1 ErrMin= 1.60D-05
 ErrMax= 1.80D-05  0.00D+00 EMaxC= 1.00D-01 BMatC= 3.21D-08 BMatP= 2.34D-08
 IDIUse=1 WtCom= 1.00D+00 WtEn= 0.00D+00
 Coeff-Com:  0.540D+00 0.460D+00
 Coeff:      0.540D+00 0.460D+00
 Gap=     0.323 Goal=   None    Shift=    0.000
 RMSDP=8.69D-07 MaxDP=1.82D-05 DE= 6.85D-09 OVMax= 4.00D-05

 Cycle   7  Pass 1  IDiag  1:
 E= -153.848847632233     Delta-E=       -0.000000028242 Rises=F Damp=F
 DIIS: error= 1.80D-06 at cycle   3 NSaved=   3.
 NSaved= 3 IEnMin= 3 EnMin= -153.848847632233     IErMin= 3 ErrMin= 1.80D-06
 ErrMax= 1.80D-06  0.00D+00 EMaxC= 1.00D-01 BMatC= 3.86D-10 BMatP= 2.34D-08
 IDIUse=1 WtCom= 1.00D+00 WtEn= 0.00D+00
 Coeff-Com:  0.284D+00 0.251D+00 0.465D+00
 Coeff:      0.284D+00 0.251D+00 0.465D+00
 Gap=     0.323 Goal=   None    Shift=    0.000
 RMSDP=7.44D-08 MaxDP=1.88D-06 DE=-2.82D-08 OVMax= 5.92D-06

 Cycle   8  Pass 1  IDiag  1:
 E= -153.848847632461     Delta-E=       -0.000000000228 Rises=F Damp=F
 DIIS: error= 6.77D-07 at cycle   4 NSaved=   4.
 NSaved= 4 IEnMin= 4 EnMin= -153.848847632461     IErMin= 4 ErrMin= 6.77D-07
 ErrMax= 6.77D-07  0.00D+00 EMaxC= 1.00D-01 BMatC= 4.08D-11 BMatP= 3.86D-10
 IDIUse=1 WtCom= 1.00D+00 WtEn= 0.00D+00
 Coeff-Com:  0.163D-02 0.620D-02 0.244D+00 0.748D+00
 Coeff:      0.163D-02 0.620D-02 0.244D+00 0.748D+00
 Gap=     0.323 Goal=   None    Shift=    0.000
 RMSDP=2.46D-08 MaxDP=5.99D-07 DE=-2.28D-10 OVMax= 2.43D-06

 Cycle   9  Pass 1  IDiag  1:
 E= -153.848847632491     Delta-E=       -0.000000000031 Rises=F Damp=F
 DIIS: error= 1.21D-07 at cycle   5 NSaved=   5.
 NSaved= 5 IEnMin= 5 EnMin= -153.848847632491     IErMin= 5 ErrMin= 1.21D-07
 ErrMax= 1.21D-07  0.00D+00 EMaxC= 1.00D-01 BMatC= 8.53D-13 BMatP= 4.08D-11
 IDIUse=1 WtCom= 1.00D+00 WtEn= 0.00D+00
 Coeff-Com: -0.114D-01-0.874D-02 0.469D-01 0.242D+00 0.731D+00
 Coeff:     -0.114D-01-0.874D-02 0.469D-01 0.242D+00 0.731D+00
 Gap=     0.323 Goal=   None    Shift=    0.000
 RMSDP=3.77D-09 MaxDP=7.67D-08 DE=-3.06D-11 OVMax= 3.49D-07

 SCF Done:  E(RB3LYP) =  -153.848847632     A.U. after    9 cycles
            NFock=  9  Conv=0.38D-08     -V/T= 2.0065
 KE= 1.528623009156D+02 PE=-5.103226554865D+02 EE= 1.282532708061D+02
 Leave Link  502 at Wed Feb 23 16:47:26 2022, MaxMem= 17179869184 cpu:              32.7 elap:               2.2
 (Enter /home/saurabh/gaussian/g16/l701.exe)
[...]
         NMat0=    1 NMatS0=  29161 NMatT0=    0 NMatD0=    1 NMtDS0=    0 NMtDT0=    0
 Symmetry not used in FoFCou.
 Two-electron integral symmetry not used.
 CIDS: In Core Option IDoMem=           1.
 CCSD(T)
 =======
 Iterations=  50 Convergence= 0.100D-06
 Produce multiple copies of IABC intergrals
 Iteration Nr.   1
 **********************
 DD1Dir will call FoFMem   1 times, MxPair=       156
 NAB=    78 NAA=     0 NBB=     0.
 MP4(R+Q)=  0.15157922D-01
 Maximum subspace dimension=  5
 A-vector RMS=  1.6656497D-03 Max=  1.2410090D-02 conv= 1.00D-05.
 RLE energy=       -0.7443940559
 E3=       -0.16463169D-01        EUMP3=      -0.15376801611D+03
 E4(DQ)=    0.14470510D-02        UMP4(DQ)=   -0.15376656906D+03
 E4(SDQ)=  -0.52581848D-02        UMP4(SDQ)=  -0.15377327429D+03
 VARIATIONAL ENERGIES WITH THE FIRST-ORDER WAVEFUNCTION:
 DE(Corr)= -0.74439302     E(Corr)=     -153.75250061    
 NORM(A)=   0.10814598D+01
 Iteration Nr.   2
 **********************
 DD1Dir will call FoFMem   1 times, MxPair=       156
 NAB=    78 NAA=     0 NBB=     0.
 A-vector RMS=  2.3406849D-04 Max=  3.6460909D-03 conv= 1.00D-05.
 RLE energy=       -0.7627448794
 DE(Corr)= -0.76221143     E(CORR)=     -153.77031902     Delta=-1.78D-02
 NORM(A)=   0.10876005D+01
 Iteration Nr.   3
 **********************
 DD1Dir will call FoFMem   1 times, MxPair=       156
 NAB=    78 NAA=     0 NBB=     0.
 A-vector RMS=  2.3290528D-04 Max=  2.6314488D-03 conv= 1.00D-05.
 RLE energy=       -0.7634535534
 DE(Corr)= -0.76225714     E(CORR)=     -153.77036473     Delta=-4.57D-05
 NORM(A)=   0.10888300D+01
 Iteration Nr.   4
 **********************
 DD1Dir will call FoFMem   1 times, MxPair=       156
 NAB=    78 NAA=     0 NBB=     0.
 A-vector RMS=  4.5551975D-05 Max=  4.6897096D-04 conv= 1.00D-05.
 RLE energy=       -0.7635440872
 DE(Corr)= -0.76348183     E(CORR)=     -153.77158942     Delta=-1.22D-03
 NORM(A)=   0.10890990D+01
 Iteration Nr.   5
 **********************
 DD1Dir will call FoFMem   1 times, MxPair=       156
 NAB=    78 NAA=     0 NBB=     0.
 A-vector RMS=  2.4601097D-05 Max=  4.3426790D-04 conv= 1.00D-05.
 RLE energy=       -0.7636101155
 DE(Corr)= -0.76359205     E(CORR)=     -153.77169964     Delta=-1.10D-04
 NORM(A)=   0.10891687D+01
 Iteration Nr.   6
 **********************
 DD1Dir will call FoFMem   1 times, MxPair=       156
 NAB=    78 NAA=     0 NBB=     0.
 A-vector RMS=  3.8532257D-06 Max=  4.0215195D-05 conv= 1.00D-05.
 RLE energy=       -0.7636021042
 DE(Corr)= -0.76360029     E(CORR)=     -153.77170788     Delta=-8.24D-06
 NORM(A)=   0.10891728D+01
 Iteration Nr.   7
 **********************
 DD1Dir will call FoFMem   1 times, MxPair=       156
 NAB=    78 NAA=     0 NBB=     0.
 A-vector RMS=  2.3641457D-06 Max=  5.2186946D-05 conv= 1.00D-05.
 RLE energy=       -0.7635982430
 DE(Corr)= -0.76360169     E(CORR)=     -153.77170927     Delta=-1.39D-06
 NORM(A)=   0.10891726D+01
 Iteration Nr.   8
 **********************
 DD1Dir will call FoFMem   1 times, MxPair=       156
 NAB=    78 NAA=     0 NBB=     0.
 A-vector RMS=  6.3915477D-07 Max=  7.8277705D-06 conv= 1.00D-05.
 RLE energy=       -0.7636007795
 DE(Corr)= -0.76360104     E(CORR)=     -153.77170862     Delta= 6.48D-07
 NORM(A)=   0.10891738D+01
 Iteration Nr.   9
 **********************
 DD1Dir will call FoFMem   1 times, MxPair=       156
 NAB=    78 NAA=     0 NBB=     0.
 A-vector RMS=  2.8743599D-07 Max=  6.4768926D-06 conv= 1.00D-05.
 RLE energy=       -0.7636007530
 DE(Corr)= -0.76360087     E(CORR)=     -153.77170846     Delta= 1.66D-07
 NORM(A)=   0.10891742D+01
 Iteration Nr.  10
 **********************
 DD1Dir will call FoFMem   1 times, MxPair=       156
 NAB=    78 NAA=     0 NBB=     0.
 A-vector RMS=  9.7213125D-08 Max=  1.9448544D-06 conv= 1.00D-05.
 RLE energy=       -0.7636011548
 DE(Corr)= -0.76360112     E(CORR)=     -153.77170871     Delta=-2.49D-07
 NORM(A)=   0.10891745D+01
 Iteration Nr.  11
 **********************
 DD1Dir will call FoFMem   1 times, MxPair=       156
 NAB=    78 NAA=     0 NBB=     0.
 A-vector RMS=  2.5198059D-08 Max=  3.8377673D-07 conv= 1.00D-05.
 RLE energy=       -0.7636012098
 DE(Corr)= -0.76360118     E(CORR)=     -153.77170876     Delta=-5.62D-08
 NORM(A)=   0.10891746D+01
 CI/CC converged in   11 iterations to DelEn=-5.62D-08 Conv= 1.00D-07 ErrA1= 2.52D-08 Conv= 1.00D-05
 Wavefunction amplitudes converged. E(Corr)=     -153.77170876    
 Largest amplitude= 3.43D-02
 T4(AAA)= -0.77141917D-03
 T4(AAB)= -0.13188585D-01
 T5(AAA)=  0.39801595D-04
 T5(AAB)=  0.46258166D-03
 Time for triples=     3428.63 seconds.
 T4(CCSD)= -0.27920008D-01
 T5(CCSD)=  0.10047665D-02
 CCSD(T)= -0.15379862400D+03
 Discarding MO integrals.
 Leave Link  913 at Wed Feb 23 17:04:23 2022, MaxMem= 17179869184 cpu:            6166.6 elap:             280.3
 (Enter /home/saurabh/gaussian/g16/l601.exe)
 Copying SCF densities to generalized density rwf, IOpCl= 0 IROHF=0.

 **********************************************************************

            Population analysis using the SCF Density.

 **********************************************************************

 Orbital symmetries:
       Occupied  (A) (A) (A) (A) (A) (A) (A) (A) (A) (A) (A) (A)
       Virtual   (A) (A) (A) (A) (A) (A) (A) (A) (A) (A) (A) (A)
                 (A) (A) (A) (A) (A) (A) (A) (A) (A) (A) (A) (A)
                 (A) (A) (A) (A) (A) (A) (A) (A) (A) (A) (A) (A)
                 (A) (A) (A) (A) (A) (A) (A) (A) (A) (A) (A) (A)
                 (A) (A) (A) (A) (A) (A) (A) (A) (A) (A) (A) (A)
                 (A) (A) (A) (A) (A) (A) (A) (A) (A) (A) (A) (A)
                 (A) (A) (A) (A) (A) (A) (A) (A) (A) (A) (A) (A)
                 (A) (A) (A) (A) (A) (A) (A) (A) (A) (A) (A) (A)
                 (A) (A) (A) (A) (A) (A) (A) (A) (A) (A) (A) (A)
                 (A) (A) (A) (A) (A) (A) (A) (A) (A) (A) (A) (A)
                 (A) (A) (A) (A) (A) (A) (A) (A) (A) (A) (A) (A)
                 (A) (A) (A) (A) (A) (A) (A) (A) (A) (A) (A) (A)
                 (A) (A) (A) (A) (A) (A) (A) (A) (A) (A) (A) (A)
                 (A) (A) (A) (A) (A) (A) (A) (A) (A) (A) (A) (A)
                 (A) (A) (A) (A) (A) (A) (A) (A) (A) (A) (A) (A)
                 (A) (A) (A) (A) (A) (A) (A) (A) (A) (A) (A) (A)
                 (A) (A) (A) (A) (A) (A) (A) (A) (A) (A) (A) (A)
                 (A) (A) (A) (A) (A) (A) (A) (A) (A) (A) (A) (A)
                 (A) (A) (A) (A) (A) (A) (A) (A) (A) (A) (A) (A)
                 (A)
 The electronic state is 1-A.
 Alpha  occ. eigenvalues --  -20.58191 -11.28819 -11.28739  -1.41132  -0.93364
 Alpha  occ. eigenvalues --   -0.86178  -0.70420  -0.66041  -0.54714  -0.54215
 Alpha  occ. eigenvalues --   -0.45052  -0.45024
 Alpha virt. eigenvalues --    0.14909   0.17528   0.18538   0.23113   0.23467
 Alpha virt. eigenvalues --    0.25247   0.34899   0.35368   0.46051   0.48817
 Alpha virt. eigenvalues --    0.52096   0.56630   0.58800   0.59077   0.60845
 Alpha virt. eigenvalues --    0.61203   0.67853   0.69573   0.70354   0.70614
 Alpha virt. eigenvalues --    0.71159   0.90732   0.92392   0.95212   0.98737
 Alpha virt. eigenvalues --    1.08611   1.09020   1.17367   1.18720   1.19415
 Alpha virt. eigenvalues --    1.23098   1.25086   1.26184   1.31380   1.32880
 Alpha virt. eigenvalues --    1.33177   1.40709   1.41992   1.46113   1.53670
 Alpha virt. eigenvalues --    1.53992   1.56665   1.65091   1.68313   1.76234
 Alpha virt. eigenvalues --    1.97550   2.09724   2.15972   2.18882   2.23636
 Alpha virt. eigenvalues --    2.25008   2.31663   2.35288   2.39116   2.44749
 Alpha virt. eigenvalues --    2.59291   2.63439   2.83744   2.86468   2.92003
 Alpha virt. eigenvalues --    2.93024   2.94520   2.99608   3.08140   3.09737
 Alpha virt. eigenvalues --    3.20322   3.22480   3.22852   3.23655   3.28456
 Alpha virt. eigenvalues --    3.29690   3.31201   3.33746   3.35508   3.40684
 Alpha virt. eigenvalues --    3.45923   3.51014   3.54501   3.54561   3.62482
 Alpha virt. eigenvalues --    3.62617   3.75332   3.80200   3.80406   3.84898
 Alpha virt. eigenvalues --    3.91280   3.91427   3.98800   4.01190   4.08088
 Alpha virt. eigenvalues --    4.15964   4.19421   4.22403   4.31773   4.36103
 Alpha virt. eigenvalues --    4.39778   4.41593   4.42086   4.45525   4.54834
 Alpha virt. eigenvalues --    4.56093   4.78448   4.79649   4.92941   4.94468
 Alpha virt. eigenvalues --    4.97021   4.98040   5.02335   5.08390   5.09413
 Alpha virt. eigenvalues --    5.22218   5.34801   5.35393   5.37447   5.46474
 Alpha virt. eigenvalues --    5.60537   5.66359   5.71228   5.92271   5.99028
 Alpha virt. eigenvalues --    6.02666   6.04440   6.14143   6.23557   6.26371
 Alpha virt. eigenvalues --    6.47463   6.66633   6.78726   6.79380   7.04459
 Alpha virt. eigenvalues --    7.21930   7.32068   7.33964   7.52117   8.80690
 Alpha virt. eigenvalues --    8.90026   9.24975   9.33049   9.64054   9.69237
 Alpha virt. eigenvalues --   10.14208  10.25395  10.28359  10.29410  10.39581
 Alpha virt. eigenvalues --   10.43058  10.45908  10.50759  10.66189  10.67275
 Alpha virt. eigenvalues --   10.74319  10.77191  10.80435  10.92665  10.93413
 Alpha virt. eigenvalues --   11.05843  11.13645  11.20135  11.31798  11.35655
 Alpha virt. eigenvalues --   11.41597  11.75809  12.17145  12.30755  12.44334
 Alpha virt. eigenvalues --   12.46652  12.78622  12.91675  13.22725  13.27463
 Alpha virt. eigenvalues --   15.66048  16.25176  16.62999  18.58490  18.64030
 Alpha virt. eigenvalues --   18.91928  18.92195  18.94533  18.99977  19.46708
 Alpha virt. eigenvalues --   22.65393  22.71077  22.79269  22.87003  23.02996
 Alpha virt. eigenvalues --   23.13593  36.14474  36.19719  36.24475  36.41481
 Alpha virt. eigenvalues --   36.63289  36.65527  36.74028  36.85913  36.90390
 Alpha virt. eigenvalues --   37.34951  41.39062  41.43412  41.90367  41.93486
 Alpha virt. eigenvalues --   42.04484  42.21928  47.34980  47.44960  62.17105
 Alpha virt. eigenvalues --   62.25504  62.32155  62.33630  75.12883  75.28116
 Alpha virt. eigenvalues --   75.34299  75.41427  75.42105  75.42871  75.68723
 Alpha virt. eigenvalues --   75.87369  86.76563 168.13662 168.22968 309.77863
 Alpha virt. eigenvalues --  614.71504 614.791711123.630472492.182142492.24181
 Alpha virt. eigenvalues -- 4392.97021******************************
          Condensed to atoms (all electrons):
               1          2          3          4          5          6
     1  C    4.456098   0.382790   0.222618   0.428119   0.428119  -0.026076
     2  C    0.382790   4.456098   0.222618  -0.026076  -0.026076   0.428119
     3  O    0.222618   0.222618   8.069355  -0.023836  -0.023836  -0.023836
     4  H    0.428119  -0.026076  -0.023836   0.625378  -0.042448   0.000798
     5  H    0.428119  -0.026076  -0.023836  -0.042448   0.625378   0.000458
     6  H   -0.026076   0.428119  -0.023836   0.000798   0.000458   0.625378
     7  H   -0.026076   0.428119  -0.023836   0.000458   0.000798  -0.042448
               7
     1  C   -0.026076
     2  C    0.428119
     3  O   -0.023836
     4  H    0.000458
     5  H    0.000798
     6  H   -0.042448
     7  H    0.625378
 Mulliken charges:
               1
     1  C    0.134408
     2  C    0.134408
     3  O   -0.419246
     4  H    0.037607
     5  H    0.037608
     6  H    0.037607
     7  H    0.037607
 Sum of Mulliken charges =  -0.00000
 Mulliken charges with hydrogens summed into heavy atoms:
               1
     1  C    0.209623
     2  C    0.209623
     3  O   -0.419246
 Electronic spatial extent (au):  <R**2>=            129.9758
 Charge=             -0.0000 electrons
 Dipole moment (field-independent basis, Debye):
    X=              0.0000    Y=             -2.2062    Z=              0.0000  Tot=              2.2062
 Quadrupole moment (field-independent basis, Debye-Ang):
   XX=            -16.2432   YY=            -20.8388   ZZ=            -17.2140
   XY=              0.0000   XZ=              0.0000   YZ=              0.0000
 Traceless Quadrupole moment (field-independent basis, Debye-Ang):
   XX=              1.8554   YY=             -2.7401   ZZ=              0.8847
   XY=              0.0000   XZ=              0.0000   YZ=              0.0000
 Octapole moment (field-independent basis, Debye-Ang**2):
  XXX=              0.0000  YYY=              1.6639  ZZZ=              0.0000  XYY=             -0.0000
  XXY=             -0.1947  XXZ=             -0.0000  XZZ=              0.0000  YZZ=             -0.2668
  YYZ=             -0.0000  XYZ=             -0.0000
 Hexadecapole moment (field-independent basis, Debye-Ang**3):
 XXXX=            -76.2095 YYYY=            -58.4130 ZZZZ=            -29.1930 XXXY=             -0.0000
 XXXZ=              0.0000 YYYX=              0.0000 YYYZ=              0.0000 ZZZX=              0.0000
 ZZZY=             -0.0000 XXYY=            -21.3556 XXZZ=            -14.9053 YYZZ=            -14.7238
 XXYZ=              0.0000 YYXZ=              0.0000 ZZXY=              0.0000
 N-N= 7.535823613223D+01 E-N=-5.106732015192D+02  KE= 1.533782856612D+02
 Leave Link  601 at Wed Feb 23 17:04:23 2022, MaxMem= 17179869184 cpu:               1.0 elap:               0.1
 (Enter /home/saurabh/gaussian/g16/l9999.exe)
 Unable to Open any file for archive entry.
 1\1\GINC-MEDIAWIKI\SP\RCCSD(T)-Full\MTSmall\C2H4O1\SAURABH\23-Feb-2022
 \0\\#P Geom=AllCheck Guess=TCheck SCRF=Check CCSD(T,Full)/MTSmall int=
 dkh\\CH2OCH2_w1u\\0,1\C,0,-7.7422258697,3.6461687707,0.0485861854\C,0,
 -6.2919720186,3.8099165252,-0.0509569372\O,0,-7.1545943065,4.945611801
 1,-0.0014782335\H,0,-8.1853992249,3.3745472628,1.0010962754\H,0,-8.309
 5235626,3.3600899293,-0.8310660567\H,0,-5.7993349038,3.6435140304,-1.0
 033617776\H,0,-5.675210115,3.6579716804,0.8288005279\\Version=ES64L-G1
 6RevC.01\State=1-A\HF=-153.0081076\MP2=-153.7515529\MP3=-153.7680161\M
 P4D=-153.781727\MP4DQ=-153.7665691\MP4SDQ=-153.7732743\CCSD=-153.77170
 88\CCSD(T)=-153.798624\RMSD=8.638e-09\PG=C01 [X(C2H4O1)]\\@
 The archive entry for this job was punched.


 I take a simple view of life: keep your eyes open and get on with it.
 -- Laurence Olivier
 Diagonal vibrational polarizability:
        0.0000000       0.0000000       0.0000000

 W1 and W2 theory:
 J.M.L. Martin and G. de Oliveira, JCP 111, 1843 (1999)
 S. Parthiban and J.M.L. Martin, JCP 114, 6014 (2001)

 W1U   Energy Components

                         SCF                 CCSD               CCSD(T)
 AVDZ+2d            -152.888029         -153.396236         -153.413506
 AVTZ+2df           -152.928404         -153.529800         -153.555053
 AVQZ+2df           -152.937931         -153.568387

                        NR/FC              DKH/Full
 MTsmall            -153.561757         -153.798624

 Extrapolated Energy Components

                         SCF                 CCSD               CCSD(T)
                    -152.940896           -0.649508           -0.028222

 Core + Scalar Relativistic Component
                      -0.236867

 W1U   Electronic Energy          -153.855492

 Temperature=                298.150000 Pressure=                        1.000000
 E(ZPE)=                       0.056343 E(Thermal)=                      0.059516
 W1U  (0 K)=                -153.799150 W1U   Energy=                 -153.795976
 W1U   Enthalpy=            -153.795032 W1U   Free Energy=            -153.823233
 Unable to Open any file for archive entry.
 1\1\GINC-MEDIAWIKI\Mixed\W1U\W1U\C2H4O1\SAURABH\23-Feb-2022\0\\#p w1u 
 scf(verytight, maxcycles=1000) opt(calcfc, maxcyc=1000) int(grid=ultra
 fine)\\CH2OCH2_w1u\\0,1\C,0,-7.7422258697,3.6461687707,0.0485861854\C,
 0,-6.2919720186,3.8099165252,-0.0509569372\O,0,-7.1545943065,4.9456118
 011,-0.0014782335\H,0,-8.1853992249,3.3745472628,1.0010962754\H,0,-8.3
 095235626,3.3600899293,-0.8310660567\H,0,-5.7993349038,3.6435140304,-1
 .0033617776\H,0,-5.675210115,3.6579716804,0.8288005279\\Version=ES64L-
 G16RevC.01\State=1-A\HF/AVTZ+2d1f=-152.9284041\HF/AVQZ+2d1f=-152.93793
 13\HFExt=-152.9408956\CCSD/AVTZ+2d1f=-153.5297998\CCSD/AVQZ+2d1f=-153.
 568387\CCSDExt=-0.6495083\CCSD(T)/AVDZ+2d=-153.4135059\CCSD(T)/AVTZ+2d
 1f=0.\TExt=-0.0282216\CCSD(T)/MTsmall=-153.5617573\DK-CCSD(T,FU)/MTsma
 ll=-153.798624\Core+Rel=-0.2368667\W1=-153.7991497\W1sc=-153.7991497\F
 reqCoord=-14.6306864883,6.8902603806,0.0918145839,-11.8901038986,7.199
 69879,-0.0962946555,-13.5202237716,9.3458518224,-0.0027934564,-15.4681
 627552,6.3769701211,1.8917977849,-15.702723759,6.3496497204,-1.5704872
 386,-10.9591546728,6.8852436485,-1.8960789635,-10.7245928168,6.9125646
 473,1.5662060096\PG=C01 [X(C2H4O1)]\NImag=0\\0.57396946,0.16179218,0.2
 9822584,0.00331216,-0.00825056,0.64154163,-0.29150667,-0.06290640,0.01
 613158,0.63060051,-0.00605922,0.00999074,-0.00014747,-0.08575497,0.241
 60322,0.01568301,0.00370377,-0.06181198,0.00142903,0.00896681,0.641533
 68,-0.05227693,-0.05095013,-0.00034514,-0.09112880,0.07520851,0.001291
 47,0.17843799,-0.09462134,-0.19716277,0.00746660,0.11887970,-0.1583167
 7,-0.00730407,-0.02533895,0.39994833,-0.00000052,0.00450801,-0.0633413
 0,0.00094686,-0.00434547,-0.06333564,-0.00575242,-0.00072457,0.0909723
 9,-0.08981176,-0.02670746,0.09165647,-0.00893557,-0.00855650,0.0257900
 5,-0.00528761,-0.00485694,0.00050564,0.09685478,-0.02159580,-0.0520264
 8,0.04759726,0.00223562,-0.00370610,-0.01343633,-0.02264464,-0.0143199
 3,0.03005184,0.03725002,0.06313822,0.09367479,0.05078501,-0.27568360,-
 0.00287883,0.00002514,0.00134970,0.00187885,0.00422121,0.00865842,-0.1
 0279692,-0.05984200,0.28157862,-0.11789444,-0.03515506,-0.11253921,-0.
 01180548,-0.00886649,-0.02387633,-0.00531869,-0.00534917,0.00151407,0.
 00791954,0.00384516,0.01061065,0.12759368,-0.02969251,-0.05357246,-0.0
 4741759,0.00409155,-0.00348711,0.01310767,-0.02647743,-0.01482328,-0.0
 2635181,0.00433799,0.00475703,0.00462465,0.04698649,0.06498929,-0.1146
 4098,-0.04988898,-0.24605531,0.00460515,0.00125521,0.00400063,0.000447
 95,-0.00315762,0.00919283,-0.01404822,-0.00552199,-0.01685437,0.122962
 44,0.05732154,0.24898901,-0.01005066,0.00711585,0.02214018,-0.09844412
 ,0.01614004,0.09996467,-0.01171598,0.00545639,0.00719104,-0.00178823,0
 .00194153,-0.00063116,0.00107178,-0.00113222,-0.00019173,0.11138581,-0
 .00368917,-0.00258342,0.01885103,0.01102953,-0.04343088,-0.02606827,0.
 02324334,-0.00790773,-0.02917316,-0.00284010,0.00213816,-0.00050671,0.
 00127289,-0.00000455,-0.00086305,-0.02627109,0.04865302,-0.00279958,-0
 .00066426,0.00134209,0.10264550,-0.02872536,-0.27564701,0.00276077,-0.
 00368774,0.00867458,-0.00072703,0.00035246,0.00037744,0.00029293,-0.00
 064325,0.00057451,-0.11355008,0.03551974,0.28153299,-0.01242900,0.0068
 1101,-0.02035605,-0.12877987,0.01788863,-0.12028189,-0.01270998,0.0058
 3031,-0.00440467,0.00104885,-0.00103189,0.00014262,-0.00156641,0.00188
 613,0.00086540,0.00954140,-0.00274540,0.01137749,0.14489500,-0.0061341
 4,-0.00287145,-0.01809926,0.01242497,-0.04265309,0.02103042,0.02695929
 ,-0.00741785,0.02603516,0.00137298,0.00001911,0.00069271,-0.00273382,0
 .00214107,0.00085489,-0.00325049,0.00313540,-0.00215159,-0.02863879,0.
 04764681,0.00477113,-0.00019299,0.00400848,-0.12287928,0.02297114,-0.2
 4608937,-0.00028148,0.00318620,0.00917872,-0.00038000,0.00079877,0.000
 57379,0.00103546,-0.00064122,0.00015270,-0.01492293,0.00224043,-0.0168
 5459,0.13265711,-0.02836234,0.24903029\\0.00047249,0.00030559,-0.00003
 457,-0.00052864,0.00019264,0.00003445,0.00007304,-0.00064669,0.0000001
 4,0.00003811,0.00004193,0.00021034,0.00000941,0.00003863,-0.00021408,-
 0.00004657,0.00003227,-0.00021031,-0.00001784,0.00003564,0.00021402\\\
 @
 The archive entry for this job was punched.
 Job cpu time:       0 days  1 hours 49 minutes 34.3 seconds.
 Elapsed time:       0 days  0 hours  5 minutes  5.0 seconds.
 File lengths (MBytes):  RWF=  17142 Int=      0 D2E=      0 Chk=     11 Scr=      1
 Normal termination of Gaussian 16 at Wed Feb 23 17:04:26 2022.
