 Entering Gaussian System, Link 0=g16
 Input=CH3CH2OO_w1u.com
 Output=CH3CH2OO_w1u.log
 Initial command:
 /home/saurabh/gaussian/g16/l1.exe "/home/saurabh/gaussian/gauss_scr/Gau-5116.inp" -scrdir="/home/saurabh/gaussian/gauss_scr/"
 Entering Link 1 = /home/saurabh/gaussian/g16/l1.exe PID=      5117.
  
 Copyright (c) 1988-2019, Gaussian, Inc.  All Rights Reserved.
  
 This is part of the Gaussian(R) 16 program.  It is based on
 the Gaussian(R) 09 system (copyright 2009, Gaussian, Inc.),
 the Gaussian(R) 03 system (copyright 2003, Gaussian, Inc.),
 the Gaussian(R) 98 system (copyright 1998, Gaussian, Inc.),
 the Gaussian(R) 94 system (copyright 1995, Gaussian, Inc.),
 the Gaussian 92(TM) system (copyright 1992, Gaussian, Inc.),
 the Gaussian 90(TM) system (copyright 1990, Gaussian, Inc.),
 the Gaussian 88(TM) system (copyright 1988, Gaussian, Inc.),
 the Gaussian 86(TM) system (copyright 1986, Carnegie Mellon
 University), and the Gaussian 82(TM) system (copyright 1983,
 Carnegie Mellon University). Gaussian is a federally registered
 trademark of Gaussian, Inc.
  
 This software contains proprietary and confidential information,
 including trade secrets, belonging to Gaussian, Inc.
  
 This software is provided under written license and may be
 used, copied, transmitted, or stored only in accord with that
 written license.
  
 The following legend is applicable only to US Government
 contracts under FAR:
  
                    RESTRICTED RIGHTS LEGEND
  
 Use, reproduction and disclosure by the US Government is
 subject to restrictions as set forth in subparagraphs (a)
 and (c) of the Commercial Computer Software - Restricted
 Rights clause in FAR 52.227-19.
  
 Gaussian, Inc.
 340 Quinnipiac St., Bldg. 40, Wallingford CT 06492
  
  
 ---------------------------------------------------------------
 Warning -- This program may not be used in any manner that
 competes with the business of Gaussian, Inc. or will provide
 assistance to any competitor of Gaussian, Inc.  The licensee
 of this program is prohibited from giving any competitor of
 Gaussian, Inc. access to this program.  By using this program,
 the user acknowledges that Gaussian, Inc. is engaged in the
 business of creating and licensing software in the field of
 computational chemistry and represents and warrants to the
 licensee that it is not a competitor of Gaussian, Inc. and that
 it will not use this program in any manner prohibited above.
 ---------------------------------------------------------------
  

 Cite this work as:
 Gaussian 16, Revision C.01,
 M. J. Frisch, G. W. Trucks, H. B. Schlegel, G. E. Scuseria, 
 M. A. Robb, J. R. Cheeseman, G. Scalmani, V. Barone, 
 G. A. Petersson, H. Nakatsuji, X. Li, M. Caricato, A. V. Marenich, 
 J. Bloino, B. G. Janesko, R. Gomperts, B. Mennucci, H. P. Hratchian, 
 J. V. Ortiz, A. F. Izmaylov, J. L. Sonnenberg, D. Williams-Young, 
 F. Ding, F. Lipparini, F. Egidi, J. Goings, B. Peng, A. Petrone, 
 T. Henderson, D. Ranasinghe, V. G. Zakrzewski, J. Gao, N. Rega, 
 G. Zheng, W. Liang, M. Hada, M. Ehara, K. Toyota, R. Fukuda, 
 J. Hasegawa, M. Ishida, T. Nakajima, Y. Honda, O. Kitao, H. Nakai, 
 T. Vreven, K. Throssell, J. A. Montgomery, Jr., J. E. Peralta, 
 F. Ogliaro, M. J. Bearpark, J. J. Heyd, E. N. Brothers, K. N. Kudin, 
 V. N. Staroverov, T. A. Keith, R. Kobayashi, J. Normand, 
 K. Raghavachari, A. P. Rendell, J. C. Burant, S. S. Iyengar, 
 J. Tomasi, M. Cossi, J. M. Millam, M. Klene, C. Adamo, R. Cammi, 
 J. W. Ochterski, R. L. Martin, K. Morokuma, O. Farkas, 
 J. B. Foresman, and D. J. Fox, Gaussian, Inc., Wallingford CT, 2019.
 
 ******************************************
 Gaussian 16:  ES64L-G16RevC.01  3-Jul-2019
                22-Feb-2022 
 ******************************************
 %nproc=22
 Will use up to   22 processors via shared memory.
 %mem=128GB
 %chk=CH3CH2OO_w1u.chk
 ----------------------------------------------------------------------
 #p w1u scf(verytight, maxcycles=1000) opt(calcfc, maxcyc=1000) int(gri
 d=ultrafine)
 ----------------------------------------------------------------------
 1/6=1000,10=4,18=20,19=15,26=4,38=1/1,3;
 2/9=110,12=2,17=6,18=5,40=1/2;
 3/5=16,6=1,7=9,11=2,25=1,30=1,71=2,74=-5,75=-5,140=1/1,2,3;
 4//1;
 5/5=2,7=1000,17=3,38=5/2;
 8/6=4,10=90,11=11/1;
 11/6=1,8=1,9=11,15=111,16=1/1,2,10;
 10/6=1,13=1/2;
 6/7=2,8=2,9=2,10=2,28=1/1;
 7/10=1,25=1/1,2,3,16;
 1/6=1000,10=4,18=20,19=15,26=4/3(2);
 2/9=110/2;
 99//99;
 2/9=110/2;
 3/5=16,6=1,7=9,11=2,25=1,30=1,71=1,74=-5,75=-5/1,2,3;
 4/5=5,16=3,69=1/1;
 5/5=2,7=1000,17=3,38=5/2;
 7//1,2,3,16;
 1/6=1000,18=20,19=15,26=4/3(-5);
 2/9=110/2;
 6/7=2,8=2,9=2,10=2,19=2,28=1/1;
 99/9=1/99;
 Leave Link    1 at Tue Feb 22 12:10:59 2022, MaxMem= 17179869184 cpu:               1.1 elap:               0.1
 (Enter /home/saurabh/gaussian/g16/l101.exe)
 ------------
 CH3CH2OO_w1u
 ------------
 Symbolic Z-matrix:
 Charge =  0 Multiplicity = 2
 C                    -4.47827   2.13007   0.0739 
 C                    -3.0934    2.71614  -0.156 
 H                    -4.55029   1.12673  -0.39724 
 H                    -5.24667   2.79439  -0.375 
 H                    -4.67593   2.03561   1.16286 
 O                    -2.13236   1.8693    0.41474 
 H                    -2.92847   2.80346  -1.25382 
 H                    -3.05537   3.72132   0.3217 
 O                    -0.9663    2.43833   0.17726 
 
 ITRead=  0  0  0  0  0  0  0  0  0
 MicOpt= -1 -1 -1 -1 -1 -1 -1 -1 -1
 NAtoms=      9 NQM=        9 NQMF=       0 NMMI=      0 NMMIF=      0
                NMic=       0 NMicF=      0.
                    Isotopes and Nuclear Properties:
 (Nuclear quadrupole moments (NQMom) in fm**2, nuclear magnetic moments (NMagM)
  in nuclear magnetons)

  Atom         1           2           3           4           5           6           7           8           9
 IAtWgt=          12          12           1           1           1          16           1           1          16
 AtmWgt=  12.0000000  12.0000000   1.0078250   1.0078250   1.0078250  15.9949146   1.0078250   1.0078250  15.9949146
 NucSpn=           0           0           1           1           1           0           1           1           0
 AtZEff=  -0.0000000  -0.0000000  -0.0000000  -0.0000000  -0.0000000  -0.0000000  -0.0000000  -0.0000000  -0.0000000
 NQMom=    0.0000000   0.0000000   0.0000000   0.0000000   0.0000000   0.0000000   0.0000000   0.0000000   0.0000000
 NMagM=    0.0000000   0.0000000   2.7928460   2.7928460   2.7928460   0.0000000   2.7928460   2.7928460   0.0000000
 AtZNuc=   6.0000000   6.0000000   1.0000000   1.0000000   1.0000000   8.0000000   1.0000000   1.0000000   8.0000000
 Leave Link  101 at Tue Feb 22 12:11:00 2022, MaxMem= 17179869184 cpu:               8.6 elap:               0.4
 (Enter /home/saurabh/gaussian/g16/l103.exe)

 GradGradGradGradGradGradGradGradGradGradGradGradGradGradGradGradGradGrad
 Berny optimization.
 Initialization pass.
                           ----------------------------
                           !    Initial Parameters    !
                           ! (Angstroms and Degrees)  !
 --------------------------                            --------------------------
 ! Name  Definition              Value          Derivative Info.                !
 --------------------------------------------------------------------------------
 ! R1    R(1,2)                  1.5212         calculate D2E/DX2 analytically  !
 ! R2    R(1,3)                  1.1108         calculate D2E/DX2 analytically  !
 ! R3    R(1,4)                  1.1105         calculate D2E/DX2 analytically  !
 ! R4    R(1,5)                  1.1108         calculate D2E/DX2 analytically  !
 ! R5    R(2,6)                  1.4023         calculate D2E/DX2 analytically  !
 ! R6    R(2,7)                  1.1136         calculate D2E/DX2 analytically  !
 ! R7    R(2,8)                  1.1136         calculate D2E/DX2 analytically  !
 ! R8    R(6,9)                  1.319          calculate D2E/DX2 analytically  !
 ! A1    A(2,1,3)              110.0545         calculate D2E/DX2 analytically  !
 ! A2    A(2,1,4)              109.776          calculate D2E/DX2 analytically  !
 ! A3    A(2,1,5)              110.0545         calculate D2E/DX2 analytically  !
 ! A4    A(3,1,4)              108.9065         calculate D2E/DX2 analytically  !
 ! A5    A(3,1,5)              109.1151         calculate D2E/DX2 analytically  !
 ! A6    A(4,1,5)              108.9067         calculate D2E/DX2 analytically  !
 ! A7    A(1,2,6)              109.2522         calculate D2E/DX2 analytically  !
 ! A8    A(1,2,7)              108.3023         calculate D2E/DX2 analytically  !
 ! A9    A(1,2,8)              108.3015         calculate D2E/DX2 analytically  !
 ! A10   A(6,2,7)              110.3097         calculate D2E/DX2 analytically  !
 ! A11   A(6,2,8)              110.3106         calculate D2E/DX2 analytically  !
 ! A12   A(7,2,8)              110.3085         calculate D2E/DX2 analytically  !
 ! A13   A(2,6,9)              105.7862         calculate D2E/DX2 analytically  !
 ! D1    D(3,1,2,6)            -60.1445         calculate D2E/DX2 analytically  !
 ! D2    D(3,1,2,7)             60.0386         calculate D2E/DX2 analytically  !
 ! D3    D(3,1,2,8)            179.6716         calculate D2E/DX2 analytically  !
 ! D4    D(4,1,2,6)           -179.9998         calculate D2E/DX2 analytically  !
 ! D5    D(4,1,2,7)            -59.8167         calculate D2E/DX2 analytically  !
 ! D6    D(4,1,2,8)             59.8164         calculate D2E/DX2 analytically  !
 ! D7    D(5,1,2,6)             60.1447         calculate D2E/DX2 analytically  !
 ! D8    D(5,1,2,7)           -179.6722         calculate D2E/DX2 analytically  !
 ! D9    D(5,1,2,8)            -60.0391         calculate D2E/DX2 analytically  !
 ! D10   D(1,2,6,9)           -179.9955         calculate D2E/DX2 analytically  !
 ! D11   D(7,2,6,9)             61.0612         calculate D2E/DX2 analytically  !
 ! D12   D(8,2,6,9)            -61.0526         calculate D2E/DX2 analytically  !
 --------------------------------------------------------------------------------
 Trust Radius=3.00D-01 FncErr=1.00D-07 GrdErr=1.00D-06 EigMax=2.50D+02 EigMin=1.00D-04
 Number of steps in this run=    100 maximum allowed number of steps=    100.
 GradGradGradGradGradGradGradGradGradGradGradGradGradGradGradGradGradGrad

 Leave Link  103 at Tue Feb 22 12:11:00 2022, MaxMem= 17179869184 cpu:               0.2 elap:               0.0
 (Enter /home/saurabh/gaussian/g16/l202.exe)
                          Input orientation:                          
 ---------------------------------------------------------------------
 Center     Atomic      Atomic             Coordinates (Angstroms)
 Number     Number       Type             X           Y           Z
 ---------------------------------------------------------------------
      1          6           0       -4.478270    2.130070    0.073900
      2          6           0       -3.093400    2.716140   -0.156000
      3          1           0       -4.550290    1.126730   -0.397240
      4          1           0       -5.246670    2.794390   -0.375000
      5          1           0       -4.675930    2.035610    1.162860
      6          8           0       -2.132360    1.869300    0.414740
      7          1           0       -2.928470    2.803460   -1.253820
      8          1           0       -3.055370    3.721320    0.321700
      9          8           0       -0.966300    2.438330    0.177260
 ---------------------------------------------------------------------
                    Distance matrix (angstroms):
                    1          2          3          4          5
     1  C    0.000000
     2  C    1.521248   0.000000
     3  H    1.110788   2.169550   0.000000
     4  H    1.110527   2.165792   1.807354   0.000000
     5  H    1.110777   2.169542   1.809906   1.807347   0.000000
     6  O    2.384841   1.402312   2.656522   3.343413   2.656519
     7  H    2.148994   1.113569   2.485046   2.479205   3.079538
     8  H    2.148983   1.113567   3.079539   2.479191   2.485032
     9  O    3.526987   2.170897   3.859447   4.330512   3.859397
                    6          7          8          9
     6  O    0.000000
     7  H    2.071362   0.000000
     8  H    2.071372   1.827795   0.000000
     9  O    1.319048   2.455895   2.455838   0.000000
 Stoichiometry    C2H5O2(2)
 Framework group  C1[X(C2H5O2)]
 Deg. of freedom    21
 Full point group                 C1      NOp   1
 Largest Abelian subgroup         C1      NOp   1
 Largest concise Abelian subgroup C1      NOp   1
                         Standard orientation:                         
 ---------------------------------------------------------------------
 Center     Atomic      Atomic             Coordinates (Angstroms)
 Number     Number       Type             X           Y           Z
 ---------------------------------------------------------------------
      1          6           0        1.733518   -0.145511   -0.000022
      2          6           0        0.350664    0.488454    0.000024
      3          1           0        1.863323   -0.776449    0.904919
      4          1           0        2.510581    0.647864   -0.000022
      5          1           0        1.863278   -0.776405   -0.904987
      6          8           0       -0.621369   -0.522305    0.000029
      7          1           0        0.254320    1.117352    0.913939
      8          1           0        0.254293    1.117394   -0.913856
      9          8           0       -1.784992    0.098878   -0.000029
 ---------------------------------------------------------------------
 Rotational constants (GHZ):          33.4814967           4.5627483           4.2401879
 Leave Link  202 at Tue Feb 22 12:11:00 2022, MaxMem= 17179869184 cpu:               0.2 elap:               0.0
 (Enter /home/saurabh/gaussian/g16/l301.exe)
 Standard basis: CC-pVTZ+d (5D, 7F)
 Ernie: Thresh=  0.10000D-02 Tol=  0.10000D-05 Strict=F.
 Ernie:  12 primitive shells out of 144 were deleted.
 There are   215 symmetry adapted cartesian basis functions of A   symmetry.
 There are   190 symmetry adapted basis functions of A   symmetry.
   190 basis functions,   293 primitive gaussians,   215 cartesian basis functions
    17 alpha electrons       16 beta electrons
       nuclear repulsion energy       125.0149067418 Hartrees.
 IExCor=  402 DFT=T Ex+Corr=B3LYP ExCW=0 ScaHFX=  0.200000
 ScaDFX=  0.800000  0.720000  1.000000  0.810000 ScalE2=  1.000000  1.000000
 IRadAn=      5 IRanWt=     -1 IRanGd=            0 ICorTp=0 IEmpDi=  4
 NAtoms=    9 NActive=    9 NUniq=    9 SFac= 1.00D+00 NAtFMM=   60 NAOKFM=F Big=F
 Integral buffers will be    131072 words long.
 Raffenetti 2 integral format.
 Two-electron integral symmetry is turned on.
 Leave Link  301 at Tue Feb 22 12:11:00 2022, MaxMem= 17179869184 cpu:               1.2 elap:               0.1
 (Enter /home/saurabh/gaussian/g16/l302.exe)
 NPDir=0 NMtPBC=     1 NCelOv=     1 NCel=       1 NClECP=     1 NCelD=      1
         NCelK=      1 NCelE2=     1 NClLst=     1 CellRange=     0.0.
 One-electron integrals computed using PRISM.
 One-electron integral symmetry used in STVInt
 NBasis=   190 RedAO= T EigKep=  1.14D-03  NBF=   190
 NBsUse=   190 1.00D-06 EigRej= -1.00D+00 NBFU=   190
 Precomputing XC quadrature grid using
 IXCGrd= 4 IRadAn=           5 IRanWt=          -1 IRanGd=           0 AccXCQ= 0.00D+00.
 Generated NRdTot=       0 NPtTot=           0 NUsed=           0 NTot=          32
 NSgBfM=   215   215   215   215   215 MxSgAt=     9 MxSgA2=     9.
 Leave Link  302 at Tue Feb 22 12:11:00 2022, MaxMem= 17179869184 cpu:               4.0 elap:               0.2
 (Enter /home/saurabh/gaussian/g16/l303.exe)
 DipDrv:  MaxL=1.
 Leave Link  303 at Tue Feb 22 12:11:00 2022, MaxMem= 17179869184 cpu:               0.7 elap:               0.1
 (Enter /home/saurabh/gaussian/g16/l401.exe)
 ExpMin= 1.03D-01 ExpMax= 1.53D+04 ExpMxC= 5.22D+02 IAcc=3 IRadAn=         5 AccDes= 0.00D+00
 Harris functional with IExCor=  402 and IRadAn=       5 diagonalized for initial guess.
 HarFok:  IExCor=  402 AccDes= 0.00D+00 IRadAn=         5 IDoV= 1 UseB2=F ITyADJ=14
 ICtDFT=  3500011 ScaDFX=  1.000000  1.000000  1.000000  1.000000
 FoFCou: FMM=F IPFlag=           0 FMFlag=      100000 FMFlg1=           0
         NFxFlg=           0 DoJE=T BraDBF=F KetDBF=T FulRan=T
         wScrn=  0.000000 ICntrl=       500 IOpCl=  0 I1Cent=   200000004 NGrid=           0
         NMat0=    1 NMatS0=      1 NMatT0=    0 NMatD0=    1 NMtDS0=    0 NMtDT0=    0
 Petite list used in FoFCou.
 Harris En= -229.624276094951    
 JPrj=0 DoOrth=F DoCkMO=F.
 Initial guess <Sx>= 0.0000 <Sy>= 0.0000 <Sz>= 0.5000 <S**2>= 0.7500 S= 0.5000
 Leave Link  401 at Tue Feb 22 12:11:01 2022, MaxMem= 17179869184 cpu:               7.6 elap:               0.4
 (Enter /home/saurabh/gaussian/g16/l502.exe)
 Keep R1 and R2 ints in memory in canonical form, NReq=352202282.
 FoFCou: FMM=F IPFlag=           0 FMFlag=           0 FMFlg1=           0
         NFxFlg=           0 DoJE=F BraDBF=F KetDBF=F FulRan=T
         wScrn=  0.000000 ICntrl=       600 IOpCl=  0 I1Cent=           0 NGrid=           0
         NMat0=    1 NMatS0=  18145 NMatT0=    0 NMatD0=    1 NMtDS0=    0 NMtDT0=    0
 Symmetry not used in FoFCou.
 Two-electron integral symmetry not used.
 UHF open shell SCF:
 Using DIIS extrapolation, IDIIS=  1040.
 NGot= 17179869184 LenX= 16850510632 LenY= 16850463966
 Requested convergence on RMS density matrix=1.00D-08 within1000 cycles.
 Requested convergence on MAX density matrix=1.00D-06.
 Requested convergence on             energy=1.00D-06.
 No special actions if energy rises.
 Integral accuracy reduced to 1.0D-05 until final iterations.

 Cycle   1  Pass 0  IDiag  1:
 E= -229.508439049712    
 DIIS: error= 3.26D-02 at cycle   1 NSaved=   1.
 NSaved= 1 IEnMin= 1 EnMin= -229.508439049712     IErMin= 1 ErrMin= 3.26D-02
 ErrMax= 3.26D-02  0.00D+00 EMaxC= 1.00D-01 BMatC= 5.23D-01 BMatP= 5.23D-01
 IDIUse=3 WtCom= 6.74D-01 WtEn= 3.26D-01
 Coeff-Com:  0.100D+01
 Coeff-En:   0.100D+01
 Coeff:      0.100D+01
 Gap=     0.325 Goal=   None    Shift=    0.000
 Gap=     0.103 Goal=   None    Shift=    0.000
 GapD=    0.103 DampG=1.000 DampE=0.500 DampFc=0.5000 IDamp=-1.
 Damping current iteration by 5.00D-01
 RMSDP=2.39D-03 MaxDP=6.11D-02              OVMax= 2.06D-01

 Cycle   2  Pass 0  IDiag  1:
 E= -229.548723790847     Delta-E=       -0.040284741136 Rises=F Damp=T
 DIIS: error= 8.29D-03 at cycle   2 NSaved=   2.
 NSaved= 2 IEnMin= 2 EnMin= -229.548723790847     IErMin= 2 ErrMin= 8.29D-03
 ErrMax= 8.29D-03  0.00D+00 EMaxC= 1.00D-01 BMatC= 8.57D-02 BMatP= 5.23D-01
 IDIUse=3 WtCom= 9.17D-01 WtEn= 8.29D-02
 Coeff-Com:  0.177D+00 0.823D+00
 Coeff-En:   0.250D+00 0.750D+00
 Coeff:      0.183D+00 0.817D+00
 Gap=     0.325 Goal=   None    Shift=    0.000
 Gap=     0.151 Goal=   None    Shift=    0.000
 RMSDP=6.35D-04 MaxDP=2.16D-02 DE=-4.03D-02 OVMax= 1.53D-01

 Cycle   3  Pass 0  IDiag  1:
 E= -229.606204466579     Delta-E=       -0.057480675732 Rises=F Damp=F
 DIIS: error= 9.50D-03 at cycle   3 NSaved=   3.
 NSaved= 3 IEnMin= 3 EnMin= -229.606204466579     IErMin= 2 ErrMin= 8.29D-03
 ErrMax= 9.50D-03  0.00D+00 EMaxC= 1.00D-01 BMatC= 8.52D-02 BMatP= 8.57D-02
 IDIUse=3 WtCom= 9.05D-01 WtEn= 9.50D-02
 Coeff-Com:  0.244D-01 0.492D+00 0.483D+00
 Coeff-En:   0.000D+00 0.000D+00 0.100D+01
 Coeff:      0.221D-01 0.445D+00 0.532D+00
 Gap=     0.315 Goal=   None    Shift=    0.000
 Gap=     0.143 Goal=   None    Shift=    0.000
 RMSDP=5.63D-04 MaxDP=2.57D-02 DE=-5.75D-02 OVMax= 8.51D-02

 Cycle   4  Pass 0  IDiag  1:
 E= -229.615175292072     Delta-E=       -0.008970825493 Rises=F Damp=F
 DIIS: error= 6.19D-03 at cycle   4 NSaved=   4.
 NSaved= 4 IEnMin= 4 EnMin= -229.615175292072     IErMin= 4 ErrMin= 6.19D-03
 ErrMax= 6.19D-03  0.00D+00 EMaxC= 1.00D-01 BMatC= 3.31D-02 BMatP= 8.52D-02
 IDIUse=3 WtCom= 9.38D-01 WtEn= 6.19D-02
 Coeff-Com:  0.222D-03 0.824D-01 0.387D+00 0.531D+00
 Coeff-En:   0.000D+00 0.000D+00 0.331D+00 0.669D+00
 Coeff:      0.208D-03 0.773D-01 0.383D+00 0.539D+00
 Gap=     0.318 Goal=   None    Shift=    0.000
 Gap=     0.151 Goal=   None    Shift=    0.000
 RMSDP=2.53D-04 MaxDP=7.29D-03 DE=-8.97D-03 OVMax= 2.20D-02

 Cycle   5  Pass 0  IDiag  1:
 E= -229.621028407629     Delta-E=       -0.005853115557 Rises=F Damp=F
 DIIS: error= 6.29D-04 at cycle   5 NSaved=   5.
 NSaved= 5 IEnMin= 5 EnMin= -229.621028407629     IErMin= 5 ErrMin= 6.29D-04
 ErrMax= 6.29D-04  0.00D+00 EMaxC= 1.00D-01 BMatC= 4.44D-04 BMatP= 3.31D-02
 IDIUse=3 WtCom= 9.94D-01 WtEn= 6.29D-03
 Coeff-Com:  0.522D-03-0.168D-01 0.112D+00 0.191D+00 0.714D+00
 Coeff-En:   0.000D+00 0.000D+00 0.000D+00 0.000D+00 0.100D+01
 Coeff:      0.518D-03-0.167D-01 0.111D+00 0.190D+00 0.716D+00
 Gap=     0.314 Goal=   None    Shift=    0.000
 Gap=     0.152 Goal=   None    Shift=    0.000
 RMSDP=5.24D-05 MaxDP=1.89D-03 DE=-5.85D-03 OVMax= 8.05D-03

 Cycle   6  Pass 0  IDiag  1:
 E= -229.621119456511     Delta-E=       -0.000091048882 Rises=F Damp=F
 DIIS: error= 3.77D-04 at cycle   6 NSaved=   6.
 NSaved= 6 IEnMin= 6 EnMin= -229.621119456511     IErMin= 6 ErrMin= 3.77D-04
 ErrMax= 3.77D-04  0.00D+00 EMaxC= 1.00D-01 BMatC= 1.16D-04 BMatP= 4.44D-04
 IDIUse=3 WtCom= 9.96D-01 WtEn= 3.77D-03
 Coeff-Com:  0.190D-02-0.195D-01 0.360D-02 0.378D-02 0.310D+00 0.700D+00
 Coeff-En:   0.000D+00 0.000D+00 0.000D+00 0.000D+00 0.000D+00 0.100D+01
 Coeff:      0.190D-02-0.194D-01 0.359D-02 0.377D-02 0.309D+00 0.701D+00
 Gap=     0.316 Goal=   None    Shift=    0.000
 Gap=     0.153 Goal=   None    Shift=    0.000
 RMSDP=2.58D-05 MaxDP=1.31D-03 DE=-9.10D-05 OVMax= 2.11D-03

 Cycle   7  Pass 0  IDiag  1:
 E= -229.621145428323     Delta-E=       -0.000025971812 Rises=F Damp=F
 DIIS: error= 1.98D-04 at cycle   7 NSaved=   7.
 NSaved= 7 IEnMin= 7 EnMin= -229.621145428323     IErMin= 7 ErrMin= 1.98D-04
 ErrMax= 1.98D-04  0.00D+00 EMaxC= 1.00D-01 BMatC= 1.77D-05 BMatP= 1.16D-04
 IDIUse=3 WtCom= 9.98D-01 WtEn= 1.98D-03
 Coeff-Com:  0.115D-02-0.799D-03-0.161D-01-0.454D-01-0.103D+00 0.919D-01
 Coeff-Com:  0.107D+01
 Coeff-En:   0.000D+00 0.000D+00 0.000D+00 0.000D+00 0.000D+00 0.000D+00
 Coeff-En:   0.100D+01
 Coeff:      0.115D-02-0.797D-03-0.160D-01-0.453D-01-0.103D+00 0.917D-01
 Coeff:      0.107D+01
 Gap=     0.316 Goal=   None    Shift=    0.000
 Gap=     0.153 Goal=   None    Shift=    0.000
 RMSDP=1.34D-05 MaxDP=5.68D-04 DE=-2.60D-05 OVMax= 2.39D-03

 Cycle   8  Pass 0  IDiag  1:
 E= -229.621151353286     Delta-E=       -0.000005924963 Rises=F Damp=F
 DIIS: error= 6.10D-05 at cycle   8 NSaved=   8.
 NSaved= 8 IEnMin= 8 EnMin= -229.621151353286     IErMin= 8 ErrMin= 6.10D-05
 ErrMax= 6.10D-05  0.00D+00 EMaxC= 1.00D-01 BMatC= 2.26D-06 BMatP= 1.77D-05
 IDIUse=1 WtCom= 1.00D+00 WtEn= 0.00D+00
 Coeff-Com:  0.480D-03 0.871D-03-0.544D-02-0.190D-01-0.611D-01-0.268D-01
 Coeff-Com:  0.402D+00 0.709D+00
 Coeff:      0.480D-03 0.871D-03-0.544D-02-0.190D-01-0.611D-01-0.268D-01
 Coeff:      0.402D+00 0.709D+00
 Gap=     0.316 Goal=   None    Shift=    0.000
 Gap=     0.153 Goal=   None    Shift=    0.000
 RMSDP=3.54D-06 MaxDP=1.25D-04 DE=-5.92D-06 OVMax= 4.04D-04

 Initial convergence to 1.0D-05 achieved.  Increase integral accuracy.
 Cycle   9  Pass 1  IDiag  1:
 E= -229.621153151978     Delta-E=       -0.000001798692 Rises=F Damp=F
 DIIS: error= 2.00D-05 at cycle   1 NSaved=   1.
 NSaved= 1 IEnMin= 1 EnMin= -229.621153151978     IErMin= 1 ErrMin= 2.00D-05
 ErrMax= 2.00D-05  0.00D+00 EMaxC= 1.00D-01 BMatC= 3.26D-07 BMatP= 3.26D-07
 IDIUse=1 WtCom= 1.00D+00 WtEn= 0.00D+00
 Coeff-Com:  0.100D+01
 Coeff:      0.100D+01
 Gap=     0.316 Goal=   None    Shift=    0.000
 Gap=     0.153 Goal=   None    Shift=    0.000
 RMSDP=3.54D-06 MaxDP=1.25D-04 DE=-1.80D-06 OVMax= 1.57D-04

 Cycle  10  Pass 1  IDiag  1:
 E= -229.621153128571     Delta-E=        0.000000023407 Rises=F Damp=F
 DIIS: error= 2.53D-05 at cycle   2 NSaved=   2.
 NSaved= 2 IEnMin= 1 EnMin= -229.621153151978     IErMin= 1 ErrMin= 2.00D-05
 ErrMax= 2.53D-05  0.00D+00 EMaxC= 1.00D-01 BMatC= 6.43D-07 BMatP= 3.26D-07
 IDIUse=1 WtCom= 1.00D+00 WtEn= 0.00D+00
 Coeff-Com:  0.593D+00 0.407D+00
 Coeff:      0.593D+00 0.407D+00
 Gap=     0.316 Goal=   None    Shift=    0.000
 Gap=     0.153 Goal=   None    Shift=    0.000
 RMSDP=1.31D-06 MaxDP=5.28D-05 DE= 2.34D-08 OVMax= 1.76D-04

 Cycle  11  Pass 1  IDiag  1:
 E= -229.621153238599     Delta-E=       -0.000000110029 Rises=F Damp=F
 DIIS: error= 1.40D-05 at cycle   3 NSaved=   3.
 NSaved= 3 IEnMin= 3 EnMin= -229.621153238599     IErMin= 3 ErrMin= 1.40D-05
 ErrMax= 1.40D-05  0.00D+00 EMaxC= 1.00D-01 BMatC= 8.94D-08 BMatP= 3.26D-07
 IDIUse=1 WtCom= 1.00D+00 WtEn= 0.00D+00
 Coeff-Com:  0.273D+00 0.290D+00 0.438D+00
 Coeff:      0.273D+00 0.290D+00 0.438D+00
 Gap=     0.316 Goal=   None    Shift=    0.000
 Gap=     0.153 Goal=   None    Shift=    0.000
 RMSDP=4.28D-07 MaxDP=1.56D-05 DE=-1.10D-07 OVMax= 4.03D-05

 Cycle  12  Pass 1  IDiag  1:
 E= -229.621153254035     Delta-E=       -0.000000015436 Rises=F Damp=F
 DIIS: error= 3.17D-06 at cycle   4 NSaved=   4.
 NSaved= 4 IEnMin= 4 EnMin= -229.621153254035     IErMin= 4 ErrMin= 3.17D-06
 ErrMax= 3.17D-06  0.00D+00 EMaxC= 1.00D-01 BMatC= 7.91D-09 BMatP= 8.94D-08
 IDIUse=1 WtCom= 1.00D+00 WtEn= 0.00D+00
 Coeff-Com: -0.267D+00-0.746D-01 0.919D-01 0.125D+01
 Coeff:     -0.267D+00-0.746D-01 0.919D-01 0.125D+01
 Gap=     0.316 Goal=   None    Shift=    0.000
 Gap=     0.153 Goal=   None    Shift=    0.000
 RMSDP=4.48D-07 MaxDP=2.32D-05 DE=-1.54D-08 OVMax= 7.43D-05

 Cycle  13  Pass 1  IDiag  1:
 E= -229.621153259370     Delta-E=       -0.000000005335 Rises=F Damp=F
 DIIS: error= 1.26D-06 at cycle   5 NSaved=   5.
 NSaved= 5 IEnMin= 5 EnMin= -229.621153259370     IErMin= 5 ErrMin= 1.26D-06
 ErrMax= 1.26D-06  0.00D+00 EMaxC= 1.00D-01 BMatC= 9.03D-10 BMatP= 7.91D-09
 IDIUse=1 WtCom= 1.00D+00 WtEn= 0.00D+00
 Coeff-Com: -0.128D+00-0.454D-01-0.752D-02 0.524D+00 0.657D+00
 Coeff:     -0.128D+00-0.454D-01-0.752D-02 0.524D+00 0.657D+00
 Gap=     0.316 Goal=   None    Shift=    0.000
 Gap=     0.153 Goal=   None    Shift=    0.000
 RMSDP=8.91D-08 MaxDP=3.70D-06 DE=-5.34D-09 OVMax= 5.81D-06

 Cycle  14  Pass 1  IDiag  1:
 E= -229.621153259588     Delta-E=       -0.000000000218 Rises=F Damp=F
 DIIS: error= 2.94D-07 at cycle   6 NSaved=   6.
 NSaved= 6 IEnMin= 6 EnMin= -229.621153259588     IErMin= 6 ErrMin= 2.94D-07
 ErrMax= 2.94D-07  0.00D+00 EMaxC= 1.00D-01 BMatC= 9.70D-11 BMatP= 9.03D-10
 IDIUse=1 WtCom= 1.00D+00 WtEn= 0.00D+00
 Coeff-Com: -0.163D-02-0.267D-02-0.256D-01-0.107D-01 0.248D+00 0.792D+00
 Coeff:     -0.163D-02-0.267D-02-0.256D-01-0.107D-01 0.248D+00 0.792D+00
 Gap=     0.316 Goal=   None    Shift=    0.000
 Gap=     0.153 Goal=   None    Shift=    0.000
 RMSDP=2.57D-08 MaxDP=8.19D-07 DE=-2.18D-10 OVMax= 3.61D-06

 Cycle  15  Pass 1  IDiag  1:
 E= -229.621153259612     Delta-E=       -0.000000000024 Rises=F Damp=F
 DIIS: error= 9.16D-08 at cycle   7 NSaved=   7.
 NSaved= 7 IEnMin= 7 EnMin= -229.621153259612     IErMin= 7 ErrMin= 9.16D-08
 ErrMax= 9.16D-08  0.00D+00 EMaxC= 1.00D-01 BMatC= 7.09D-12 BMatP= 9.70D-11
 IDIUse=1 WtCom= 1.00D+00 WtEn= 0.00D+00
 Coeff-Com:  0.124D-01 0.395D-02-0.892D-02-0.550D-01 0.128D-01 0.261D+00
 Coeff-Com:  0.774D+00
 Coeff:      0.124D-01 0.395D-02-0.892D-02-0.550D-01 0.128D-01 0.261D+00
 Coeff:      0.774D+00
 Gap=     0.316 Goal=   None    Shift=    0.000
 Gap=     0.153 Goal=   None    Shift=    0.000
 RMSDP=7.06D-09 MaxDP=2.89D-07 DE=-2.39D-11 OVMax= 5.27D-07

 SCF Done:  E(UB3LYP) =  -229.621153260     A.U. after   15 cycles
            NFock= 15  Conv=0.71D-08     -V/T= 2.0064
 <Sx>= 0.0000 <Sy>= 0.0000 <Sz>= 0.5000 <S**2>= 0.7536 S= 0.5018
 <L.S>=  0.00000000000    
 KE= 2.281713861552D+02 PE=-7.884035530228D+02 EE= 2.055961068662D+02
 Annihilation of the first spin contaminant:
 S**2 before annihilation     0.7536,   after     0.7500
 Leave Link  502 at Tue Feb 22 12:11:12 2022, MaxMem= 17179869184 cpu:              95.8 elap:              11.9
 (Enter /home/saurabh/gaussian/g16/l801.exe)
 DoSCS=F DFT=T ScalE2(SS,OS)=  1.000000  1.000000
 Range of M.O.s used for correlation:     1   190
 NBasis=   190 NAE=    17 NBE=    16 NFC=     0 NFV=     0
 NROrb=    190 NOA=    17 NOB=    16 NVA=   173 NVB=   174

 **** Warning!!: The largest alpha MO coefficient is  0.11497557D+02


 **** Warning!!: The largest beta MO coefficient is  0.11496954D+02

 Leave Link  801 at Tue Feb 22 12:11:13 2022, MaxMem= 17179869184 cpu:               0.5 elap:               0.0
 (Enter /home/saurabh/gaussian/g16/l1101.exe)
 Using compressed storage, NAtomX=     9.
 Will process     10 centers per pass.
 Leave Link 1101 at Tue Feb 22 12:11:13 2022, MaxMem= 17179869184 cpu:               4.3 elap:               0.2
 (Enter /home/saurabh/gaussian/g16/l1102.exe)
 Symmetrizing basis deriv contribution to polar:
 IMax=3 JMax=2 DiffMx= 0.00D+00
 Leave Link 1102 at Tue Feb 22 12:11:13 2022, MaxMem= 17179869184 cpu:               0.6 elap:               0.1
 (Enter /home/saurabh/gaussian/g16/l1110.exe)
 Forming Gx(P) for the SCF density, NAtomX=     9.
 Integral derivatives from FoFJK, PRISM(SPDF).
 Do as many integral derivatives as possible in FoFJK.
 G2DrvN: MDV=   17179868121.
 G2DrvN: will do    10 centers at a time, making    1 passes.
 Calling FoFCou, ICntrl=  3107 FMM=F I1Cent=   0 AccDes= 0.00D+00.
 FoFJK:  IHMeth= 1 ICntrl=    3107 DoSepK=F KAlg= 0 I1Cent=           0 FoldK=F
 IRaf=         0 NMat=       1 IRICut=       1 DoRegI=T DoRafI=F ISym2E= 0 IDoP0=0 IntGTp=1.
 FoFCou: FMM=F IPFlag=           0 FMFlag=      100000 FMFlg1=           0
         NFxFlg=           0 DoJE=F BraDBF=F KetDBF=F FulRan=T
         wScrn=  0.000000 ICntrl=      3107 IOpCl=  1 I1Cent=           0 NGrid=           0
         NMat0=    1 NMatS0=      1 NMatT0=    0 NMatD0=    1 NMtDS0=    0 NMtDT0=    0
 Symmetry not used in FoFCou.
 End of G2Drv F.D. properties file   721 does not exist.
 End of G2Drv F.D. properties file   722 does not exist.
 End of G2Drv F.D. properties file   788 does not exist.
 Leave Link 1110 at Tue Feb 22 12:11:21 2022, MaxMem= 17179869184 cpu:             187.3 elap:               8.5
 (Enter /home/saurabh/gaussian/g16/l1002.exe)
 Minotr:  UHF open shell wavefunction.
          IDoAtm=111111111
          Direct CPHF calculation.
          Differentiating once with respect to nuclear coordinates.
          Requested convergence is 1.0D-08 RMS, and 1.0D-07 maximum.
          Secondary convergence is 1.0D-12 RMS, and 1.0D-12 maximum.
          NewPWx=T KeepS1=F KeepF1=F KeepIn=T MapXYZ=F SortEE=F KeepMc=T.
         2676 words used for storage of precomputed grid.
 Keep R1 and R2 ints in memory in canonical form, NReq=352134214.
 FoFCou: FMM=F IPFlag=           0 FMFlag=           0 FMFlg1=           0
         NFxFlg=           0 DoJE=F BraDBF=F KetDBF=F FulRan=T
         wScrn=  0.000000 ICntrl=       600 IOpCl=  0 I1Cent=           0 NGrid=           0
         NMat0=    1 NMatS0=  18145 NMatT0=    0 NMatD0=    1 NMtDS0=    0 NMtDT0=    0
 Symmetry not used in FoFCou.
 Two-electron integral symmetry not used.
          MDV=   17179869184 using IRadAn=       1.
          Solving linear equations simultaneously, MaxMat=       0.
          There are    30 degrees of freedom in the 1st order CPHF.  IDoFFX=6 NUNeed=     0.
     24 vectors produced by pass  0 Test12= 1.91D-14 3.33D-09 XBig12= 1.91D-01 1.25D-01.
 AX will form    24 AO Fock derivatives at one time.
     24 vectors produced by pass  1 Test12= 1.91D-14 3.33D-09 XBig12= 8.41D-02 1.16D-01.
     24 vectors produced by pass  2 Test12= 1.91D-14 3.33D-09 XBig12= 1.88D-03 1.55D-02.
     24 vectors produced by pass  3 Test12= 1.91D-14 3.33D-09 XBig12= 2.26D-05 7.99D-04.
     24 vectors produced by pass  4 Test12= 1.91D-14 3.33D-09 XBig12= 2.04D-07 8.95D-05.
     24 vectors produced by pass  5 Test12= 1.91D-14 3.33D-09 XBig12= 9.75D-10 4.45D-06.
     16 vectors produced by pass  6 Test12= 1.91D-14 3.33D-09 XBig12= 6.94D-12 3.98D-07.
      6 vectors produced by pass  7 Test12= 1.91D-14 3.33D-09 XBig12= 3.10D-14 2.81D-08.
 InvSVY:  IOpt=1 It=  1 EMax= 1.33D-15
 Solved reduced A of dimension   166 with    24 vectors.
 End of Minotr F.D. properties file   721 does not exist.
 End of Minotr F.D. properties file   722 does not exist.
 End of Minotr F.D. properties file   788 does not exist.
 Leave Link 1002 at Tue Feb 22 12:11:32 2022, MaxMem= 17179869184 cpu:             233.2 elap:              10.6
 (Enter /home/saurabh/gaussian/g16/l601.exe)
 Copying SCF densities to generalized density rwf, IOpCl= 1 IROHF=0.

 **********************************************************************

            Population analysis using the SCF Density.

 **********************************************************************

 Orbital symmetries:
 Alpha Orbitals:
       Occupied  (A) (A) (A) (A) (A) (A) (A) (A) (A) (A) (A) (A)
                 (A) (A) (A) (A) (A)
       Virtual   (A) (A) (A) (A) (A) (A) (A) (A) (A) (A) (A) (A)
                 (A) (A) (A) (A) (A) (A) (A) (A) (A) (A) (A) (A)
                 (A) (A) (A) (A) (A) (A) (A) (A) (A) (A) (A) (A)
                 (A) (A) (A) (A) (A) (A) (A) (A) (A) (A) (A) (A)
                 (A) (A) (A) (A) (A) (A) (A) (A) (A) (A) (A) (A)
                 (A) (A) (A) (A) (A) (A) (A) (A) (A) (A) (A) (A)
                 (A) (A) (A) (A) (A) (A) (A) (A) (A) (A) (A) (A)
                 (A) (A) (A) (A) (A) (A) (A) (A) (A) (A) (A) (A)
                 (A) (A) (A) (A) (A) (A) (A) (A) (A) (A) (A) (A)
                 (A) (A) (A) (A) (A) (A) (A) (A) (A) (A) (A) (A)
                 (A) (A) (A) (A) (A) (A) (A) (A) (A) (A) (A) (A)
                 (A) (A) (A) (A) (A) (A) (A) (A) (A) (A) (A) (A)
                 (A) (A) (A) (A) (A) (A) (A) (A) (A) (A) (A) (A)
                 (A) (A) (A) (A) (A) (A) (A) (A) (A) (A) (A) (A)
                 (A) (A) (A) (A) (A)
 Beta  Orbitals:
       Occupied  (A) (A) (A) (A) (A) (A) (A) (A) (A) (A) (A) (A)
                 (A) (A) (A) (A)
       Virtual   (A) (A) (A) (A) (A) (A) (A) (A) (A) (A) (A) (A)
                 (A) (A) (A) (A) (A) (A) (A) (A) (A) (A) (A) (A)
                 (A) (A) (A) (A) (A) (A) (A) (A) (A) (A) (A) (A)
                 (A) (A) (A) (A) (A) (A) (A) (A) (A) (A) (A) (A)
                 (A) (A) (A) (A) (A) (A) (A) (A) (A) (A) (A) (A)
                 (A) (A) (A) (A) (A) (A) (A) (A) (A) (A) (A) (A)
                 (A) (A) (A) (A) (A) (A) (A) (A) (A) (A) (A) (A)
                 (A) (A) (A) (A) (A) (A) (A) (A) (A) (A) (A) (A)
                 (A) (A) (A) (A) (A) (A) (A) (A) (A) (A) (A) (A)
                 (A) (A) (A) (A) (A) (A) (A) (A) (A) (A) (A) (A)
                 (A) (A) (A) (A) (A) (A) (A) (A) (A) (A) (A) (A)
                 (A) (A) (A) (A) (A) (A) (A) (A) (A) (A) (A) (A)
                 (A) (A) (A) (A) (A) (A) (A) (A) (A) (A) (A) (A)
                 (A) (A) (A) (A) (A) (A) (A) (A) (A) (A) (A) (A)
                 (A) (A) (A) (A) (A) (A)
 The electronic state is 2-A.
 Alpha  occ. eigenvalues --  -19.25370 -19.19861 -10.24461 -10.19041  -1.20672
 Alpha  occ. eigenvalues --   -0.89655  -0.75207  -0.63558  -0.53714  -0.53043
 Alpha  occ. eigenvalues --   -0.48891  -0.44480  -0.41198  -0.37982  -0.37028
 Alpha  occ. eigenvalues --   -0.28989  -0.28957
 Alpha virt. eigenvalues --    0.02651   0.07190   0.07945   0.08689   0.10532
 Alpha virt. eigenvalues --    0.11789   0.13222   0.17717   0.24266   0.25226
 Alpha virt. eigenvalues --    0.29647   0.30400   0.34248   0.40235   0.40813
 Alpha virt. eigenvalues --    0.40985   0.43777   0.45207   0.46133   0.48319
 Alpha virt. eigenvalues --    0.50877   0.54565   0.55870   0.60217   0.61470
 Alpha virt. eigenvalues --    0.64474   0.68607   0.71449   0.76035   0.80957
 Alpha virt. eigenvalues --    0.85474   0.85806   0.91048   0.95544   0.98802
 Alpha virt. eigenvalues --    1.03249   1.03533   1.04327   1.07441   1.10093
 Alpha virt. eigenvalues --    1.11406   1.12656   1.18070   1.18508   1.22631
 Alpha virt. eigenvalues --    1.24469   1.28654   1.31413   1.33781   1.35798
 Alpha virt. eigenvalues --    1.39717   1.43753   1.44778   1.46829   1.52487
 Alpha virt. eigenvalues --    1.59351   1.64569   1.79582   1.94760   1.97681
 Alpha virt. eigenvalues --    2.03062   2.09826   2.10823   2.19221   2.22908
 Alpha virt. eigenvalues --    2.25661   2.32189   2.38100   2.38813   2.46067
 Alpha virt. eigenvalues --    2.48131   2.52776   2.60101   2.67448   2.73183
 Alpha virt. eigenvalues --    2.76070   2.80883   2.84363   2.89099   2.90827
 Alpha virt. eigenvalues --    2.92312   2.95749   2.98459   3.00962   3.02385
 Alpha virt. eigenvalues --    3.06755   3.08269   3.08562   3.15331   3.17871
 Alpha virt. eigenvalues --    3.23826   3.27401   3.33980   3.38137   3.39388
 Alpha virt. eigenvalues --    3.40831   3.44834   3.45268   3.49734   3.56034
 Alpha virt. eigenvalues --    3.59694   3.65176   3.69990   3.75551   3.75969
 Alpha virt. eigenvalues --    3.77704   3.77843   3.81950   3.85695   3.88191
 Alpha virt. eigenvalues --    3.88936   3.94020   3.98008   4.00227   4.02471
 Alpha virt. eigenvalues --    4.05630   4.09238   4.13312   4.18404   4.22982
 Alpha virt. eigenvalues --    4.29047   4.29536   4.34392   4.37854   4.56910
 Alpha virt. eigenvalues --    4.60275   4.65828   4.66023   4.67373   4.76055
 Alpha virt. eigenvalues --    4.77002   4.78862   4.80728   4.86462   4.88250
 Alpha virt. eigenvalues --    4.88582   4.98837   5.05880   5.09749   5.11033
 Alpha virt. eigenvalues --    5.18209   5.20136   5.22208   5.23684   5.24088
 Alpha virt. eigenvalues --    5.31247   5.32253   5.37138   5.45651   5.54726
 Alpha virt. eigenvalues --    5.71439   5.80718   5.83228   5.84725   5.92997
 Alpha virt. eigenvalues --    5.97445   6.12427   6.23687   6.24967   6.28732
 Alpha virt. eigenvalues --    6.38742   6.41651   6.61662   6.76876   6.78711
 Alpha virt. eigenvalues --    7.01715   7.03008   7.26296   7.39605   9.10331
 Alpha virt. eigenvalues --   10.97310  12.20731  13.03312
  Beta  occ. eigenvalues --  -19.24427 -19.17911 -10.24503 -10.19043  -1.18128
  Beta  occ. eigenvalues --   -0.86636  -0.74154  -0.63052  -0.51704  -0.50687
  Beta  occ. eigenvalues --   -0.48038  -0.41069  -0.40990  -0.37732  -0.34749
  Beta  occ. eigenvalues --   -0.27255
  Beta virt. eigenvalues --   -0.11947   0.02731   0.07232   0.08093   0.09031
  Beta virt. eigenvalues --    0.11259   0.12028   0.14342   0.17740   0.24364
  Beta virt. eigenvalues --    0.25335   0.29772   0.30806   0.34523   0.40371
  Beta virt. eigenvalues --    0.40866   0.41075   0.43783   0.45272   0.46171
  Beta virt. eigenvalues --    0.48502   0.52362   0.54892   0.56301   0.60518
  Beta virt. eigenvalues --    0.61660   0.66730   0.70997   0.71884   0.76118
  Beta virt. eigenvalues --    0.81117   0.85545   0.85888   0.91301   0.95713
  Beta virt. eigenvalues --    0.99219   1.03424   1.03564   1.04544   1.07605
  Beta virt. eigenvalues --    1.10387   1.11747   1.12842   1.18777   1.19251
  Beta virt. eigenvalues --    1.22901   1.24527   1.28696   1.32668   1.33917
  Beta virt. eigenvalues --    1.36689   1.39936   1.44412   1.46539   1.47104
  Beta virt. eigenvalues --    1.53952   1.61432   1.65621   1.79973   1.95927
  Beta virt. eigenvalues --    1.99201   2.03942   2.11431   2.12650   2.19339
  Beta virt. eigenvalues --    2.23459   2.25930   2.32496   2.38166   2.39149
  Beta virt. eigenvalues --    2.46137   2.48310   2.52831   2.60160   2.67491
  Beta virt. eigenvalues --    2.73250   2.76115   2.80964   2.84400   2.89212
  Beta virt. eigenvalues --    2.91106   2.92595   2.95850   2.98529   3.01042
  Beta virt. eigenvalues --    3.02468   3.06852   3.08257   3.08745   3.15438
  Beta virt. eigenvalues --    3.17936   3.23921   3.27466   3.34735   3.38239
  Beta virt. eigenvalues --    3.39628   3.40870   3.45317   3.45329   3.50032
  Beta virt. eigenvalues --    3.60311   3.61943   3.66102   3.70294   3.75808
  Beta virt. eigenvalues --    3.76288   3.77891   3.77981   3.83840   3.85856
  Beta virt. eigenvalues --    3.88430   3.90310   3.94176   3.98198   4.00449
  Beta virt. eigenvalues --    4.02533   4.05879   4.09402   4.13967   4.18595
  Beta virt. eigenvalues --    4.23110   4.29164   4.29678   4.34799   4.38071
  Beta virt. eigenvalues --    4.57628   4.60763   4.66746   4.67846   4.68258
  Beta virt. eigenvalues --    4.76237   4.77099   4.80324   4.81515   4.87811
  Beta virt. eigenvalues --    4.88830   4.90027   5.00009   5.06579   5.13875
  Beta virt. eigenvalues --    5.15529   5.18662   5.20968   5.22622   5.24220
  Beta virt. eigenvalues --    5.24399   5.32270   5.33075   5.37609   5.45924
  Beta virt. eigenvalues --    5.56367   5.72544   5.81264   5.83581   5.85115
  Beta virt. eigenvalues --    5.94649   5.99565   6.17377   6.26766   6.30097
  Beta virt. eigenvalues --    6.33559   6.43488   6.44276   6.62818   6.80008
  Beta virt. eigenvalues --    6.80373   7.04489   7.05197   7.26765   7.40795
  Beta virt. eigenvalues --    9.13333  10.99028  12.20795  13.03314
          Condensed to atoms (all electrons):
               1          2          3          4          5          6
     1  C    4.906026   0.286397   0.392067   0.393709   0.392069  -0.025125
     2  C    0.286397   4.722029  -0.027884  -0.031155  -0.027885   0.280923
     3  H    0.392067  -0.027884   0.593060  -0.026524  -0.029665   0.001884
     4  H    0.393709  -0.031155  -0.026524   0.595496  -0.026524   0.002562
     5  H    0.392069  -0.027885  -0.029665  -0.026524   0.593053   0.001885
     6  O   -0.025125   0.280923   0.001884   0.002562   0.001885   7.741196
     7  H   -0.034229   0.403273  -0.009988  -0.001182   0.008873  -0.040710
     8  H   -0.034228   0.403272   0.008873  -0.001183  -0.009988  -0.040709
     9  O    0.011416  -0.052928  -0.000101  -0.000264  -0.000101   0.116387
               7          8          9
     1  C   -0.034229  -0.034228   0.011416
     2  C    0.403273   0.403272  -0.052928
     3  H   -0.009988   0.008873  -0.000101
     4  H   -0.001182  -0.001183  -0.000264
     5  H    0.008873  -0.009988  -0.000101
     6  O   -0.040710  -0.040709   0.116387
     7  H    0.643180  -0.050959   0.002080
     8  H   -0.050959   0.643178   0.002081
     9  O    0.002080   0.002081   8.089941
          Atomic-Atomic Spin Densities.
               1          2          3          4          5          6
     1  C   -0.007424   0.006626   0.000627  -0.000059   0.000629  -0.002119
     2  C    0.006626  -0.031660   0.000034   0.000597   0.000033   0.013128
     3  H    0.000627   0.000034  -0.001135   0.000046   0.000258   0.000477
     4  H   -0.000059   0.000597   0.000046  -0.001478   0.000046  -0.000036
     5  H    0.000629   0.000033   0.000258   0.000046  -0.001135   0.000478
     6  O   -0.002119   0.013128   0.000477  -0.000036   0.000478   0.414116
     7  H    0.000299  -0.001923  -0.000760  -0.000059   0.000417  -0.008340
     8  H    0.000296  -0.001922   0.000417  -0.000059  -0.000760  -0.008340
     9  O   -0.000098  -0.007600  -0.000157  -0.000001  -0.000158  -0.130844
               7          8          9
     1  C    0.000299   0.000296  -0.000098
     2  C   -0.001923  -0.001922  -0.007600
     3  H   -0.000760   0.000417  -0.000157
     4  H   -0.000059  -0.000059  -0.000001
     5  H    0.000417  -0.000760  -0.000158
     6  O   -0.008340  -0.008340  -0.130844
     7  H    0.033526  -0.011621   0.006844
     8  H   -0.011621   0.033525   0.006844
     9  O    0.006844   0.006844   0.835184
 Mulliken charges and spin densities:
               1          2
     1  C   -0.288102  -0.001222
     2  C    0.043957  -0.022687
     3  H    0.098278  -0.000192
     4  H    0.095064  -0.001003
     5  H    0.098282  -0.000192
     6  O   -0.038292   0.278520
     7  H    0.079662   0.018383
     8  H    0.079663   0.018381
     9  O   -0.168512   0.710013
 Sum of Mulliken charges =  -0.00000   1.00000
 Mulliken charges and spin densities with hydrogens summed into heavy atoms:
               1          2
     1  C    0.003522  -0.002610
     2  C    0.203282   0.014077
     6  O   -0.038292   0.278520
     9  O   -0.168512   0.710013
 APT charges:
               1
     1  C   -0.986670
     2  C   -0.495434
     3  H    0.301385
     4  H    0.419170
     5  H    0.301383
     6  O   -0.014610
     7  H    0.293806
     8  H    0.293803
     9  O   -0.112833
 Sum of APT charges =  -0.00000
 APT charges with hydrogens summed into heavy atoms:
               1
     1  C    0.035268
     2  C    0.092174
     6  O   -0.014610
     9  O   -0.112833
 Electronic spatial extent (au):  <R**2>=            312.9206
 Charge=             -0.0000 electrons
 Dipole moment (field-independent basis, Debye):
    X=              2.4957    Y=              0.8032    Z=              0.0000  Tot=              2.6218
 Quadrupole moment (field-independent basis, Debye-Ang):
   XX=            -27.1759   YY=            -24.6377   ZZ=            -23.3755
   XY=              0.2504   XZ=             -0.0001   YZ=              0.0000
 Traceless Quadrupole moment (field-independent basis, Debye-Ang):
   XX=             -2.1128   YY=              0.4253   ZZ=              1.6875
   XY=              0.2504   XZ=             -0.0001   YZ=              0.0000
 Octapole moment (field-independent basis, Debye-Ang**2):
  XXX=             -2.7004  YYY=             -0.8796  ZZZ=              0.0000  XYY=             -1.7146
  XXY=              0.3913  XXZ=              0.0001  XZZ=             -3.3073  YZZ=             -0.3582
  YYZ=             -0.0000  XYZ=             -0.0001
 Hexadecapole moment (field-independent basis, Debye-Ang**3):
 XXXX=           -308.4637 YYYY=            -59.7738 ZZZZ=            -36.0560 XXXY=              3.2168
 XXXZ=             -0.0001 YYYX=              2.2868 YYYZ=             -0.0002 ZZZX=              0.0001
 ZZZY=              0.0001 XXYY=            -58.7676 XXZZ=            -55.0875 YYZZ=            -14.4579
 XXYZ=             -0.0001 YYXZ=              0.0001 ZZXY=             -0.7583
 N-N= 1.250149067418D+02 E-N=-7.884035486016D+02  KE= 2.281713861552D+02
  Exact polarizability:       0.000       0.000       0.000       0.000       0.000       0.000
 Approx polarizability:      57.571      -3.919      43.690       0.001      -0.000      40.384
                          Isotropic Fermi Contact Couplings
        Atom                 a.u.       MegaHertz       Gauss      10(-4) cm-1
     1  C(13)             -0.00129      -1.45117      -0.51781      -0.48406
     2  C(13)             -0.01174     -13.19738      -4.70915      -4.40217
     3  H(1)              -0.00012      -0.53729      -0.19172      -0.17922
     4  H(1)              -0.00038      -1.68327      -0.60063      -0.56148
     5  H(1)              -0.00012      -0.53727      -0.19171      -0.17921
     6  O(17)              0.03534     -21.42405      -7.64464      -7.14630
     7  H(1)               0.00546      24.38675       8.70180       8.13455
     8  H(1)               0.00545      24.38271       8.70036       8.13320
     9  O(17)              0.04086     -24.76954      -8.83839      -8.26223
 --------------------------------------------------------
       Center         ----  Spin Dipole Couplings  ----
                      3XX-RR        3YY-RR        3ZZ-RR
 --------------------------------------------------------
     1   Atom        0.007937     -0.004689     -0.003248
     2   Atom        0.017985      0.000875     -0.018860
     3   Atom        0.006927     -0.003777     -0.003150
     4   Atom        0.004291     -0.002121     -0.002169
     5   Atom        0.006927     -0.003777     -0.003150
     6   Atom       -0.779616     -0.795711      1.575326
     7   Atom        0.006416      0.000420     -0.006836
     8   Atom        0.006417      0.000420     -0.006837
     9   Atom       -1.559765     -1.540799      3.100564
 --------------------------------------------------------
                        XY            XZ            YZ
 --------------------------------------------------------
     1   Atom        0.001740      0.000000     -0.000000
     2   Atom        0.015854      0.000000      0.000000
     3   Atom       -0.001703      0.003060     -0.000375
     4   Atom        0.001487     -0.000000     -0.000000
     5   Atom       -0.001703     -0.003061      0.000375
     6   Atom        0.030753     -0.000074      0.000094
     7   Atom        0.011067      0.007450      0.005850
     8   Atom        0.011068     -0.007449     -0.005850
     9   Atom        0.002846     -0.000145      0.000189
 --------------------------------------------------------


 ---------------------------------------------------------------------------------
              Anisotropic Spin Dipole Couplings in Principal Axis System
 ---------------------------------------------------------------------------------

       Atom             a.u.   MegaHertz   Gauss  10(-4) cm-1        Axes

              Baa    -0.0049    -0.661    -0.236    -0.220 -0.1341  0.9910  0.0001
     1 C(13)  Bbb    -0.0032    -0.436    -0.156    -0.145 -0.0000 -0.0001  1.0000
              Bcc     0.0082     1.097     0.391     0.366  0.9910  0.1341  0.0000
 
              Baa    -0.0189    -2.531    -0.903    -0.844  0.0000 -0.0000  1.0000
     2 C(13)  Bbb    -0.0086    -1.152    -0.411    -0.384 -0.5124  0.8587  0.0000
              Bcc     0.0274     3.683     1.314     1.228  0.8587  0.5124  0.0000
 
              Baa    -0.0041    -2.197    -0.784    -0.733  0.2821  0.7461 -0.6031
     3 H(1)   Bbb    -0.0039    -2.093    -0.747    -0.698 -0.1102  0.6497  0.7522
              Bcc     0.0080     4.290     1.531     1.431  0.9530 -0.1458  0.2655
 
              Baa    -0.0024    -1.307    -0.466    -0.436 -0.2154  0.9765  0.0001
     4 H(1)   Bbb    -0.0022    -1.157    -0.413    -0.386  0.0000 -0.0001  1.0000
              Bcc     0.0046     2.464     0.879     0.822  0.9765  0.2154 -0.0000
 
              Baa    -0.0041    -2.197    -0.784    -0.733  0.2822  0.7459  0.6033
     5 H(1)   Bbb    -0.0039    -2.093    -0.747    -0.698  0.1101 -0.6499  0.7520
              Bcc     0.0080     4.290     1.531     1.431  0.9530 -0.1458 -0.2655
 
              Baa    -0.8195    59.295    21.158    19.779 -0.6111  0.7916 -0.0001
     6 O(17)  Bbb    -0.7559    54.695    19.516    18.244  0.7916  0.6111  0.0000
              Bcc     1.5753  -113.990   -40.674   -38.023 -0.0000  0.0000  1.0000
 
              Baa    -0.0104    -5.544    -1.978    -1.849 -0.2494 -0.2509  0.9353
     7 H(1)   Bbb    -0.0080    -4.291    -1.531    -1.431 -0.6214  0.7822  0.0441
              Bcc     0.0184     9.836     3.510     3.281  0.7427  0.5703  0.3510
 
              Baa    -0.0104    -5.544    -1.978    -1.849  0.2493  0.2509  0.9354
     8 H(1)   Bbb    -0.0080    -4.291    -1.531    -1.431 -0.6215  0.7822 -0.0442
              Bcc     0.0184     9.836     3.510     3.281  0.7427  0.5703 -0.3509
 
              Baa    -1.5602   112.894    40.283    37.657  0.9894 -0.1453  0.0000
     9 O(17)  Bbb    -1.5404   111.461    39.772    37.179  0.1453  0.9894 -0.0000
              Bcc     3.1006  -224.355   -80.055   -74.837 -0.0000  0.0000  1.0000
 

 ---------------------------------------------------------------------------------

 No NMR shielding tensors so no spin-rotation constants.
 Leave Link  601 at Tue Feb 22 12:11:32 2022, MaxMem= 17179869184 cpu:               5.4 elap:               0.3
 (Enter /home/saurabh/gaussian/g16/l701.exe)
 ... and contract with generalized density number  0.
 Compute integral second derivatives.
 Leave Link  701 at Tue Feb 22 12:11:33 2022, MaxMem= 17179869184 cpu:               4.6 elap:               0.2
 (Enter /home/saurabh/gaussian/g16/l702.exe)
 L702 exits ... SP integral derivatives will be done elsewhere.
 Leave Link  702 at Tue Feb 22 12:11:33 2022, MaxMem= 17179869184 cpu:               0.4 elap:               0.0
 (Enter /home/saurabh/gaussian/g16/l703.exe)
 Integral derivatives from FoFJK, PRISM(SPDF).
 Compute integral second derivatives, UseDBF=F ICtDFT=           0.
 Calling FoFJK, ICntrl=    100127 FMM=F ISym2X=0 I1Cent= 0 IOpClX= 1 NMat=1 NMatS=1 NMatT=0.
 FoFJK:  IHMeth= 1 ICntrl=  100127 DoSepK=F KAlg= 0 I1Cent=           0 FoldK=F
 IRaf=         0 NMat=       1 IRICut=       1 DoRegI=T DoRafI=F ISym2E= 0 IDoP0=0 IntGTp=1.
 FoFCou: FMM=F IPFlag=           0 FMFlag=      100000 FMFlg1=         800
         NFxFlg=           0 DoJE=F BraDBF=F KetDBF=F FulRan=T
         wScrn=  0.000000 ICntrl=    100127 IOpCl=  1 I1Cent=           0 NGrid=           0
         NMat0=    1 NMatS0=      1 NMatT0=    0 NMatD0=    1 NMtDS0=    0 NMtDT0=    0
 Symmetry not used in FoFCou.
 Leave Link  703 at Tue Feb 22 12:11:56 2022, MaxMem= 17179869184 cpu:             518.4 elap:              23.6
 (Enter /home/saurabh/gaussian/g16/l716.exe)
 Dipole        = 9.81895822D-01 3.16011957D-01 8.10012518D-06
 Polarizability= 0.00000000D+00 0.00000000D+00 0.00000000D+00
                 0.00000000D+00 0.00000000D+00 0.00000000D+00
 ***** Axes restored to original set *****
 -------------------------------------------------------------------
 Center     Atomic                   Forces (Hartrees/Bohr)
 Number     Number              X              Y              Z
 -------------------------------------------------------------------
      1        6          -0.006294727   -0.007892702    0.004084061
      2        6          -0.043760761    0.022304804   -0.016520847
      3        1          -0.001793860    0.011133602    0.006263910
      4        1           0.009055014   -0.008098861    0.005447406
      5        1          -0.000251581   -0.000029764   -0.012891560
      6        8           0.014708462    0.001960617    0.000044929
      7        1           0.004796192    0.000736827    0.015138198
      8        1           0.006615277   -0.012405607   -0.007420223
      9        8           0.016925983   -0.007708918    0.005854127
 -------------------------------------------------------------------
 Cartesian Forces:  Max     0.043760761 RMS     0.012794351
 Force constants in Cartesian coordinates: 
                1             2             3             4             5 
      1  0.475782D+00
      2 -0.262691D-01  0.521741D+00
      3  0.110339D-01  0.197286D-02  0.528524D+00
      4 -0.158597D+00 -0.500934D-01  0.230239D-01  0.485405D+00
      5 -0.388165D-01 -0.107208D+00  0.114945D-01  0.399949D-02  0.529521D+00
      6  0.164539D-01  0.105857D-01 -0.869539D-01 -0.732052D-02  0.107432D-01
      7 -0.517688D-01 -0.881379D-02 -0.394185D-02 -0.304932D-02 -0.310020D-01
      8 -0.117016D-01 -0.229929D+00 -0.848625D-01 -0.121918D-02 -0.137382D-01
      9 -0.485414D-02 -0.859189D-01 -0.940202D-01 -0.580201D-03  0.599323D-02
     10 -0.156287D+00  0.914886D-01 -0.619209D-01 -0.169901D-01  0.213771D-01
     11  0.940632D-01 -0.131447D+00  0.554734D-01 -0.831835D-02  0.784964D-02
     12 -0.634206D-01  0.552658D-01 -0.865342D-01  0.364738D-02 -0.407837D-02
     13 -0.571226D-01 -0.279832D-02  0.342787D-01 -0.697799D-02 -0.343223D-02
     14 -0.328564D-02 -0.540983D-01  0.151972D-01 -0.196369D-02 -0.223066D-02
     15  0.371574D-01  0.165259D-01 -0.264513D+00  0.158301D-02  0.853235D-03
     16 -0.349396D-01  0.197432D-01 -0.143321D-01 -0.104474D+00  0.833139D-01
     17 -0.787121D-02  0.112564D-01 -0.707372D-02  0.542786D-01 -0.156854D+00
     18  0.175466D-02 -0.484956D-02  0.316901D-02 -0.357849D-01  0.673334D-01
     19 -0.743063D-02 -0.288706D-02  0.310313D-01 -0.566411D-01 -0.285808D-02
     20 -0.466859D-02 -0.487559D-03  0.127441D-01  0.349738D-03 -0.548853D-01
     21  0.281236D-02  0.885838D-04 -0.370803D-02  0.357209D-01  0.744254D-02
     22 -0.374719D-02 -0.289316D-01 -0.135363D-01 -0.503231D-01 -0.164088D-01
     23 -0.385346D-02 -0.107456D-01 -0.586217D-02 -0.948524D-02 -0.216226D+00
     24  0.111035D-02  0.491700D-02  0.286601D-02 -0.582599D-02 -0.911078D-01
     25 -0.588904D-02  0.856142D-02 -0.563666D-02 -0.883525D-01 -0.161727D-01
     26  0.240298D-02  0.917994D-03  0.916328D-03  0.124520D-01  0.137712D-01
     27 -0.204783D-02  0.141265D-02  0.117055D-02 -0.144636D-01 -0.867391D-02
                6             7             8             9            10 
      6  0.540548D+00
      7 -0.140074D-01  0.554546D-01
      8 -0.555699D-02  0.161760D-01  0.252881D+00
      9  0.210753D-02  0.481876D-02  0.949871D-01  0.961098D-01
     10 -0.136523D-01  0.190405D-02 -0.159144D-02  0.212216D-02  0.171708D+00
     11 -0.646979D-02  0.189546D-01 -0.153503D-01  0.119188D-01 -0.102380D+00
     12  0.563640D-03  0.103967D-01 -0.737901D-02  0.537085D-02  0.695387D-01
     13  0.332169D-01 -0.627162D-03  0.646578D-03 -0.205342D-02  0.459037D-02
     14  0.149204D-01  0.512905D-02  0.382227D-02 -0.275060D-01 -0.453432D-02
     15 -0.547159D-02  0.167318D-02  0.119631D-02 -0.115087D-01  0.185046D-02
     16 -0.526974D-01  0.235631D-02  0.298053D-03 -0.162644D-04 -0.399398D-02
     17  0.649923D-01  0.118714D-03  0.997050D-03 -0.662507D-03 -0.461938D-02
     18 -0.948934D-01 -0.241462D-04  0.147809D-03  0.165340D-03  0.232410D-02
     19  0.425835D-01  0.140997D-02  0.167853D-03 -0.665249D-03  0.821161D-03
     20  0.261588D-02  0.726971D-03  0.401402D-03  0.595693D-03  0.272018D-03
     21 -0.257962D+00 -0.118015D-03  0.439904D-03  0.704951D-03  0.674576D-03
     22 -0.678742D-02 -0.547851D-02 -0.252955D-02  0.142847D-02  0.897002D-03
     23 -0.854637D-01 -0.198508D-02  0.555750D-03  0.474954D-03 -0.410988D-03
     24 -0.102943D+00  0.964437D-03  0.106743D-02  0.122048D-02 -0.460326D-03
     25  0.221083D-02 -0.201125D-03 -0.246656D-03 -0.200113D-03 -0.264868D-02
     26 -0.636686D-02  0.695555D-03  0.360209D-03  0.117573D-03  0.398198D-03
     27  0.500494D-02  0.238333D-03 -0.401198D-04 -0.150031D-03 -0.476404D-03
               11            12            13            14            15 
     11  0.140368D+00
     12 -0.615638D-01  0.903124D-01
     13  0.597535D-03 -0.213837D-01  0.619565D-01
     14 -0.184030D-02  0.177623D-01  0.643983D-02  0.534439D-01
     15  0.532250D-03 -0.108253D-01 -0.433285D-01 -0.199836D-01  0.289061D+00
     16 -0.243818D-02  0.105352D-02  0.233819D-02  0.389453D-03 -0.304988D-04
     17 -0.433516D-03  0.207416D-03  0.212176D-03  0.618041D-03 -0.761743D-04
     18  0.383072D-03  0.525031D-03  0.185176D-03 -0.857696D-03  0.562753D-03
     19  0.565458D-03 -0.401403D-03 -0.536853D-02 -0.291889D-02  0.597790D-03
     20  0.382031D-03 -0.323439D-03 -0.232349D-02  0.623116D-04  0.801525D-03
     21 -0.637527D-04  0.194436D-03  0.397844D-03  0.117240D-03  0.160383D-02
     22  0.694127D-03 -0.199148D-03  0.137256D-02  0.683635D-03  0.216785D-03
     23  0.422205D-03 -0.119420D-03  0.500303D-03  0.267634D-03  0.390088D-03
     24 -0.266457D-03  0.784503D-04 -0.549337D-03  0.515624D-03  0.876116D-03
     25 -0.173860D-02  0.768530D-03 -0.161319D-03  0.605624D-04  0.280331D-03
     26  0.487361D-04  0.228472D-03  0.157625D-03 -0.449740D-04 -0.239484D-03
     27  0.562848D-04  0.314738D-03 -0.763597D-03 -0.165534D-03  0.215480D-03
               16            17            18            19            20 
     16  0.479587D+00
     17  0.358641D-01  0.286474D+00
     18  0.139310D-01 -0.136286D+00  0.128055D+00
     19 -0.938976D-02  0.716532D-02 -0.299061D-01  0.698241D-01
     20  0.586372D-02 -0.793471D-02  0.279111D-01 -0.158949D-02  0.589695D-01
     21 -0.803322D-02  0.989590D-02 -0.145588D-01 -0.385809D-01 -0.176709D-01
     22 -0.127390D-01  0.286059D-01  0.642692D-02  0.185997D-02  0.518091D-02
     23  0.111944D-01 -0.263883D-01 -0.345856D-03 -0.950780D-03  0.329861D-02
     24 -0.454400D-02  0.191776D-01  0.724366D-02 -0.302396D-02 -0.257734D-01
     25 -0.318746D+00 -0.113754D+00  0.410932D-01  0.491489D-02 -0.381178D-02
     26 -0.154229D+00 -0.107735D+00  0.465633D-01  0.330568D-02  0.193711D-03
     27  0.646689D-01  0.498248D-01 -0.302686D-01 -0.163505D-02 -0.900538D-03
               21            22            23            24            25 
     21  0.282388D+00
     22  0.390749D-02  0.631555D-01
     23  0.221964D-03  0.958743D-02  0.246183D+00
     24 -0.114453D-01  0.100872D-01  0.904157D-01  0.101847D+00
     25  0.321891D-02  0.500278D-02 -0.459655D-02  0.224158D-02  0.406081D+00
     26 -0.471483D-03  0.311798D-02  0.263329D-02  0.105429D-02  0.131699D+00
     27  0.278310D-02 -0.154409D-02  0.288448D-03  0.256233D-03 -0.439766D-01
               26            27 
     26  0.898548D-01
     27 -0.418021D-01  0.206736D-01
 FormGI is forming the generalized inverse of G from B-inverse, IUseBI=4.
 Force constants in internal coordinates: 
                1             2             3             4             5 
      1  0.282573D+00
      2  0.649796D-02  0.298790D+00
      3  0.336503D-02  0.274775D-02  0.300617D+00
      4  0.649766D-02  0.289120D-02  0.274769D-02  0.298810D+00
      5  0.181930D-01  0.520497D-03 -0.113718D-02  0.520440D-03  0.355350D+00
      6  0.676036D-02  0.632607D-03  0.578458D-03 -0.111144D-02  0.116349D-01
      7  0.676049D-02 -0.111148D-02  0.578466D-03  0.632596D-03  0.116331D-01
      8  0.222655D-02  0.870472D-04  0.237033D-03  0.870692D-04  0.401489D-01
      9  0.160219D-01  0.322033D-02 -0.616255D-02 -0.598470D-02 -0.200611D-02
     10  0.122921D-01 -0.595412D-02  0.422743D-02 -0.595405D-02  0.510346D-02
     11  0.160220D-01 -0.598488D-02 -0.616269D-02  0.322030D-02 -0.200660D-02
     12 -0.146624D-01  0.410284D-02  0.391924D-02  0.268670D-03 -0.836806D-03
     13 -0.158157D-01  0.448287D-02  0.447016D-03  0.448267D-02  0.579595D-03
     14 -0.146625D-01  0.268681D-03  0.391940D-02  0.410280D-02 -0.836645D-03
     15  0.152686D-01 -0.296656D-02  0.470977D-02 -0.296657D-02  0.414833D-02
     16  0.109983D-01 -0.453666D-03 -0.122779D-02  0.363499D-02 -0.181177D-01
     17  0.109988D-01  0.363507D-02 -0.122775D-02 -0.453622D-03 -0.181170D-01
     18 -0.135409D-01  0.631285D-03 -0.128429D-02 -0.299933D-04  0.169406D-01
     19 -0.135410D-01 -0.300490D-04 -0.128430D-02  0.631284D-03  0.169404D-01
     20 -0.896918D-02 -0.801118D-03  0.377848D-03 -0.801097D-03 -0.305230D-02
     21  0.153875D-01  0.125485D-02  0.146803D-02  0.125462D-02  0.665952D-01
     22 -0.383506D-03  0.325335D-03  0.364213D-02 -0.412599D-02  0.916654D-03
     23 -0.127009D-02 -0.918853D-03  0.411419D-02 -0.373207D-02  0.130463D-01
     24  0.503035D-03 -0.685934D-04  0.317008D-02 -0.288184D-02 -0.112129D-01
     25  0.000000D+00 -0.301246D-02  0.000000D+00  0.301242D-02  0.000000D+00
     26 -0.886525D-03 -0.425665D-02  0.472087D-03  0.340634D-02  0.121296D-01
     27  0.886602D-03 -0.340639D-02 -0.472024D-03  0.425657D-02 -0.121296D-01
     28  0.383574D-03  0.412612D-02 -0.364220D-02 -0.325348D-03 -0.916631D-03
     29 -0.503011D-03  0.288193D-02 -0.317013D-02  0.685701D-04  0.112130D-01
     30  0.127012D-02  0.373219D-02 -0.411424D-02  0.918801D-03 -0.130462D-01
     31  0.000000D+00 -0.166607D-02  0.000000D+00  0.166606D-02  0.000000D+00
     32 -0.147084D-01  0.336298D-03 -0.621722D-03 -0.942414D-03  0.941606D-02
     33  0.147082D-01  0.942458D-03  0.621661D-03 -0.336310D-03 -0.941675D-02
                6             7             8             9            10 
      6  0.290314D+00
      7  0.358155D-02  0.290318D+00
      8 -0.145721D-02 -0.145727D-02  0.455680D+00
      9 -0.139705D-02  0.284910D-02 -0.819615D-03  0.106271D+00
     10 -0.728351D-04 -0.728528D-04  0.419308D-02 -0.179701D-01  0.989154D-01
     11  0.284917D-02 -0.139703D-02 -0.819695D-03 -0.203355D-01 -0.179704D-01
     12  0.113717D-03 -0.100233D-02 -0.138996D-02 -0.401826D-01 -0.378897D-01
     13 -0.517577D-03 -0.517550D-03  0.189999D-03 -0.405463D-01  0.118572D-01
     14 -0.100238D-02  0.113728D-03 -0.138999D-02  0.114456D-01 -0.378898D-01
     15 -0.247086D-02 -0.247058D-02  0.215921D-01 -0.117832D-01  0.241059D-01
     16  0.335400D-02 -0.493926D-02 -0.386502D-03 -0.463995D-02 -0.835238D-02
     17 -0.493932D-02  0.335417D-02 -0.385890D-03  0.157131D-01 -0.835225D-02
     18  0.266135D-03  0.145745D-03 -0.110205D-01  0.524933D-02 -0.559137D-02
     19  0.145735D-03  0.265660D-03 -0.110212D-01 -0.174892D-02 -0.559146D-02
     20  0.354493D-02  0.354483D-02  0.190764D-02 -0.278514D-02  0.397427D-02
     21 -0.858485D-02 -0.858670D-02  0.962422D-01  0.236121D-03  0.653257D-02
     22 -0.209853D-02  0.181665D-02  0.403305D-03  0.213428D-02  0.407690D-02
     23 -0.122339D-02 -0.239998D-02 -0.518519D-03 -0.118145D-02  0.644813D-02
     24  0.211830D-02  0.941798D-03  0.132567D-02  0.178185D-02  0.170586D-02
     25 -0.132127D-02  0.132110D-02  0.000000D+00 -0.333176D-02  0.000000D+00
     26 -0.446127D-03 -0.289553D-02 -0.922039D-03 -0.664749D-02  0.237113D-02
     27  0.289556D-02  0.446249D-03  0.922150D-03 -0.368419D-02 -0.237114D-02
     28 -0.181682D-02  0.209835D-02 -0.403660D-03  0.650825D-02 -0.407707D-02
     29 -0.941681D-03 -0.211827D-02 -0.132548D-02  0.319252D-02 -0.170584D-02
     30  0.240001D-02  0.122350D-02  0.518706D-03  0.615582D-02 -0.644810D-02
     31  0.184683D-02 -0.184659D-02  0.000000D+00 -0.767870D-02  0.000000D+00
     32 -0.901516D-03  0.563987D-02 -0.617543D-02  0.209680D-02 -0.124049D-02
     33 -0.563998D-02  0.901838D-03  0.617474D-02  0.326034D-02  0.124048D-02
               11            12            13            14            15 
     11  0.106271D+00
     12  0.114457D-01  0.487472D-01
     13 -0.405461D-01  0.984740D-02  0.508076D-01
     14 -0.401826D-01  0.922266D-02  0.984743D-02  0.487474D-01
     15 -0.117832D-01 -0.388981D-02  0.730065D-02 -0.388979D-02  0.158232D+00
     16  0.157132D-01  0.370077D-02 -0.392238D-02 -0.257492D-02 -0.386719D-01
     17 -0.463987D-02 -0.257492D-02 -0.392239D-02  0.370072D-02 -0.386726D-01
     18 -0.174893D-02  0.504576D-03 -0.704978D-03  0.231404D-02 -0.520139D-01
     19  0.524937D-02  0.231406D-02 -0.704976D-03  0.504587D-03 -0.520132D-01
     20 -0.278510D-02 -0.138964D-03  0.191601D-02 -0.138980D-03  0.256089D-01
     21  0.235151D-03 -0.318019D-02 -0.758873D-03 -0.317992D-02  0.290758D-01
     22 -0.650814D-02  0.517491D-02 -0.571544D-02  0.890021D-03  0.296713D-02
     23 -0.615580D-02  0.571430D-02 -0.463158D-02 -0.123273D-03  0.963242D-02
     24 -0.319253D-02  0.618817D-02 -0.679923D-02  0.350608D-03 -0.369756D-02
     25  0.333184D-02 -0.613369D-02  0.000000D+00  0.613371D-02  0.000000D+00
     26  0.368418D-02 -0.559430D-02  0.108384D-02  0.512042D-02  0.666511D-02
     27  0.664745D-02 -0.512043D-02 -0.108381D-02  0.559430D-02 -0.666487D-02
     28 -0.213413D-02 -0.890013D-03  0.571534D-02 -0.517488D-02 -0.296753D-02
     29 -0.178179D-02 -0.350625D-03  0.679920D-02 -0.618818D-02  0.369777D-02
     30  0.118148D-02  0.123251D-03  0.463155D-02 -0.571430D-02 -0.963221D-02
     31  0.767886D-02  0.255205D-02  0.000000D+00 -0.255196D-02  0.000000D+00
     32 -0.326034D-02  0.108995D-03  0.734236D-03  0.160247D-02 -0.186912D-01
     33 -0.209678D-02 -0.160247D-02 -0.734243D-03 -0.108986D-03  0.186909D-01
               16            17            18            19            20 
     16  0.728006D-01
     17 -0.717372D-02  0.728005D-01
     18 -0.250918D-01  0.196771D-01  0.567772D-01
     19  0.196768D-01 -0.250917D-01  0.451840D-02  0.567768D-01
     20 -0.205518D-01 -0.205521D-01 -0.580486D-02 -0.580456D-02  0.266835D-01
     21 -0.908020D-02 -0.907995D-02 -0.865784D-02 -0.865759D-02  0.672813D-02
     22  0.231652D-03 -0.240995D-02 -0.125349D-01  0.111830D-01  0.583309D-03
     23 -0.937365D-02 -0.552443D-02  0.107557D-01 -0.208036D-02 -0.369935D-02
     24  0.334578D-02  0.719525D-02  0.728335D-03 -0.121078D-01  0.486598D-02
     25  0.380001D-02 -0.379984D-02 -0.129263D-01  0.129263D-01  0.000000D+00
     26 -0.580530D-02 -0.691432D-02  0.103643D-01 -0.336987D-03 -0.428266D-02
     27  0.691414D-02  0.580536D-02  0.336954D-03 -0.103645D-01  0.428267D-02
     28  0.241012D-02 -0.231512D-03 -0.111829D-01  0.125350D-01 -0.583320D-03
     29 -0.719519D-02 -0.334599D-02  0.121077D-01 -0.728347D-03 -0.486598D-02
     30  0.552425D-02  0.937369D-02  0.208033D-02 -0.107558D-01  0.369935D-02
     31  0.246771D-01 -0.246766D-01 -0.798882D-02  0.798950D-02  0.000000D+00
     32 -0.255557D-01 -0.394160D-02  0.205213D-01  0.131940D-01  0.129114D-01
     33  0.394184D-02  0.255556D-01 -0.131941D-01 -0.205210D-01 -0.129115D-01
               21            22            23            24            25 
     21  0.405776D+00
     22  0.320757D-03  0.161407D-01
     23  0.145745D-02  0.284444D-02  0.159152D-01
     24 -0.816190D-03  0.230391D-02  0.301504D-02  0.148340D-01
     25  0.000000D+00  0.586543D-02 -0.751448D-02 -0.751442D-02  0.155138D-01
     26  0.113666D-02 -0.743079D-02  0.555629D-02 -0.680329D-02  0.213392D-02
     27 -0.113697D-02 -0.797132D-02 -0.734388D-02  0.501563D-02  0.213398D-02
     28 -0.320566D-03  0.627150D-02 -0.756534D-02 -0.702468D-02  0.586545D-02
     29  0.816126D-03 -0.702472D-02  0.550543D-02 -0.631355D-02 -0.751446D-02
     30 -0.145751D-02 -0.756525D-02 -0.739474D-02  0.550538D-02 -0.751440D-02
     31 -0.228427D-05 -0.398319D-02  0.106423D-02  0.106425D-02 -0.234000D-02
     32 -0.156106D-02  0.147330D-02  0.122047D-03 -0.119736D-02  0.808324D-03
     33  0.155735D-02  0.164387D-02 -0.102693D-02  0.292564D-03  0.808408D-03
               26            27            28            29            30 
     26  0.151210D-01
     27  0.276142D-02  0.151209D-01
     28 -0.797139D-02 -0.743072D-02  0.161407D-01
     29  0.501569D-02 -0.680328D-02  0.230386D-02  0.148340D-01
     30 -0.734389D-02  0.555623D-02  0.284453D-02  0.301503D-02  0.159152D-01
     31  0.270742D-02  0.270744D-02 -0.398314D-02  0.106428D-02  0.106430D-02
     32 -0.542927D-03 -0.186233D-02  0.164380D-02  0.292549D-03 -0.102686D-02
     33 -0.186239D-02 -0.542897D-03  0.147337D-02 -0.119743D-02  0.122067D-03
               31            32            33 
     31  0.191290D-01
     32 -0.628550D-02  0.241544D-01
     33 -0.628577D-02 -0.146646D-01  0.241545D-01
 Leave Link  716 at Tue Feb 22 12:11:56 2022, MaxMem= 17179869184 cpu:               0.6 elap:               0.0
 (Enter /home/saurabh/gaussian/g16/l103.exe)

 GradGradGradGradGradGradGradGradGradGradGradGradGradGradGradGradGradGrad
 Berny optimization.
 Red2BG is reusing G-inverse.
 Internal  Forces:  Max     0.040820649 RMS     0.010553294
 Search for a local minimum.
 Step number   1 out of a maximum of  100
 All quantities printed in internal units (Hartrees-Bohrs-Radians)
 RMS Force = .10553D-01 SwitMx=.10000D-02 MixMth= 1
 Mixed Optimization -- RFO/linear search
 Second derivative matrix not updated -- analytic derivatives used.
 ITU=  0
     Eigenvalues ---    0.00241   0.00416   0.04340   0.04396   0.04824
     Eigenvalues ---    0.06046   0.09831   0.11967   0.12537   0.12994
     Eigenvalues ---    0.16694   0.22646   0.27687   0.28762   0.29704
     Eigenvalues ---    0.29726   0.29983   0.30992   0.32143   0.36620
     Eigenvalues ---    0.56355
 RFO step:  Lambda=-1.08890548D-02 EMin= 2.40781750D-03
 Linear search not attempted -- first point.
 Iteration  1 RMS(Cart)=  0.04140166 RMS(Int)=  0.00198261
 Iteration  2 RMS(Cart)=  0.00165100 RMS(Int)=  0.00109565
 Iteration  3 RMS(Cart)=  0.00000345 RMS(Int)=  0.00109565
 Iteration  4 RMS(Cart)=  0.00000001 RMS(Int)=  0.00109565
 ITry= 1 IFail=0 DXMaxC= 9.50D-02 DCOld= 1.00D+10 DXMaxT= 3.00D-01 DXLimC= 3.00D+00 Rises=F
 Variable       Old X    -DE/DX   Delta X   Delta X   Delta X     New X
                                 (Linear)    (Quad)   (Total)
    R1        2.87474   0.00167   0.00000  -0.01654  -0.01654   2.85821
    R2        2.09909  -0.01260   0.00000  -0.04118  -0.04118   2.05791
    R3        2.09859  -0.01331   0.00000  -0.03987  -0.03987   2.05872
    R4        2.09906  -0.01259   0.00000  -0.04115  -0.04115   2.05791
    R5        2.64999   0.02755   0.00000   0.08247   0.08247   2.73245
    R6        2.10434  -0.01416   0.00000  -0.04660  -0.04660   2.05774
    R7        2.10434  -0.01416   0.00000  -0.04660  -0.04660   2.05774
    R8        2.49264   0.01058   0.00000  -0.00522  -0.00522   2.48742
    A1        1.92081   0.00352   0.00000   0.01710   0.01699   1.93781
    A2        1.91595  -0.00109   0.00000  -0.00614  -0.00610   1.90985
    A3        1.92081   0.00352   0.00000   0.01710   0.01699   1.93780
    A4        1.90078  -0.00152   0.00000  -0.00968  -0.00964   1.89114
    A5        1.90442  -0.00302   0.00000  -0.00928  -0.00952   1.89490
    A6        1.90078  -0.00152   0.00000  -0.00968  -0.00964   1.89114
    A7        1.90681  -0.00124   0.00000  -0.01819  -0.01731   1.88950
    A8        1.89023   0.00666   0.00000   0.06761   0.06606   1.95629
    A9        1.89022   0.00666   0.00000   0.06762   0.06608   1.95630
   A10        1.92527  -0.00390   0.00000  -0.04636  -0.04614   1.87912
   A11        1.92528  -0.00390   0.00000  -0.04638  -0.04616   1.87912
   A12        1.92525  -0.00386   0.00000  -0.02005  -0.02491   1.90034
   A13        1.84632   0.04082   0.00000   0.08773   0.08773   1.93405
    D1       -1.04972  -0.00037   0.00000  -0.00512  -0.00520  -1.05492
    D2        1.04787  -0.00184   0.00000  -0.03157  -0.03275   1.01512
    D3        3.13586   0.00111   0.00000   0.02133   0.02237  -3.12496
    D4       -3.14159  -0.00000   0.00000  -0.00000  -0.00000  -3.14159
    D5       -1.04400  -0.00147   0.00000  -0.02645  -0.02756  -1.07155
    D6        1.04399   0.00147   0.00000   0.02645   0.02756   1.07155
    D7        1.04972   0.00037   0.00000   0.00512   0.00519   1.05492
    D8       -3.13587  -0.00111   0.00000  -0.02133  -0.02236   3.12495
    D9       -1.04788   0.00184   0.00000   0.03158   0.03275  -1.01513
   D10       -3.14151  -0.00000   0.00000  -0.00001  -0.00001  -3.14153
   D11        1.06572  -0.00504   0.00000  -0.04366  -0.04246   1.02326
   D12       -1.06557   0.00504   0.00000   0.04365   0.04244  -1.02313
         Item               Value     Threshold  Converged?
 Maximum Force            0.040821     0.000450     NO 
 RMS     Force            0.010553     0.000300     NO 
 Maximum Displacement     0.095017     0.001800     NO 
 RMS     Displacement     0.041257     0.001200     NO 
 Predicted change in Energy=-5.701515D-03
 Lowest energy point so far.  Saving SCF results.
 GradGradGradGradGradGradGradGradGradGradGradGradGradGradGradGradGradGrad

 Leave Link  103 at Tue Feb 22 12:11:56 2022, MaxMem= 17179869184 cpu:               0.5 elap:               0.1
 (Enter /home/saurabh/gaussian/g16/l202.exe)
                          Input orientation:                          
 ---------------------------------------------------------------------
 Center     Atomic      Atomic             Coordinates (Angstroms)
 Number     Number       Type             X           Y           Z
 ---------------------------------------------------------------------
      1          6           0       -4.488262    2.123863    0.076707
      2          6           0       -3.133943    2.747439   -0.177498
      3          1           0       -4.556257    1.137578   -0.379953
      4          1           0       -5.264537    2.755476   -0.353775
      5          1           0       -4.679021    2.025603    1.144358
      6          8           0       -2.124379    1.890423    0.403086
      7          1           0       -2.918259    2.838618   -1.240930
      8          1           0       -3.041252    3.728301    0.286222
      9          8           0       -0.921150    2.388049    0.210183
 ---------------------------------------------------------------------
                    Distance matrix (angstroms):
                    1          2          3          4          5
     1  C    0.000000
     2  C    1.512497   0.000000
     3  H    1.088999   2.157688   0.000000
     4  H    1.089428   2.137889   1.766335   0.000000
     5  H    1.089000   2.157688   1.768384   1.766337   0.000000
     6  O    2.397699   1.445952   2.663448   3.343912   2.663448
     7  H    2.170703   1.088908   2.513534   2.509777   3.074228
     8  H    2.170705   1.088907   3.074228   2.509778   2.513537
     9  O    3.579372   2.275063   3.889208   4.395232   3.889171
                    6          7          8          9
     6  O    0.000000
     7  H    2.057209   0.000000
     8  H    2.057210   1.771682   0.000000
     9  O    1.316284   2.509419   2.509360   0.000000
 Stoichiometry    C2H5O2(2)
 Framework group  C1[X(C2H5O2)]
 Deg. of freedom    21
 Full point group                 C1      NOp   1
 RotChk:  IX=0 Diff= 1.95D-02
 Largest Abelian subgroup         C1      NOp   1
 Largest concise Abelian subgroup C1      NOp   1
                         Standard orientation:                         
 ---------------------------------------------------------------------
 Center     Atomic      Atomic             Coordinates (Angstroms)
 Number     Number       Type             X           Y           Z
 ---------------------------------------------------------------------
      1          6           0        1.744894   -0.173594   -0.000017
      2          6           0        0.402534    0.523340    0.000016
      3          1           0        1.860666   -0.798683    0.884167
      4          1           0        2.539885    0.571282   -0.000026
      5          1           0        1.860630   -0.798668   -0.884217
      6          8           0       -0.632291   -0.486567    0.000028
      7          1           0        0.261749    1.140728    0.885867
      8          1           0        0.261712    1.140747   -0.885815
      9          8           0       -1.826360    0.067332   -0.000025
 ---------------------------------------------------------------------
 Rotational constants (GHZ):          33.9837456           4.4227099           4.1146195
 Leave Link  202 at Tue Feb 22 12:11:56 2022, MaxMem= 17179869184 cpu:               0.2 elap:               0.0
 (Enter /home/saurabh/gaussian/g16/l301.exe)
 Standard basis: CC-pVTZ+d (5D, 7F)
 Ernie: Thresh=  0.10000D-02 Tol=  0.10000D-05 Strict=F.
 Ernie:  12 primitive shells out of 144 were deleted.
 There are   215 symmetry adapted cartesian basis functions of A   symmetry.
 There are   190 symmetry adapted basis functions of A   symmetry.
   190 basis functions,   293 primitive gaussians,   215 cartesian basis functions
    17 alpha electrons       16 beta electrons
       nuclear repulsion energy       124.1360303164 Hartrees.
 IExCor=  402 DFT=T Ex+Corr=B3LYP ExCW=0 ScaHFX=  0.200000
 ScaDFX=  0.800000  0.720000  1.000000  0.810000 ScalE2=  1.000000  1.000000
 IRadAn=      5 IRanWt=     -1 IRanGd=            0 ICorTp=0 IEmpDi=  4
 NAtoms=    9 NActive=    9 NUniq=    9 SFac= 1.00D+00 NAtFMM=   60 NAOKFM=F Big=F
 Integral buffers will be    131072 words long.
 Raffenetti 2 integral format.
 Two-electron integral symmetry is turned on.
 Leave Link  301 at Tue Feb 22 12:11:56 2022, MaxMem= 17179869184 cpu:               1.3 elap:               0.1
 (Enter /home/saurabh/gaussian/g16/l302.exe)
 NPDir=0 NMtPBC=     1 NCelOv=     1 NCel=       1 NClECP=     1 NCelD=      1
         NCelK=      1 NCelE2=     1 NClLst=     1 CellRange=     0.0.
 One-electron integrals computed using PRISM.
 One-electron integral symmetry used in STVInt
 NBasis=   190 RedAO= T EigKep=  1.11D-03  NBF=   190
 NBsUse=   190 1.00D-06 EigRej= -1.00D+00 NBFU=   190
 Precomputing XC quadrature grid using
 IXCGrd= 4 IRadAn=           5 IRanWt=          -1 IRanGd=           0 AccXCQ= 0.00D+00.
 Generated NRdTot=       0 NPtTot=           0 NUsed=           0 NTot=          32
 NSgBfM=   215   215   215   215   215 MxSgAt=     9 MxSgA2=     9.
 Leave Link  302 at Tue Feb 22 12:11:57 2022, MaxMem= 17179869184 cpu:               3.8 elap:               0.2
 (Enter /home/saurabh/gaussian/g16/l303.exe)
 DipDrv:  MaxL=1.
[...]
 Alpha virt. eigenvalues --   62.19793  62.22738  62.28302  62.30830  62.32761
 Alpha virt. eigenvalues --   74.90578  74.97012  75.06437  75.07580  75.10099
 Alpha virt. eigenvalues --   75.11497  75.14378  75.22035  75.24051  75.27281
 Alpha virt. eigenvalues --   75.30947  75.34404  75.38699  75.49762  75.72247
 Alpha virt. eigenvalues --   76.03144  86.23969  86.89151 168.12177 168.25681
 Alpha virt. eigenvalues --  309.32720 309.87289 614.69973 614.822551123.23811
 Alpha virt. eigenvalues -- 1123.702102492.168322492.275844392.660164393.00562
 Alpha virt. eigenvalues -- ****************************************
  Beta  occ. eigenvalues --  -20.65585 -20.64076 -11.29986 -11.23792  -1.50182
  Beta  occ. eigenvalues --   -1.12985  -0.99856  -0.85922  -0.67849  -0.66967
  Beta  occ. eigenvalues --   -0.65616  -0.55873  -0.55454  -0.53316  -0.48295
  Beta  occ. eigenvalues --   -0.45230
  Beta virt. eigenvalues --    0.12818   0.13666   0.17828   0.19782   0.20678
  Beta virt. eigenvalues --    0.24032   0.26245   0.31787   0.35191   0.38369
  Beta virt. eigenvalues --    0.38595   0.44991   0.45755   0.53541   0.57572
  Beta virt. eigenvalues --    0.58990   0.61484   0.62595   0.64404   0.65498
  Beta virt. eigenvalues --    0.65661   0.73046   0.73832   0.75728   0.77853
  Beta virt. eigenvalues --    0.79124   0.88636   0.90008   0.92774   0.94722
  Beta virt. eigenvalues --    1.01798   1.06875   1.07455   1.12359   1.12717
  Beta virt. eigenvalues --    1.18240   1.20305   1.21980   1.22080   1.26221
  Beta virt. eigenvalues --    1.28448   1.30911   1.34520   1.35099   1.36980
  Beta virt. eigenvalues --    1.42861   1.46618   1.48419   1.49355   1.54508
  Beta virt. eigenvalues --    1.56407   1.56470   1.58176   1.62729   1.72143
  Beta virt. eigenvalues --    1.75640   1.81504   1.83325   1.95588   2.12160
  Beta virt. eigenvalues --    2.13719   2.23571   2.24083   2.27999   2.34434
  Beta virt. eigenvalues --    2.36413   2.40046   2.42778   2.50092   2.50615
  Beta virt. eigenvalues --    2.61793   2.66687   2.74272   2.80791   2.87002
  Beta virt. eigenvalues --    2.90886   3.01167   3.05810   3.08873   3.11709
  Beta virt. eigenvalues --    3.17082   3.18101   3.20805   3.23949   3.24580
  Beta virt. eigenvalues --    3.27781   3.27802   3.32734   3.36300   3.39292
  Beta virt. eigenvalues --    3.40012   3.43778   3.47891   3.50855   3.57813
  Beta virt. eigenvalues --    3.61732   3.63998   3.65461   3.69097   3.70632
  Beta virt. eigenvalues --    3.75986   3.76842   3.83946   3.84614   3.93047
  Beta virt. eigenvalues --    3.99271   4.01843   4.06727   4.06814   4.11250
  Beta virt. eigenvalues --    4.11274   4.17727   4.18000   4.23674   4.31791
  Beta virt. eigenvalues --    4.35910   4.36292   4.37807   4.40165   4.44613
  Beta virt. eigenvalues --    4.51775   4.53832   4.58597   4.62628   4.67197
  Beta virt. eigenvalues --    4.67929   4.85565   4.85672   4.87318   4.91955
  Beta virt. eigenvalues --    4.97353   5.01775   5.04811   5.09346   5.09774
  Beta virt. eigenvalues --    5.14209   5.23926   5.26934   5.30553   5.31674
  Beta virt. eigenvalues --    5.41690   5.45556   5.46484   5.49283   5.55564
  Beta virt. eigenvalues --    5.56330   5.58838   5.59495   5.60088   5.60463
  Beta virt. eigenvalues --    5.68234   5.71206   5.78015   5.86565   6.04951
  Beta virt. eigenvalues --    6.11327   6.13668   6.16048   6.17124   6.25234
  Beta virt. eigenvalues --    6.57509   6.64116   6.71029   6.72680   6.77922
  Beta virt. eigenvalues --    6.84097   6.87130   7.14968   7.21484   7.26437
  Beta virt. eigenvalues --    7.47289   7.60911   7.90983   8.79695   9.21309
  Beta virt. eigenvalues --    9.25878   9.32784   9.40686   9.44481   9.45628
  Beta virt. eigenvalues --   10.00739  10.20787  10.31338  10.32504  10.43254
  Beta virt. eigenvalues --   10.49853  10.54715  10.57624  10.60282  10.64592
  Beta virt. eigenvalues --   10.69664  10.69955  10.82646  10.92151  11.00569
  Beta virt. eigenvalues --   11.07423  11.13128  11.15793  11.20447  11.34178
  Beta virt. eigenvalues --   11.34796  11.43021  11.47454  11.49025  12.21349
  Beta virt. eigenvalues --   12.62289  12.66886  12.87155  12.94292  13.25331
  Beta virt. eigenvalues --   13.37094  15.38135  15.44390  15.59138  15.76490
  Beta virt. eigenvalues --   16.19414  16.74905  18.30247  18.33373  18.39889
  Beta virt. eigenvalues --   18.44947  18.45398  18.51068  18.69114  18.74253
  Beta virt. eigenvalues --   18.83742  18.94453  19.14331  19.31892  19.39925
  Beta virt. eigenvalues --   19.48875  22.01093  22.45958  22.49344  22.51829
  Beta virt. eigenvalues --   22.57000  22.67470  22.67655  22.78177  22.78567
  Beta virt. eigenvalues --   22.99876  23.27686  23.57535  36.21391  36.22661
  Beta virt. eigenvalues --   36.29055  36.34809  36.36524  36.74733  36.78727
  Beta virt. eigenvalues --   36.92817  36.95085  37.28672  41.64474  41.82918
  Beta virt. eigenvalues --   41.86912  41.92783  41.98182  41.98624  47.33354
  Beta virt. eigenvalues --   47.47563  62.19793  62.22744  62.28307  62.30831
  Beta virt. eigenvalues --   62.32767  74.92864  74.97676  75.07318  75.08478
  Beta virt. eigenvalues --   75.11980  75.12930  75.16060  75.22540  75.24712
  Beta virt. eigenvalues --   75.27863  75.31472  75.34766  75.38949  75.50153
  Beta virt. eigenvalues --   75.72615  76.03412  86.24936  86.89595 168.12168
  Beta virt. eigenvalues --  168.25678 309.33026 309.87433 614.69969 614.82254
  Beta virt. eigenvalues -- 1123.239031123.702582492.168312492.275834392.66043
  Beta virt. eigenvalues -- 4393.00577****************************************
          Condensed to atoms (all electrons):
               1          2          3          4          5          6
     1  C    4.542606   0.384013   0.416468   0.411903   0.416468  -0.033458
     2  C    0.384013   4.433460  -0.031981  -0.034865  -0.031981   0.276107
     3  H    0.416468  -0.031981   0.617600  -0.021948  -0.024509   0.001896
     4  H    0.411903  -0.034865  -0.021948   0.638267  -0.021948   0.002376
     5  H    0.416468  -0.031981  -0.024509  -0.021948   0.617600   0.001896
     6  O   -0.033458   0.276107   0.001896   0.002376   0.001896   7.933757
     7  H   -0.031503   0.420683  -0.007694  -0.000587   0.007833  -0.040323
     8  H   -0.031502   0.420683   0.007833  -0.000587  -0.007694  -0.040323
     9  O    0.005399  -0.035083  -0.000070  -0.000171  -0.000070   0.090047
               7          8          9
     1  C   -0.031503  -0.031502   0.005399
     2  C    0.420683   0.420683  -0.035083
     3  H   -0.007694   0.007833  -0.000070
     4  H   -0.000587  -0.000587  -0.000171
     5  H    0.007833  -0.007694  -0.000070
     6  O   -0.040323  -0.040323   0.090047
     7  H    0.669471  -0.043715   0.000670
     8  H   -0.043715   0.669470   0.000671
     9  O    0.000670   0.000671   8.027896
          Atomic-Atomic Spin Densities.
               1          2          3          4          5          6
     1  C   -0.005823   0.003907   0.000876  -0.000056   0.000876  -0.001027
     2  C    0.003907  -0.027136  -0.000199   0.000818  -0.000199   0.008363
     3  H    0.000876  -0.000199  -0.001517   0.000076   0.000473   0.000066
     4  H   -0.000056   0.000818   0.000076  -0.002248   0.000076  -0.000083
     5  H    0.000876  -0.000199   0.000473   0.000076  -0.001517   0.000066
     6  O   -0.001027   0.008363   0.000066  -0.000083   0.000066   0.216915
     7  H   -0.000447   0.000693   0.000074  -0.000077  -0.000003  -0.003249
     8  H   -0.000448   0.000693  -0.000003  -0.000077   0.000074  -0.003249
     9  O   -0.000132  -0.006903  -0.000096  -0.000005  -0.000096  -0.124371
               7          8          9
     1  C   -0.000447  -0.000448  -0.000132
     2  C    0.000693   0.000693  -0.006903
     3  H    0.000074  -0.000003  -0.000096
     4  H   -0.000077  -0.000077  -0.000005
     5  H   -0.000003   0.000074  -0.000096
     6  O   -0.003249  -0.003249  -0.124371
     7  H    0.009274  -0.003470   0.003299
     8  H   -0.003470   0.009274   0.003299
     9  O    0.003299   0.003299   1.043712
 Mulliken charges and spin densities:
               1          2
     1  C   -0.080396  -0.002275
     2  C    0.198963  -0.019965
     3  H    0.042405  -0.000250
     4  H    0.027560  -0.001576
     5  H    0.042405  -0.000251
     6  O   -0.191975   0.093430
     7  H    0.025163   0.006091
     8  H    0.025163   0.006091
     9  O   -0.089289   0.918704
 Sum of Mulliken charges =  -0.00000   1.00000
 Mulliken charges and spin densities with hydrogens summed into heavy atoms:
               1          2
     1  C    0.031975  -0.004352
     2  C    0.249289  -0.007782
     6  O   -0.191975   0.093430
     9  O   -0.089289   0.918704
 Electronic spatial extent (au):  <R**2>=            319.2708
 Charge=             -0.0000 electrons
 Dipole moment (field-independent basis, Debye):
    X=              2.3129    Y=              1.1650    Z=             -0.0000  Tot=              2.5898
 Quadrupole moment (field-independent basis, Debye-Ang):
   XX=            -25.8433   YY=            -24.5322   ZZ=            -23.1725
   XY=             -0.2047   XZ=             -0.0000   YZ=              0.0000
 Traceless Quadrupole moment (field-independent basis, Debye-Ang):
   XX=             -1.3273   YY=             -0.0162   ZZ=              1.3435
   XY=             -0.2047   XZ=             -0.0000   YZ=              0.0000
 Octapole moment (field-independent basis, Debye-Ang**2):
  XXX=             -3.5915  YYY=             -0.4378  ZZZ=             -0.0000  XYY=             -1.5965
  XXY=              0.1036  XXZ=              0.0000  XZZ=             -3.7235  YZZ=             -0.1704
  YYZ=              0.0000  XYZ=             -0.0000
 Hexadecapole moment (field-independent basis, Debye-Ang**3):
 XXXX=           -307.6219 YYYY=            -59.0010 ZZZZ=            -33.6561 XXXY=              2.5516
 XXXZ=             -0.0000 YYYX=              1.4911 YYYZ=             -0.0000 ZZZX=              0.0000
 ZZZY=              0.0000 XXYY=            -59.5649 XXZZ=            -54.4752 YYZZ=            -13.8699
 XXYZ=              0.0000 YYXZ=              0.0000 ZZXY=             -1.0763
 N-N= 1.238201864592D+02 E-N=-7.869490780662D+02  KE= 2.291836825860D+02
 Leave Link  601 at Tue Feb 22 15:07:32 2022, MaxMem= 17179869184 cpu:               1.6 elap:               0.1
 (Enter /home/saurabh/gaussian/g16/l9999.exe)
 Unable to Open any file for archive entry.
 1\1\GINC-MEDIAWIKI\SP\UCCSD(T)-Full\MTSmall\C2H5O2(2)\SAURABH\22-Feb-2
 022\0\\#P Geom=AllCheck Guess=TCheck SCRF=Check CCSD(T,Full)/MTSmall i
 nt=dkh\\CH3CH2OO_w1u\\0,2\C,0,-4.4888367536,2.1233633229,0.0769510498\
 C,0,-3.1427271253,2.7579902492,-0.1843429602\H,0,-4.55200292,1.1360744
 96,-0.379492525\H,0,-5.2739004929,2.7477556156,-0.3500466547\H,0,-4.67
 48767616,2.024765834,1.1459401166\O,0,-2.125214324,1.8915929929,0.4023
 564135\H,0,-2.9159498742,2.8444537075,-1.2464524397\H,0,-3.0392335386,
 3.7361451443,0.284146423\O,0,-0.9143182098,2.3732086377,0.2193405767\\
 Version=ES64L-G16RevC.01\State=2-A\HF=-228.4651264\MP2=-229.4835966\MP
 3=-229.5116742\MP4D=-229.5298884\MP4DQ=-229.5100594\PUHF=-228.4700735\
 PMP2-0=-229.4865679\PMP3-0=-229.5133471\MP4SDQ=-229.5219426\CCSD=-229.
 523391\CCSD(T)=-229.5596905\S2=0.762552\S2-1=0.752471\S2A=0.750115\RMS
 D=6.749e-09\PG=C01 [X(C2H5O2)]\\@
 The archive entry for this job was punched.


 EVERYBODY NEEDS BEAUTY AS WELL AS BREAD, PLACES TO PLAY IN AND PRAY IN,
 WHERE NATURE MAY HEAL AND CHEER AND GIVE STRENGTH TO BODY AND SOUL ALIKE.

                                    -- JOHN MUIR
 Diagonal vibrational polarizability:
        0.0000000       0.0000000       0.0000000

 W1 and W2 theory:
 J.M.L. Martin and G. de Oliveira, JCP 111, 1843 (1999)
 S. Parthiban and J.M.L. Martin, JCP 114, 6014 (2001)

 W1U   Energy Components

                         SCF                 CCSD               CCSD(T)
 AVDZ+2d            -228.275871         -228.980279         -229.003628
 AVTZ+2df           -228.333766         -229.172347         -229.206790
 AVQZ+2df           -228.348253         -229.228837

                        NR/FC              DKH/Full
 MTsmall            -229.215705         -229.559691

 Extrapolated Energy Components

                         SCF                 CCSD               CCSD(T)
                    -228.352761           -0.908122           -0.038568

 Core + Scalar Relativistic Component
                      -0.343985

 W1U   Electronic Energy          -229.643436

 Temperature=                298.150000 Pressure=                        1.000000
 E(ZPE)=                       0.070112 E(Thermal)=                      0.075203
 W1U  (0 K)=                -229.573324 W1U   Energy=                 -229.568232
 W1U   Enthalpy=            -229.567288 W1U   Free Energy=            -229.601625

 W1U spin correction:
 G.P.F. Wood, L. Radom, G.A. Petersson, E.C. Barnes, M.J. Frisch
 and J.A. Montgomery, Jr., JCP 125, 94106 (2006).

 DE(Spin)=                         -0.000090

 W1Usc Electronic Energy          -229.643525

 Temperature=                298.150000 Pressure=                        1.000000
 E(ZPE)=                       0.070112 E(Thermal)=                      0.075203
 W1Usc(0 K)=                -229.573414 W1Usc Energy=                 -229.568322
 W1Usc Enthalpy=            -229.567378 W1Usc Free Energy=            -229.601715
 Unable to Open any file for archive entry.
 1\1\GINC-MEDIAWIKI\Mixed\W1Usc\W1Usc\C2H5O2(2)\SAURABH\22-Feb-2022\0\\
 #p w1u scf(verytight, maxcycles=1000) opt(calcfc, maxcyc=1000) int(gri
 d=ultrafine)\\CH3CH2OO_w1u\\0,2\C,0,-4.4888367536,2.1233633229,0.07695
 10498\C,0,-3.1427271253,2.7579902492,-0.1843429602\H,0,-4.55200292,1.1
 36074496,-0.379492525\H,0,-5.2739004929,2.7477556156,-0.3500466547\H,0
 ,-4.6748767616,2.024765834,1.1459401166\O,0,-2.125214324,1.8915929929,
 0.4023564135\H,0,-2.9159498742,2.8444537075,-1.2464524397\H,0,-3.03923
 35386,3.7361451443,0.284146423\O,0,-0.9143182098,2.3732086377,0.219340
 5767\\Version=ES64L-G16RevC.01\State=2-A\HF/AVTZ+2d1f=-228.3337665\HF/
 AVQZ+2d1f=-228.3482532\HFExt=-228.3527606\CCSD/AVTZ+2d1f=-229.172347\C
 CSD/AVQZ+2d1f=-229.2288365\CCSDExt=-0.9081218\CCSD(T)/AVDZ+2d=-229.003
 6278\CCSD(T)/AVTZ+2d1f=0.\TExt=-0.0385677\CCSD(T)/MTsmall=-229.2157051
 \DK-CCSD(T,FU)/MTsmall=-229.5596905\Core+Rel=-0.3439854\W1=-229.573323
 9\W1sc=-229.5734135\FreqCoord=-8.4826720823,4.0125751432,0.1454164091,
 -5.9388935511,5.2118462251,-0.3483577077,-8.6020388369,2.1468696546,-0
 .7171369387,-9.9662275398,5.1925055707,-0.6614923081,-8.8342367455,3.8
 262528926,2.1655129755,-4.0160730284,3.5745926956,0.7603434261,-5.5103
 466552,5.3752384811,-2.3554537383,-5.7433190165,7.0602910844,0.5369589
 187,-1.7278110073,4.4847143617,0.4144936179\PG=C01 [X(C2H5O2)]\NImag=0
 \\0.49757621,-0.03306895,0.55768663,0.01314645,0.00657204,0.57077021,-
 0.16498048,-0.05828091,0.02757689,0.43219415,-0.04850570,-0.11263811,0
 .01171869,0.07336126,0.53548270,0.02188210,0.01093117,-0.09042211,-0.0
 5655890,0.04570290,0.57260595,-0.04786098,-0.00978822,-0.00380327,-0.0
 0282453,-0.03127851,-0.01455940,0.05122754,-0.01242749,-0.26253634,-0.
 10097192,-0.00089451,-0.01385896,-0.00551751,0.01555580,0.28575150,-0.
 00427806,-0.10181433,-0.09695846,-0.00105888,0.00737145,0.00252680,0.0
 0403270,0.11099964,0.09942856,-0.18221247,0.10801191,-0.07397062,-0.01
 909838,0.02030344,-0.01320470,0.00174894,-0.00120150,0.00180856,0.1991
 7294,0.10940201,-0.13379534,0.06048663,-0.00931173,0.00852201,-0.00688
 683,0.02099207,-0.01568287,0.01240485,-0.11875368,0.14272361,-0.074780
 49,0.06037468,-0.08629379,0.00404850,-0.00450137,0.00093674,0.01136372
 ,-0.00752573,0.00544416,0.08162173,-0.06663643,0.09015802,-0.05379332,
 -0.00391687,0.03984635,-0.00685939,-0.00304945,0.03358037,-0.00066106,
 0.00064891,-0.00139716,0.00468609,0.00077545,-0.02364471,0.05801637,-0
 .00468768,-0.05066260,0.01989918,-0.00151317,-0.00248930,0.01627846,0.
 00475459,0.00409803,-0.02931923,-0.00412423,-0.00196873,0.01823338,0.0
 0728299,0.05029771,0.04230782,0.02101632,-0.30289992,0.00148362,0.0008
 1835,-0.00480802,0.00141019,0.00134703,-0.01213398,0.00169451,0.000485
 17,-0.01120713,-0.04731696,-0.02446958,0.32809353,-0.03582629,0.018471
 36,-0.01368075,-0.06183555,0.03819889,-0.02336924,0.00234117,0.0006432
 5,0.00002427,-0.00379324,-0.00256655,0.00116096,0.00236192,0.00051805,
 -0.00034884,0.45299879,-0.00776841,0.01152725,-0.00709534,0.01284155,-
 0.13088951,0.04933156,0.00010530,0.00103193,-0.00069726,-0.00467852,-0
 .00084846,0.00032540,0.00012497,0.00071025,-0.00010483,0.06732889,0.25
 133418,0.00160576,-0.00498175,0.00345361,-0.00859716,0.05137453,-0.078
 60533,0.00006320,0.00012110,0.00023690,0.00239124,0.00049551,0.0002609
 0,0.00015461,-0.00084814,0.00053784,-0.00585136,-0.11840716,0.10727639
 ,-0.00553066,-0.00199915,0.03047490,-0.06023369,-0.00651834,0.06164827
 ,0.00142808,0.00013184,-0.00075716,0.00090383,0.00063512,-0.00052848,-
 0.00521280,-0.00304621,0.00023395,-0.00826681,0.00920643,-0.03019483,0
 .06900668,-0.00369963,-0.00047226,0.01297879,-0.00412181,-0.04991003,0
 .00754216,0.00083203,0.00044085,0.00048614,0.00021510,0.00043990,-0.00
 027452,-0.00242530,-0.00011922,0.00074302,0.00566243,-0.00936607,0.026
 91370,0.00093873,0.05438620,0.00146817,-0.00036162,-0.00113663,0.05575
 544,0.01065663,-0.29848586,0.00004579,0.00036345,0.00059056,0.00076351
 ,0.00008661,0.00008158,0.00003024,-0.00007270,0.00147795,-0.00639207,0
 .00995822,-0.01422138,-0.05762667,-0.01947521,0.32196912,-0.00194475,-
 0.02820073,-0.01392749,-0.05026279,-0.03038855,-0.01144356,-0.00543313
 ,-0.00227383,0.00176494,0.00097477,0.00086316,-0.00020126,0.00140062,0
 .00076320,0.00031318,-0.01136002,0.02992660,0.00506466,0.00260516,0.00
 561095,0.00408365,0.05870214,-0.00231883,-0.00853392,-0.00500293,-0.02
 449466,-0.25152338,-0.10622201,-0.00169806,0.00056035,0.00042495,-0.00
 050269,0.00026941,-0.00010264,0.00042305,0.00026956,0.00028883,0.00962
 712,-0.02609897,0.00041203,-0.00084753,0.00362511,0.00011737,0.0226948
 2,0.27873742,0.00099160,0.00638971,0.00333931,-0.01038017,-0.11000455,
 -0.10684366,0.00127153,0.00114432,0.00101869,-0.00045283,-0.00031991,0
 .00018106,-0.00069952,0.00038253,0.00078934,-0.00484753,0.01928827,0.0
 0560423,-0.00311327,-0.02801189,-0.01248042,0.01495998,0.11072613,0.10
 792275,-0.00542725,0.00877156,-0.00566247,-0.06609933,-0.01212305,0.00
 202506,0.00003398,-0.00018248,-0.00013921,-0.00238249,-0.00203584,0.00
 096003,0.00006157,0.00005246,0.00022253,-0.33661996,-0.10708680,0.0353
 6388,0.00530021,-0.00301251,0.00187195,0.00531801,-0.00288322,0.002270
 21,0.39981525,0.00307467,-0.00057530,0.00141486,0.01241399,0.01730457,
 -0.01115990,0.00052501,0.00019550,0.00014379,0.00073018,0.00034047,0.0
 0010722,0.00013624,-0.00013570,-0.00012433,-0.13788344,-0.09740059,0.0
 4492020,0.00149911,0.00097551,-0.00127274,0.00100437,0.00269442,0.0004
 0539,0.11849987,0.07660111,-0.00234335,0.00187378,0.00014778,-0.012269
 35,-0.01313662,0.00309548,0.00017554,0.00003962,-0.00015323,-0.0006514
 0,-0.00011559,0.00043844,-0.00055322,-0.00008390,0.00015038,0.05330457
 ,0.04740114,-0.02454316,-0.00013671,-0.00090219,0.00220508,-0.00061411
 ,-0.00064173,0.00046869,-0.03691198,-0.03443449,0.01819054\\0.00000524
 ,-0.00004136,0.00002451,0.00003767,0.00000229,0.00000161,-0.00000809,0
 .00000967,0.00000337,0.00000637,-0.00000784,0.00000507,-0.00000696,0.0
 0000132,-0.00001094,-0.00012229,0.00007471,-0.00005338,0.00002765,-0.0
 0001376,0.00003112,0.00003017,-0.00003177,0.00000012,0.00003022,0.0000
 0674,-0.00000147\\\@
 The archive entry for this job was punched.
 Job cpu time:       0 days 20 hours 47 minutes  2.0 seconds.
 Elapsed time:       0 days  0 hours 57 minutes 24.5 seconds.
 File lengths (MBytes):  RWF= 113382 Int=      0 D2E=      0 Chk=     22 Scr=      1
 Normal termination of Gaussian 16 at Tue Feb 22 15:07:48 2022.
