 Entering Gaussian System, Link 0=g16
 Initial command:
 /apps/chpc/chem/gaussian16/B01/g16/l1.exe "/mnt/lustre/users/kotukile/Kgalaletso/4048662.sched01/Gau-191168.inp" -scrdir="/mnt/lustre/users/kotukile/Kgalaletso/4048662.sched01/"
 Entering Link 1 = /apps/chpc/chem/gaussian16/B01/g16/l1.exe PID=    191170.
  
 Copyright (c) 1988-2017, Gaussian, Inc.  All Rights Reserved.
  
 This is part of the Gaussian(R) 16 program.  It is based on
 the Gaussian(R) 09 system (copyright 2009, Gaussian, Inc.),
 the Gaussian(R) 03 system (copyright 2003, Gaussian, Inc.),
 the Gaussian(R) 98 system (copyright 1998, Gaussian, Inc.),
 the Gaussian(R) 94 system (copyright 1995, Gaussian, Inc.),
 the Gaussian 92(TM) system (copyright 1992, Gaussian, Inc.),
 the Gaussian 90(TM) system (copyright 1990, Gaussian, Inc.),
 the Gaussian 88(TM) system (copyright 1988, Gaussian, Inc.),
 the Gaussian 86(TM) system (copyright 1986, Carnegie Mellon
 University), and the Gaussian 82(TM) system (copyright 1983,
 Carnegie Mellon University). Gaussian is a federally registered
 trademark of Gaussian, Inc.
  
 This software contains proprietary and confidential information,
 including trade secrets, belonging to Gaussian, Inc.
  
 This software is provided under written license and may be
 used, copied, transmitted, or stored only in accord with that
 written license.
  
 The following legend is applicable only to US Government
 contracts under FAR:
  
                    RESTRICTED RIGHTS LEGEND
  
 Use, reproduction and disclosure by the US Government is
 subject to restrictions as set forth in subparagraphs (a)
 and (c) of the Commercial Computer Software - Restricted
 Rights clause in FAR 52.227-19.
  
 Gaussian, Inc.
 340 Quinnipiac St., Bldg. 40, Wallingford CT 06492
  
  
 ---------------------------------------------------------------
 Warning -- This program may not be used in any manner that
 competes with the business of Gaussian, Inc. or will provide
 assistance to any competitor of Gaussian, Inc.  The licensee
 of this program is prohibited from giving any competitor of
 Gaussian, Inc. access to this program.  By using this program,
 the user acknowledges that Gaussian, Inc. is engaged in the
 business of creating and licensing software in the field of
 computational chemistry and represents and warrants to the
 licensee that it is not a competitor of Gaussian, Inc. and that
 it will not use this program in any manner prohibited above.
 ---------------------------------------------------------------
  

 Cite this work as:
 Gaussian 16, Revision B.01,
 M. J. Frisch, G. W. Trucks, H. B. Schlegel, G. E. Scuseria, 
 M. A. Robb, J. R. Cheeseman, G. Scalmani, V. Barone, 
 G. A. Petersson, H. Nakatsuji, X. Li, M. Caricato, A. V. Marenich, 
 J. Bloino, B. G. Janesko, R. Gomperts, B. Mennucci, H. P. Hratchian, 
 J. V. Ortiz, A. F. Izmaylov, J. L. Sonnenberg, D. Williams-Young, 
 F. Ding, F. Lipparini, F. Egidi, J. Goings, B. Peng, A. Petrone, 
 T. Henderson, D. Ranasinghe, V. G. Zakrzewski, J. Gao, N. Rega, 
 G. Zheng, W. Liang, M. Hada, M. Ehara, K. Toyota, R. Fukuda, 
 J. Hasegawa, M. Ishida, T. Nakajima, Y. Honda, O. Kitao, H. Nakai, 
 T. Vreven, K. Throssell, J. A. Montgomery, Jr., J. E. Peralta, 
 F. Ogliaro, M. J. Bearpark, J. J. Heyd, E. N. Brothers, K. N. Kudin, 
 V. N. Staroverov, T. A. Keith, R. Kobayashi, J. Normand, 
 K. Raghavachari, A. P. Rendell, J. C. Burant, S. S. Iyengar, 
 J. Tomasi, M. Cossi, J. M. Millam, M. Klene, C. Adamo, R. Cammi, 
 J. W. Ochterski, R. L. Martin, K. Morokuma, O. Farkas, 
 J. B. Foresman, and D. J. Fox, Gaussian, Inc., Wallingford CT, 2016.
 
 ******************************************
 Gaussian 16:  ES64L-G16RevB.01 20-Dec-2017
                24-Feb-2022 
 ******************************************
 %nprocshared=24
 Will use up to   24 processors via shared memory.
 %lindaworkers=cnode0281.cm.cluster,cnode1105.cm.cluster
 %mem=5GB
 %chk=Ret-O2-concerted-OOH-elimination-TS1-B3LYP-A.chk
 SetLPE:    new flags="-opt 'Tsnet.Node.lindarsharg: ssh'  -nodelist 'cnode0281.cm.cluster cnode1105.cm.cluster' -env GAUSS_MDEF=671088640 -env GAUSS_EXEDIR="/apps/chpc/chem/gaussian16/B01/g16/bsd:/apps/chpc/chem/gaussian16/B01/g16""
 Will use up to    2 processors via Linda.
 ---------------------------------------------------
 # opt=(calcfc,ts,noeigentest) freq ub3lyp cc-pvtz+d
 ---------------------------------------------------
 1/5=1,10=4,11=1,18=20,26=3,38=1/1,3;
 2/9=110,12=2,17=6,18=5,40=1/2;
 3/5=16,6=1,7=9,11=2,25=1,30=1,71=2,74=-5,116=2,140=1/1,2,3;
 4//1;
 5/5=2,38=5/2;
 8/6=4,10=90,11=11/1;
 11/6=1,8=1,9=11,15=111,16=1/1,2,10;
 10/6=1,13=1/2;
 6/7=2,8=2,9=2,10=2,28=1/1;
 7/10=1,18=20,25=1/1,2,3,16;
 1/5=1,10=4,11=1,18=20,26=3/3(2);
 2/9=110/2;
 99//99;
 2/9=110/2;
 3/5=16,6=1,7=9,11=2,25=1,30=1,71=1,74=-5,116=2/1,2,3;
 4/5=5,16=3,69=1/1;
 5/5=2,38=5/2;
 7//1,2,3,16;
 1/5=1,11=1,18=20,26=3/3(-5);
 2/9=110/2;
 6/7=2,8=2,9=2,10=2,19=2,28=1/1;
 99/9=1/99;
 --------------------------------------------
 Ret-O2-concerted-OOH-elimination-TS1-B3LYP-A
 --------------------------------------------
 Symbolic Z-matrix:
 Charge =  0 Multiplicity = 2
 C                    -1.29074  -0.61766   0.00003 
 H                    -1.63425  -1.08967   0.91908 
 H                     0.04829  -0.94814  -0.00006 
 H                    -1.63434  -1.08953  -0.91906 
 C                    -1.04908   0.74599   0.00012 
 H                    -1.02384   1.32187  -0.91832 
 H                    -1.02373   1.32172   0.91865 
 O                     1.15252   0.61873  -0.00003 
 O                     1.26083  -0.65451  -0.00012 
 
 Add virtual bond connecting atoms O9         and H3         Dist= 2.36D+00.
 Add virtual bond connecting atoms H3         and C1         Dist= 2.61D+00.

 GradGradGradGradGradGradGradGradGradGradGradGradGradGradGradGradGradGrad
 Berny optimization.
 Initialization pass.
                           ----------------------------
                           !    Initial Parameters    !
                           ! (Angstroms and Degrees)  !
 --------------------------                            --------------------------
 ! Name  Definition              Value          Derivative Info.                !
 --------------------------------------------------------------------------------
 ! R1    R(1,2)                  1.0888         calculate D2E/DX2 analytically  !
 ! R2    R(1,3)                  1.3792         calculate D2E/DX2 analytically  !
 ! R3    R(1,4)                  1.0888         calculate D2E/DX2 analytically  !
 ! R4    R(1,5)                  1.3849         calculate D2E/DX2 analytically  !
 ! R5    R(3,9)                  1.2476         calculate D2E/DX2 analytically  !
 ! R6    R(5,6)                  1.0843         calculate D2E/DX2 analytically  !
 ! R7    R(5,7)                  1.0843         calculate D2E/DX2 analytically  !
 ! R8    R(8,9)                  1.2778         calculate D2E/DX2 analytically  !
 ! A1    A(2,1,3)              101.6824         calculate D2E/DX2 analytically  !
 ! A2    A(2,1,4)              115.1575         calculate D2E/DX2 analytically  !
 ! A3    A(2,1,5)              118.8072         calculate D2E/DX2 analytically  !
 ! A4    A(3,1,4)              101.6825         calculate D2E/DX2 analytically  !
 ! A5    A(3,1,5)               93.8142         calculate D2E/DX2 analytically  !
 ! A6    A(4,1,5)              118.807          calculate D2E/DX2 analytically  !
 ! A7    A(1,3,9)              152.5239         calculate D2E/DX2 analytically  !
 ! A8    A(1,5,6)              121.799          calculate D2E/DX2 analytically  !
 ! A9    A(1,5,7)              121.7989         calculate D2E/DX2 analytically  !
 ! A10   A(6,5,7)              115.7825         calculate D2E/DX2 analytically  !
 ! A11   A(3,9,8)               98.75           calculate D2E/DX2 analytically  !
 ! D1    D(2,1,3,9)           -120.4621         calculate D2E/DX2 analytically  !
 ! D2    D(4,1,3,9)            120.4574         calculate D2E/DX2 analytically  !
 ! D3    D(5,1,3,9)             -0.0022         calculate D2E/DX2 analytically  !
 ! D4    D(2,1,5,6)           -159.735          calculate D2E/DX2 analytically  !
 ! D5    D(2,1,5,7)             10.8582         calculate D2E/DX2 analytically  !
 ! D6    D(3,1,5,6)             94.7042         calculate D2E/DX2 analytically  !
 ! D7    D(3,1,5,7)            -94.7025         calculate D2E/DX2 analytically  !
 ! D8    D(4,1,5,6)            -10.8566         calculate D2E/DX2 analytically  !
 ! D9    D(4,1,5,7)            159.7367         calculate D2E/DX2 analytically  !
 ! D10   D(1,3,9,8)              0.0015         calculate D2E/DX2 analytically  !
 --------------------------------------------------------------------------------
 Trust Radius=3.00D-01 FncErr=1.00D-07 GrdErr=1.00D-06 EigMax=2.50D+02 EigMin=1.00D-04
 Number of steps in this run=     39 maximum allowed number of steps=    100.
 Search for a saddle point of order  1.
 GradGradGradGradGradGradGradGradGradGradGradGradGradGradGradGradGradGrad

                          Input orientation:                          
 ---------------------------------------------------------------------
 Center     Atomic      Atomic             Coordinates (Angstroms)
 Number     Number       Type             X           Y           Z
 ---------------------------------------------------------------------
      1          6           0       -1.290743   -0.617663    0.000030
      2          1           0       -1.634252   -1.089670    0.919084
      3          1           0        0.048285   -0.948135   -0.000060
      4          1           0       -1.634342   -1.089527   -0.919064
      5          6           0       -1.049082    0.745991    0.000122
      6          1           0       -1.023843    1.321870   -0.918320
      7          1           0       -1.023728    1.321724    0.918653
      8          8           0        1.152519    0.618729   -0.000031
      9          8           0        1.260834   -0.654508   -0.000119
 ---------------------------------------------------------------------
                    Distance matrix (angstroms):
                    1          2          3          4          5
     1  C    0.000000
     2  H    1.088783   0.000000
     3  H    1.379205   1.922443   0.000000
     4  H    1.088784   1.838148   1.922445   0.000000
     5  C    1.384902   2.134612   2.018484   2.134610   0.000000
     6  H    2.162496   3.092600   2.673122   2.487478   1.084347
     7  H    2.162496   2.487481   2.673108   3.092602   1.084348
     8  O    2.738283   3.395511   1.916871   3.395490   2.205276
     9  O    2.551843   3.068521   1.247594   3.068509   2.701316
                    6          7          8          9
     6  H    0.000000
     7  H    1.836973   0.000000
     8  O    2.464592   2.464596   0.000000
     9  O    3.157358   3.157350   1.277836   0.000000
 Stoichiometry    C2H5O2(2)
 Framework group  C1[X(C2H5O2)]
 Deg. of freedom    21
 Full point group                 C1      NOp   1
 Largest Abelian subgroup         C1      NOp   1
 Largest concise Abelian subgroup C1      NOp   1
                         Standard orientation:                         
 ---------------------------------------------------------------------
 Center     Atomic      Atomic             Coordinates (Angstroms)
 Number     Number       Type             X           Y           Z
 ---------------------------------------------------------------------
      1          6           0       -1.290743   -0.617663    0.000030
      2          1           0       -1.634252   -1.089670    0.919084
      3          1           0        0.048285   -0.948135   -0.000060
      4          1           0       -1.634342   -1.089527   -0.919064
      5          6           0       -1.049082    0.745991    0.000122
      6          1           0       -1.023843    1.321870   -0.918320
      7          1           0       -1.023728    1.321724    0.918653
      8          8           0        1.152519    0.618729   -0.000031
      9          8           0        1.260834   -0.654508   -0.000119
 ---------------------------------------------------------------------
 Rotational constants (GHZ):          14.6748228           5.5941131           4.2838304
 Standard basis: CC-pVTZ+d (5D, 7F)
 There are   215 symmetry adapted cartesian basis functions of A   symmetry.
 There are   190 symmetry adapted basis functions of A   symmetry.
   190 basis functions,   293 primitive gaussians,   215 cartesian basis functions
    17 alpha electrons       16 beta electrons
       nuclear repulsion energy       121.1469503807 Hartrees.
 NAtoms=    9 NActive=    9 NUniq=    9 SFac= 1.00D+00 NAtFMM=   60 NAOKFM=F Big=F
 Integral buffers will be    131072 words long.
 Raffenetti 2 integral format.
 Two-electron integral symmetry is turned on.
 One-electron integrals computed using PRISM.
 NBasis=   190 RedAO= T EigKep=  5.22D-04  NBF=   190
 NBsUse=   190 1.00D-06 EigRej= -1.00D+00 NBFU=   190
 ExpMin= 1.03D-01 ExpMax= 1.53D+04 ExpMxC= 5.22D+02 IAcc=3 IRadAn=         5 AccDes= 0.00D+00
 Harris functional with IExCor=  402 and IRadAn=       5 diagonalized for initial guess.
 HarFok:  IExCor=  402 AccDes= 0.00D+00 IRadAn=         5 IDoV= 1 UseB2=F ITyADJ=14
 ICtDFT=  3500011 ScaDFX=  1.000000  1.000000  1.000000  1.000000
 FoFCou: FMM=F IPFlag=           0 FMFlag=      100000 FMFlg1=           0
         NFxFlg=           0 DoJE=T BraDBF=F KetDBF=T FulRan=T
         wScrn=  0.000000 ICntrl=       500 IOpCl=  0 I1Cent=   200000004 NGrid=           0
         NMat0=    1 NMatS0=      1 NMatT0=    0 NMatD0=    1 NMtDS0=    0 NMtDT0=    0
 Petite list used in FoFCou.
 Initial guess <Sx>= 0.0000 <Sy>= 0.0000 <Sz>= 0.5000 <S**2>= 0.7500 S= 0.5000
 Keep R1 and R2 ints in memory in canonical form, NReq=354287669.
 Requested convergence on RMS density matrix=1.00D-08 within 128 cycles.
 Requested convergence on MAX density matrix=1.00D-06.
 Requested convergence on             energy=1.00D-06.
 No special actions if energy rises.
 Integral accuracy reduced to 1.0D-05 until final iterations.
 Initial convergence to 1.0D-05 achieved.  Increase integral accuracy.
 SCF Done:  E(UB3LYP) =  -229.577968507     A.U. after   18 cycles
            NFock= 18  Conv=0.57D-08     -V/T= 2.0064
 <Sx>= 0.0000 <Sy>= 0.0000 <Sz>= 0.5000 <S**2>= 0.7579 S= 0.5039
 <L.S>= 0.000000000000E+00
 Annihilation of the first spin contaminant:
 S**2 before annihilation     0.7579,   after     0.7500
 DoSCS=F DFT=T ScalE2(SS,OS)=  1.000000  1.000000
 Range of M.O.s used for correlation:     1   190
 NBasis=   190 NAE=    17 NBE=    16 NFC=     0 NFV=     0
 NROrb=    190 NOA=    17 NOB=    16 NVA=   173 NVB=   174

 **** Warning!!: The largest alpha MO coefficient is  0.10327715D+02


 **** Warning!!: The largest beta MO coefficient is  0.10352010D+02

 Symmetrizing basis deriv contribution to polar:
 IMax=3 JMax=2 DiffMx= 0.00D+00
 G2DrvN: will do    10 centers at a time, making    1 passes.
 Calling FoFCou, ICntrl=  3107 FMM=F I1Cent=   0 AccDes= 0.00D+00.
 End of G2Drv F.D. properties file   721 does not exist.
 End of G2Drv F.D. properties file   722 does not exist.
 End of G2Drv F.D. properties file   788 does not exist.
          IDoAtm=111111111
          Differentiating once with respect to nuclear coordinates.
 Keep R1 and R2 ints in memory in canonical form, NReq=354212570.
          There are    30 degrees of freedom in the 1st order CPHF.  IDoFFX=6 NUNeed=     0.
     24 vectors produced by pass  0 Test12= 1.91D-14 3.33D-09 XBig12= 1.92D-01 1.89D-01.
 AX will form    24 AO Fock derivatives at one time.
     24 vectors produced by pass  1 Test12= 1.91D-14 3.33D-09 XBig12= 4.54D-02 7.51D-02.
     24 vectors produced by pass  2 Test12= 1.91D-14 3.33D-09 XBig12= 7.47D-04 6.24D-03.
     24 vectors produced by pass  3 Test12= 1.91D-14 3.33D-09 XBig12= 1.02D-05 1.27D-03.
     24 vectors produced by pass  4 Test12= 1.91D-14 3.33D-09 XBig12= 1.26D-07 7.14D-05.
     24 vectors produced by pass  5 Test12= 1.91D-14 3.33D-09 XBig12= 9.11D-10 4.70D-06.
     21 vectors produced by pass  6 Test12= 1.91D-14 3.33D-09 XBig12= 6.10D-12 5.49D-07.
      3 vectors produced by pass  7 Test12= 1.91D-14 3.33D-09 XBig12= 3.82D-14 3.11D-08.
 InvSVY:  IOpt=1 It=  1 EMax= 2.44D-15
 Solved reduced A of dimension   168 with    24 vectors.
 End of Minotr F.D. properties file   721 does not exist.
 End of Minotr F.D. properties file   722 does not exist.
 End of Minotr F.D. properties file   788 does not exist.

 **********************************************************************

            Population analysis using the SCF Density.

 **********************************************************************

 Orbital symmetries:
 Alpha Orbitals:
       Occupied  (A) (A) (A) (A) (A) (A) (A) (A) (A) (A) (A) (A)
                 (A) (A) (A) (A) (A)
       Virtual   (A) (A) (A) (A) (A) (A) (A) (A) (A) (A) (A) (A)
                 (A) (A) (A) (A) (A) (A) (A) (A) (A) (A) (A) (A)
                 (A) (A) (A) (A) (A) (A) (A) (A) (A) (A) (A) (A)
                 (A) (A) (A) (A) (A) (A) (A) (A) (A) (A) (A) (A)
                 (A) (A) (A) (A) (A) (A) (A) (A) (A) (A) (A) (A)
                 (A) (A) (A) (A) (A) (A) (A) (A) (A) (A) (A) (A)
                 (A) (A) (A) (A) (A) (A) (A) (A) (A) (A) (A) (A)
                 (A) (A) (A) (A) (A) (A) (A) (A) (A) (A) (A) (A)
                 (A) (A) (A) (A) (A) (A) (A) (A) (A) (A) (A) (A)
                 (A) (A) (A) (A) (A) (A) (A) (A) (A) (A) (A) (A)
                 (A) (A) (A) (A) (A) (A) (A) (A) (A) (A) (A) (A)
                 (A) (A) (A) (A) (A) (A) (A) (A) (A) (A) (A) (A)
                 (A) (A) (A) (A) (A) (A) (A) (A) (A) (A) (A) (A)
                 (A) (A) (A) (A) (A) (A) (A) (A) (A) (A) (A) (A)
                 (A) (A) (A) (A) (A)
 Beta  Orbitals:
       Occupied  (A) (A) (A) (A) (A) (A) (A) (A) (A) (A) (A) (A)
                 (A) (A) (A) (A)
       Virtual   (A) (A) (A) (A) (A) (A) (A) (A) (A) (A) (A) (A)
                 (A) (A) (A) (A) (A) (A) (A) (A) (A) (A) (A) (A)
                 (A) (A) (A) (A) (A) (A) (A) (A) (A) (A) (A) (A)
                 (A) (A) (A) (A) (A) (A) (A) (A) (A) (A) (A) (A)
                 (A) (A) (A) (A) (A) (A) (A) (A) (A) (A) (A) (A)
                 (A) (A) (A) (A) (A) (A) (A) (A) (A) (A) (A) (A)
                 (A) (A) (A) (A) (A) (A) (A) (A) (A) (A) (A) (A)
                 (A) (A) (A) (A) (A) (A) (A) (A) (A) (A) (A) (A)
                 (A) (A) (A) (A) (A) (A) (A) (A) (A) (A) (A) (A)
                 (A) (A) (A) (A) (A) (A) (A) (A) (A) (A) (A) (A)
                 (A) (A) (A) (A) (A) (A) (A) (A) (A) (A) (A) (A)
                 (A) (A) (A) (A) (A) (A) (A) (A) (A) (A) (A) (A)
                 (A) (A) (A) (A) (A) (A) (A) (A) (A) (A) (A) (A)
                 (A) (A) (A) (A) (A) (A) (A) (A) (A) (A) (A) (A)
                 (A) (A) (A) (A) (A) (A)
 The electronic state is 2-A.
 Alpha  occ. eigenvalues --  -19.23158 -19.22110 -10.21896 -10.17928  -1.20609
 Alpha  occ. eigenvalues --   -0.81839  -0.78882  -0.60889  -0.53830  -0.50620
 Alpha  occ. eigenvalues --   -0.48573  -0.47896  -0.43562  -0.37974  -0.31455
 Alpha  occ. eigenvalues --   -0.28173  -0.27892
 Alpha virt. eigenvalues --   -0.04626   0.04235   0.06782   0.07278   0.13772
 Alpha virt. eigenvalues --    0.13935   0.17772   0.21536   0.22900   0.24374
 Alpha virt. eigenvalues --    0.25745   0.31288   0.37825   0.38349   0.41203
 Alpha virt. eigenvalues --    0.42816   0.44779   0.49404   0.49466   0.49818
 Alpha virt. eigenvalues --    0.50124   0.52990   0.57886   0.59631   0.62541
 Alpha virt. eigenvalues --    0.65097   0.72201   0.73583   0.73744   0.80390
 Alpha virt. eigenvalues --    0.81979   0.86419   0.91048   0.96195   0.99881
 Alpha virt. eigenvalues --    1.01077   1.03296   1.05457   1.07507   1.07858
 Alpha virt. eigenvalues --    1.10214   1.11395   1.19984   1.22925   1.24385
 Alpha virt. eigenvalues --    1.28250   1.28905   1.31925   1.33268   1.35781
 Alpha virt. eigenvalues --    1.43119   1.48584   1.52967   1.54597   1.56147
 Alpha virt. eigenvalues --    1.62577   1.65913   1.68405   1.77962   1.99467
 Alpha virt. eigenvalues --    2.01515   2.14381   2.16264   2.23385   2.25997
 Alpha virt. eigenvalues --    2.26854   2.31844   2.35224   2.41461   2.46237
 Alpha virt. eigenvalues --    2.46745   2.49172   2.55363   2.65415   2.70169
 Alpha virt. eigenvalues --    2.72512   2.76063   2.81918   2.84335   2.84772
 Alpha virt. eigenvalues --    2.91603   2.92670   2.96087   2.97336   3.02282
 Alpha virt. eigenvalues --    3.06780   3.07534   3.14946   3.16511   3.18409
 Alpha virt. eigenvalues --    3.25266   3.27096   3.29111   3.32691   3.36197
 Alpha virt. eigenvalues --    3.38683   3.39112   3.48857   3.48857   3.57258
 Alpha virt. eigenvalues --    3.57491   3.64436   3.65862   3.68323   3.72607
 Alpha virt. eigenvalues --    3.75631   3.79285   3.81831   3.84639   3.87810
 Alpha virt. eigenvalues --    3.89659   3.91029   3.96576   3.97273   4.03674
 Alpha virt. eigenvalues --    4.05619   4.10079   4.13387   4.14194   4.15853
 Alpha virt. eigenvalues --    4.21195   4.25054   4.30729   4.45723   4.48208
 Alpha virt. eigenvalues --    4.59711   4.59766   4.60550   4.65673   4.67896
 Alpha virt. eigenvalues --    4.74040   4.74953   4.76307   4.80351   4.88240
 Alpha virt. eigenvalues --    4.91356   4.94415   4.96631   5.02650   5.09228
 Alpha virt. eigenvalues --    5.11159   5.13463   5.19270   5.23538   5.24160
 Alpha virt. eigenvalues --    5.29143   5.45680   5.48937   5.58342   5.78734
 Alpha virt. eigenvalues --    5.79340   5.82328   5.83561   5.89762   6.17199
 Alpha virt. eigenvalues --    6.18908   6.23559   6.26687   6.27054   6.35033
 Alpha virt. eigenvalues --    6.36057   6.49175   6.50552   6.63269   6.90354
 Alpha virt. eigenvalues --    6.99022   7.06504   7.38488   7.42069   8.87379
 Alpha virt. eigenvalues --   11.14184  11.47776  13.70693
  Beta  occ. eigenvalues --  -19.21785 -19.20330 -10.21963 -10.17920  -1.17556
  Beta  occ. eigenvalues --   -0.79014  -0.77411  -0.60859  -0.52653  -0.48850
  Beta  occ. eigenvalues --   -0.46921  -0.43445  -0.40835  -0.37902  -0.30602
  Beta  occ. eigenvalues --   -0.26773
  Beta virt. eigenvalues --   -0.10625  -0.04344   0.04233   0.06859   0.07284
  Beta virt. eigenvalues --    0.13801   0.14864   0.18594   0.21782   0.23014
  Beta virt. eigenvalues --    0.24385   0.25992   0.31309   0.38150   0.38503
  Beta virt. eigenvalues --    0.41303   0.42814   0.44804   0.49486   0.49634
  Beta virt. eigenvalues --    0.50365   0.51233   0.53067   0.58143   0.61910
  Beta virt. eigenvalues --    0.62948   0.65377   0.72829   0.73870   0.75464
  Beta virt. eigenvalues --    0.80577   0.82307   0.86727   0.91182   0.96314
  Beta virt. eigenvalues --    0.99957   1.01241   1.03352   1.05734   1.07565
  Beta virt. eigenvalues --    1.08131   1.10307   1.11452   1.20060   1.23840
  Beta virt. eigenvalues --    1.24850   1.28888   1.29873   1.33187   1.34395
  Beta virt. eigenvalues --    1.35773   1.43504   1.49070   1.53322   1.55223
  Beta virt. eigenvalues --    1.56754   1.63066   1.67407   1.69282   1.79703
  Beta virt. eigenvalues --    1.99727   2.03535   2.17388   2.17579   2.23845
  Beta virt. eigenvalues --    2.26232   2.27055   2.32096   2.35441   2.41511
  Beta virt. eigenvalues --    2.46165   2.46741   2.49284   2.55325   2.65409
  Beta virt. eigenvalues --    2.70119   2.72577   2.76081   2.81904   2.84176
  Beta virt. eigenvalues --    2.84797   2.91627   2.92669   2.96239   2.97340
  Beta virt. eigenvalues --    3.02211   3.06810   3.07487   3.15047   3.16541
  Beta virt. eigenvalues --    3.18401   3.25265   3.27925   3.29106   3.32760
  Beta virt. eigenvalues --    3.36369   3.38832   3.39327   3.48924   3.53514
  Beta virt. eigenvalues --    3.57707   3.57754   3.64975   3.66193   3.70634
  Beta virt. eigenvalues --    3.73021   3.77203   3.79651   3.82041   3.84663
  Beta virt. eigenvalues --    3.87907   3.89703   3.91250   3.96628   3.98941
  Beta virt. eigenvalues --    4.03853   4.05786   4.10323   4.13517   4.14253
  Beta virt. eigenvalues --    4.15901   4.21240   4.25185   4.31129   4.45829
  Beta virt. eigenvalues --    4.48340   4.59848   4.60172   4.60721   4.65764
  Beta virt. eigenvalues --    4.70802   4.76053   4.76234   4.77396   4.82337
  Beta virt. eigenvalues --    4.89876   4.91561   4.94827   4.96838   5.04012
  Beta virt. eigenvalues --    5.10725   5.12425   5.15610   5.21994   5.24038
  Beta virt. eigenvalues --    5.25056   5.29210   5.46901   5.49165   5.61216
  Beta virt. eigenvalues --    5.79476   5.80077   5.84040   5.84063   5.90663
  Beta virt. eigenvalues --    6.17200   6.24024   6.26710   6.29382   6.32729
  Beta virt. eigenvalues --    6.39361   6.40313   6.51843   6.55152   6.64189
  Beta virt. eigenvalues --    6.92285   7.00576   7.10028   7.39429   7.43059
  Beta virt. eigenvalues --    8.90410  11.15272  11.49117  13.70644
          Condensed to atoms (all electrons):
               1          2          3          4          5          6
     1  C    5.024368   0.402379   0.201191   0.402379   0.482070  -0.035180
     2  H    0.402379   0.554096  -0.005256  -0.030496  -0.035381   0.005133
     3  H    0.201191  -0.005256   0.460457  -0.005256   0.001823   0.000980
     4  H    0.402379  -0.030496  -0.005256   0.554096  -0.035382  -0.007757
     5  C    0.482070  -0.035381   0.001823  -0.035382   4.906636   0.405985
     6  H   -0.035180   0.005133   0.000980  -0.007757   0.405985   0.520759
     7  H   -0.035180  -0.007757   0.000980   0.005133   0.405984  -0.026566
     8  O   -0.021874   0.001868  -0.059624   0.001868   0.083266  -0.005435
     9  O   -0.073187  -0.001266   0.195748  -0.001266  -0.067956   0.000963
               7          8          9
     1  C   -0.035180  -0.021874  -0.073187
     2  H   -0.007757   0.001868  -0.001266
     3  H    0.000980  -0.059624   0.195748
     4  H    0.005133   0.001868  -0.001266
     5  C    0.405984   0.083266  -0.067956
     6  H   -0.026566  -0.005435   0.000963
     7  H    0.520759  -0.005435   0.000963
     8  O   -0.005435   8.006358   0.138488
     9  O    0.000963   0.138488   7.898575
          Atomic-Atomic Spin Densities.
               1          2          3          4          5          6
     1  C   -0.003042   0.000004   0.003339   0.000004   0.003977   0.000129
     2  H    0.000004   0.000023   0.000519  -0.000373  -0.000101   0.000045
     3  H    0.003339   0.000519  -0.020583   0.000519   0.003770  -0.000044
     4  H    0.000004  -0.000373   0.000519   0.000023  -0.000101   0.000019
     5  C    0.003977  -0.000101   0.003770  -0.000101  -0.051845   0.000042
     6  H    0.000129   0.000045  -0.000044   0.000019   0.000042   0.002028
     7  H    0.000129   0.000019  -0.000044   0.000045   0.000042  -0.000337
     8  O   -0.000921   0.000167   0.001919   0.000167  -0.006762   0.000036
     9  O   -0.000173  -0.000024  -0.004902  -0.000024   0.002775  -0.000145
               7          8          9
     1  C    0.000129  -0.000921  -0.000173
     2  H    0.000019   0.000167  -0.000024
     3  H   -0.000044   0.001919  -0.004902
     4  H    0.000045   0.000167  -0.000024
     5  C    0.000042  -0.006762   0.002775
     6  H   -0.000337   0.000036  -0.000145
     7  H    0.002028   0.000036  -0.000144
     8  O    0.000036   0.781906  -0.169465
     9  O   -0.000144  -0.169465   0.621181
 Mulliken charges and spin densities:
               1          2
     1  C   -0.346966   0.003446
     2  H    0.116681   0.000278
     3  H    0.208956  -0.015508
     4  H    0.116680   0.000279
     5  C   -0.147045  -0.048203
     6  H    0.141119   0.001773
     7  H    0.141118   0.001773
     8  O   -0.139480   0.607082
     9  O   -0.091063   0.449079
 Sum of Mulliken charges =  -0.00000   1.00000
 Mulliken charges and spin densities with hydrogens summed into heavy atoms:
               1          2
     1  C   -0.113605   0.004003
     5  C    0.135192  -0.044656
     8  O   -0.139480   0.607082
     9  O    0.117893   0.433571
 APT charges:
               1
     1  C   -0.811626
     2  H    0.381210
     3  H    0.126720
     4  H    0.381206
     5  C   -0.612457
     6  H    0.360431
     7  H    0.360429
     8  O   -0.107575
     9  O   -0.078338
 Sum of APT charges =  -0.00000
 APT charges with hydrogens summed into heavy atoms:
               1
     1  C   -0.049209
     5  C    0.108402
     8  O   -0.107575
     9  O    0.048382
 Electronic spatial extent (au):  <R**2>=            304.0142
 Charge=             -0.0000 electrons
 Dipole moment (field-independent basis, Debye):
    X=             -2.0555    Y=              0.0090    Z=              0.0001  Tot=              2.0555
 Quadrupole moment (field-independent basis, Debye-Ang):
   XX=            -27.6737   YY=            -23.5898   ZZ=            -23.1217
   XY=             -0.1769   XZ=              0.0003   YZ=             -0.0000
 Traceless Quadrupole moment (field-independent basis, Debye-Ang):
   XX=             -2.8787   YY=              1.2053   ZZ=              1.6734
   XY=             -0.1769   XZ=              0.0003   YZ=             -0.0000
 Octapole moment (field-independent basis, Debye-Ang**2):
  XXX=             10.1393  YYY=              0.8400  ZZZ=             -0.0002  XYY=              0.5287
  XXY=             -0.5844  XXZ=             -0.0004  XZZ=              1.7972  YZZ=              0.5744
  YYZ=             -0.0001  XYZ=              0.0000
 Hexadecapole moment (field-independent basis, Debye-Ang**3):
 XXXX=           -253.4445 YYYY=           -105.4383 ZZZZ=            -34.7293 XXXY=              1.9433
 XXXZ=              0.0076 YYYX=             -1.7146 YYYZ=             -0.0030 ZZZX=              0.0058
 ZZZY=             -0.0021 XXYY=            -57.7687 XXZZ=            -43.0358 YYZZ=            -21.1475
 XXYZ=             -0.0012 YYXZ=              0.0021 ZZXY=              0.2282
 N-N= 1.211469503807D+02 E-N=-7.808576552756D+02  KE= 2.281142701077D+02
  Exact polarizability:   0.000   0.000   0.000   0.000   0.000   0.000
 Approx polarizability:  79.771  -6.433  75.072  -0.003   0.003  38.350
                          Isotropic Fermi Contact Couplings
        Atom                 a.u.       MegaHertz       Gauss      10(-4) cm-1
     1  C(13)              0.00036       0.40884       0.14588       0.13637
     2  H(1)              -0.00018      -0.80064      -0.28569      -0.26707
     3  H(1)              -0.00750     -33.51088     -11.95752     -11.17803
     4  H(1)              -0.00018      -0.80034      -0.28558      -0.26696
     5  C(13)             -0.00230      -2.59104      -0.92455      -0.86428
     6  H(1)               0.00111       4.96880       1.77299       1.65741
     7  H(1)               0.00111       4.96898       1.77305       1.65747
     8  O(17)              0.04144     -25.11840      -8.96287      -8.37860
     9  O(17)              0.04014     -24.33091      -8.68187      -8.11592
 --------------------------------------------------------
       Center         ----  Spin Dipole Couplings  ----
                      3XX-RR        3YY-RR        3ZZ-RR
 --------------------------------------------------------
     1   Atom        0.014099     -0.006998     -0.007101
     2   Atom        0.006041     -0.002980     -0.003061
     3   Atom        0.048235     -0.020440     -0.027795
     4   Atom        0.006042     -0.002981     -0.003061
     5   Atom       -0.036964      0.015054      0.021910
     6   Atom        0.009032     -0.002466     -0.006567
     7   Atom        0.009031     -0.002466     -0.006565
     8   Atom       -1.217987     -1.455457      2.673444
     9   Atom       -0.959759     -1.138851      2.098610
 --------------------------------------------------------
                        XY            XZ            YZ
 --------------------------------------------------------
     1   Atom        0.001036     -0.000001     -0.000000
     2   Atom        0.003167     -0.003002     -0.000831
     3   Atom        0.031182     -0.000003     -0.000002
     4   Atom        0.003167      0.003001      0.000831
     5   Atom        0.011589      0.000005     -0.000001
     6   Atom       -0.006273      0.006566      0.000093
     7   Atom       -0.006272     -0.006569     -0.000092
     8   Atom        0.003617      0.000251     -0.000263
     9   Atom        0.028437      0.000201     -0.000208
 --------------------------------------------------------


 ---------------------------------------------------------------------------------
              Anisotropic Spin Dipole Couplings in Principal Axis System
 ---------------------------------------------------------------------------------

       Atom             a.u.   MegaHertz   Gauss  10(-4) cm-1        Axes

              Baa    -0.0071    -0.953    -0.340    -0.318  0.0000  0.0002  1.0000
     1 C(13)  Bbb    -0.0070    -0.946    -0.338    -0.316 -0.0489  0.9988 -0.0002
              Bcc     0.0142     1.899     0.678     0.633  0.9988  0.0489 -0.0001
 
              Baa    -0.0041    -2.172    -0.775    -0.725 -0.3961  0.6793 -0.6178
     2 H(1)   Bbb    -0.0039    -2.056    -0.734    -0.686  0.0076  0.6752  0.7376
              Bcc     0.0079     4.228     1.509     1.410  0.9182  0.2875 -0.2726
 
              Baa    -0.0325   -17.333    -6.185    -5.782 -0.3603  0.9328  0.0001
     3 H(1)   Bbb    -0.0278   -14.830    -5.292    -4.947  0.0001 -0.0001  1.0000
              Bcc     0.0603    32.163    11.476    10.728  0.9328  0.3603 -0.0000
 
              Baa    -0.0041    -2.172    -0.775    -0.725 -0.3961  0.6792  0.6180
     4 H(1)   Bbb    -0.0039    -2.056    -0.734    -0.686 -0.0075 -0.6754  0.7375
              Bcc     0.0079     4.228     1.509     1.410  0.9182  0.2874  0.2726
 
              Baa    -0.0394    -5.291    -1.888    -1.765  0.9781 -0.2081 -0.0001
     5 C(13)  Bbb     0.0175     2.351     0.839     0.784  0.2081  0.9781  0.0001
              Bcc     0.0219     2.940     1.049     0.981  0.0001 -0.0001  1.0000
 
              Baa    -0.0098    -5.246    -1.872    -1.750 -0.4113 -0.3608  0.8371
     6 H(1)   Bbb    -0.0038    -2.008    -0.717    -0.670  0.1860  0.8658  0.4646
              Bcc     0.0136     7.255     2.589     2.420  0.8923 -0.3468  0.2890
 
              Baa    -0.0098    -5.246    -1.872    -1.750  0.4114  0.3607  0.8371
     7 H(1)   Bbb    -0.0038    -2.008    -0.717    -0.670  0.1860  0.8658 -0.4645
              Bcc     0.0136     7.255     2.589     2.420  0.8923 -0.3467 -0.2891
 
              Baa    -1.4555   105.320    37.581    35.131 -0.0152  0.9999  0.0001
     8 O(17)  Bbb    -1.2179    88.129    31.447    29.397  0.9999  0.0152 -0.0001
              Bcc     2.6734  -193.449   -69.027   -64.527  0.0001 -0.0001  1.0000
 
              Baa    -1.1433    82.725    29.518    27.594 -0.1531  0.9882  0.0001
     9 O(17)  Bbb    -0.9554    69.129    24.667    23.059  0.9882  0.1531 -0.0001
              Bcc     2.0986  -151.854   -54.185   -50.653  0.0001 -0.0001  1.0000
 

 ---------------------------------------------------------------------------------

 Calling FoFJK, ICntrl=    100147 FMM=F ISym2X=0 I1Cent= 0 IOpClX= 1 NMat=1 NMatS=1 NMatT=0.
 ***** Axes restored to original set *****
 -------------------------------------------------------------------
 Center     Atomic                   Forces (Hartrees/Bohr)
 Number     Number              X              Y              Z
 -------------------------------------------------------------------
      1        6          -0.002845070    0.004459544    0.000000418
      2        1           0.001415580    0.001106153   -0.002218004
      3        1           0.002440815    0.000686895   -0.000000531
      4        1           0.001415416    0.001105782    0.002218308
      5        6          -0.001920621   -0.003147034    0.000000078
      6        1          -0.000002918   -0.001788203    0.002449991
      7        1          -0.000003620   -0.001787861   -0.002450523
      8        8           0.001691637   -0.005361451   -0.000000300
      9        8          -0.002191218    0.004726174    0.000000562
 -------------------------------------------------------------------
 Cartesian Forces:  Max     0.005361451 RMS     0.002288818
 FormGI is forming the generalized inverse of G from B-inverse, IUseBI=4.

 GradGradGradGradGradGradGradGradGradGradGradGradGradGradGradGradGradGrad
 Berny optimization.
 Internal  Forces:  Max     0.006955540 RMS     0.002257147
 Search for a saddle point.
 Step number   1 out of a maximum of   39
 All quantities printed in internal units (Hartrees-Bohrs-Radians)
 Swapping is turned off.
 Second derivative matrix not updated -- analytic derivatives used.
 ITU=  0
     Eigenvalues ---   -0.06305   0.00224   0.01598   0.02435   0.03763
     Eigenvalues ---    0.03910   0.06937   0.07280   0.07973   0.10598
     Eigenvalues ---    0.12253   0.14415   0.16935   0.33933   0.33987
     Eigenvalues ---    0.35069   0.35166   0.36009   0.47734   0.56629
     Eigenvalues ---    0.61897
 Eigenvectors required to have negative eigenvalues:
                          R5        R2        A7        D4        D9
   1                   -0.64090   0.58858   0.29140  -0.18649   0.18648
                          A11       R4        A1        A4        D6
   1                    0.15765  -0.14748  -0.09184  -0.09183  -0.08851
 RFO step:  Lambda0=2.630036636D-04 Lambda=-3.19772353D-04.
 Linear search not attempted -- option 19 set.
 Iteration  1 RMS(Cart)=  0.00969529 RMS(Int)=  0.00004034
 Iteration  2 RMS(Cart)=  0.00007585 RMS(Int)=  0.00000501
 Iteration  3 RMS(Cart)=  0.00000000 RMS(Int)=  0.00000501
 Variable       Old X    -DE/DX   Delta X   Delta X   Delta X     New X
                                 (Linear)    (Quad)   (Total)
    R1        2.05750  -0.00280   0.00000  -0.00767  -0.00767   2.04984
    R2        2.60632   0.00187   0.00000  -0.04797  -0.04797   2.55835
    R3        2.05750  -0.00280   0.00000  -0.00767  -0.00767   2.04984
    R4        2.61708  -0.00696   0.00000  -0.00572  -0.00572   2.61137
    R5        2.35761  -0.00064   0.00000   0.04512   0.04512   2.40273
    R6        2.04912  -0.00302   0.00000  -0.00848  -0.00848   2.04064
    R7        2.04912  -0.00303   0.00000  -0.00848  -0.00848   2.04064
    R8        2.41476  -0.00549   0.00000  -0.01467  -0.01467   2.40009
    A1        1.77469  -0.00094   0.00000  -0.00052  -0.00052   1.77418
    A2        2.00988   0.00026   0.00000  -0.00079  -0.00080   2.00908
    A3        2.07358  -0.00012   0.00000  -0.00117  -0.00118   2.07240
    A4        1.77469  -0.00094   0.00000  -0.00052  -0.00052   1.77418
    A5        1.63737   0.00179   0.00000   0.00692   0.00692   1.64428
    A6        2.07357  -0.00012   0.00000  -0.00117  -0.00118   2.07240
    A7        2.66204   0.00415   0.00000  -0.00866  -0.00866   2.65339
    A8        2.12579  -0.00013   0.00000  -0.00117  -0.00118   2.12461
    A9        2.12579  -0.00013   0.00000  -0.00117  -0.00118   2.12461
   A10        2.02079   0.00027   0.00000   0.00103   0.00102   2.02180
   A11        1.72351   0.00297   0.00000  -0.00513  -0.00513   1.71838
    D1       -2.10246  -0.00019   0.00000  -0.00057  -0.00057  -2.10303
    D2        2.10238   0.00019   0.00000   0.00065   0.00065   2.10303
    D3       -0.00004   0.00000   0.00000   0.00004   0.00004   0.00000
    D4       -2.78790  -0.00011   0.00000   0.00809   0.00808  -2.77982
    D5        0.18951  -0.00001   0.00000  -0.00169  -0.00169   0.18782
    D6        1.65290  -0.00005   0.00000   0.00487   0.00487   1.65777
    D7       -1.65287   0.00005   0.00000  -0.00490  -0.00490  -1.65777
    D8       -0.18948   0.00001   0.00000   0.00166   0.00166  -0.18782
    D9        2.78793   0.00011   0.00000  -0.00811  -0.00811   2.77982
   D10        0.00003   0.00000   0.00000  -0.00003  -0.00003  -0.00000
         Item               Value     Threshold  Converged?
 Maximum Force            0.006956     0.000450     NO 
 RMS     Force            0.002257     0.000300     NO 
 Maximum Displacement     0.038056     0.001800     NO 
 RMS     Displacement     0.009701     0.001200     NO 
 Predicted change in Energy=-2.800351D-05
 GradGradGradGradGradGradGradGradGradGradGradGradGradGradGradGradGradGrad

                          Input orientation:                          
 ---------------------------------------------------------------------
 Center     Atomic      Atomic             Coordinates (Angstroms)
 Number     Number       Type             X           Y           Z
 ---------------------------------------------------------------------
      1          6           0       -1.284100   -0.616906    0.000030
      2          1           0       -1.628992   -1.085650    0.915431
      3          1           0        0.028147   -0.949841   -0.000072
      4          1           0       -1.629098   -1.085510   -0.915404
      5          6           0       -1.043524    0.743868    0.000120
      6          1           0       -1.023268    1.317089   -0.914813
      7          1           0       -1.023161    1.316948    0.915139
      8          8           0        1.146388    0.616750   -0.000017
      9          8           0        1.263256   -0.647936   -0.000120
 ---------------------------------------------------------------------
                    Distance matrix (angstroms):
                    1          2          3          4          5
     1  C    0.000000
     2  H    1.084727   0.000000
     3  H    1.353823   1.898078   0.000000
     4  H    1.084727   1.830835   1.898078   0.000000
     5  C    1.381877   2.127840   2.004278   2.127840   0.000000
     6  H    2.155297   3.080560   2.661051   2.477803   1.079859
     7  H    2.155297   2.477803   2.661050   3.080560   1.079859
     8  O    2.725652   3.382152   1.924752   3.382152   2.193599
     9  O    2.547545   3.065115   1.271472   3.065115   2.694134
                    6          7          8          9
     6  H    0.000000
     7  H    1.829952   0.000000
     8  O    2.456570   2.456569   0.000000
     9  O    3.150584   3.150582   1.270075   0.000000
 Stoichiometry    C2H5O2(2)
 Framework group  C1[X(C2H5O2)]
 Deg. of freedom    21
 Full point group                 C1      NOp   1
 Largest Abelian subgroup         C1      NOp   1
 Largest concise Abelian subgroup C1      NOp   1
                         Standard orientation:                         
 ---------------------------------------------------------------------
 Center     Atomic      Atomic             Coordinates (Angstroms)
 Number     Number       Type             X           Y           Z
 ---------------------------------------------------------------------
      1          6           0       -1.285569   -0.616825    0.000027
      2          1           0       -1.630771   -1.085342    0.915429
      3          1           0        0.026458   -0.950626   -0.000075
      4          1           0       -1.630877   -1.085201   -0.915406
      5          6           0       -1.044096    0.743790    0.000118
      6          1           0       -1.023461    1.316997   -0.914815
      7          1           0       -1.023353    1.316856    0.915137
      8          8           0        1.145733    0.615227   -0.000019
      9          8           0        1.261766   -0.649536   -0.000123
 ---------------------------------------------------------------------
 Rotational constants (GHZ):          14.8001402           5.6284834           4.3127204
 Standard basis: CC-pVTZ+d (5D, 7F)
 There are   215 symmetry adapted cartesian basis functions of A   symmetry.
 There are   190 symmetry adapted basis functions of A   symmetry.
   190 basis functions,   293 primitive gaussians,   215 cartesian basis functions
    17 alpha electrons       16 beta electrons
       nuclear repulsion energy       121.5761562635 Hartrees.
 NAtoms=    9 NActive=    9 NUniq=    9 SFac= 1.00D+00 NAtFMM=   60 NAOKFM=F Big=F
 Integral buffers will be    131072 words long.
 Raffenetti 2 integral format.
 Two-electron integral symmetry is turned on.
 One-electron integrals computed using PRISM.
 NBasis=   190 RedAO= T EigKep=  5.16D-04  NBF=   190
 NBsUse=   190 1.00D-06 EigRej= -1.00D+00 NBFU=   190
 Initial guess from the checkpoint file:  "Ret-O2-concerted-OOH-elimination-TS1-B3LYP-A.chk"
 B after Tr=     0.000000    0.000000   -0.000000
         Rot=    1.000000   -0.000001    0.000001   -0.000319 Ang=  -0.04 deg.
 Initial guess <Sx>= 0.0000 <Sy>= 0.0000 <Sz>= 0.5000 <S**2>= 0.7579 S= 0.5039
 ExpMin= 1.03D-01 ExpMax= 1.53D+04 ExpMxC= 5.22D+02 IAcc=3 IRadAn=         5 AccDes= 0.00D+00
 Harris functional with IExCor=  402 and IRadAn=       5 diagonalized for initial guess.
 HarFok:  IExCor=  402 AccDes= 0.00D+00 IRadAn=         5 IDoV= 1 UseB2=F ITyADJ=14
 ICtDFT=  3500011 ScaDFX=  1.000000  1.000000  1.000000  1.000000
 FoFCou: FMM=F IPFlag=           0 FMFlag=      100000 FMFlg1=           0
         NFxFlg=           0 DoJE=T BraDBF=F KetDBF=T FulRan=T
         wScrn=  0.000000 ICntrl=       500 IOpCl=  0 I1Cent=   200000004 NGrid=           0
         NMat0=    1 NMatS0=      1 NMatT0=    0 NMatD0=    1 NMtDS0=    0 NMtDT0=    0
 Petite list used in FoFCou.
 Keep R1 and R2 ints in memory in canonical form, NReq=354287669.
 Requested convergence on RMS density matrix=1.00D-08 within 128 cycles.
 Requested convergence on MAX density matrix=1.00D-06.
 Requested convergence on             energy=1.00D-06.
 No special actions if energy rises.
 Integral accuracy reduced to 1.0D-05 until final iterations.
 Initial convergence to 1.0D-05 achieved.  Increase integral accuracy.
 SCF Done:  E(UB3LYP) =  -229.577993356     A.U. after   15 cycles
            NFock= 15  Conv=0.58D-08     -V/T= 2.0062
 <Sx>= 0.0000 <Sy>= 0.0000 <Sz>= 0.5000 <S**2>= 0.7586 S= 0.5043
 <L.S>= 0.000000000000E+00
 Annihilation of the first spin contaminant:
 S**2 before annihilation     0.7586,   after     0.7500
 Calling FoFJK, ICntrl=      2127 FMM=F ISym2X=0 I1Cent= 0 IOpClX= 1 NMat=1 NMatS=1 NMatT=0.
 ***** Axes restored to original set *****
 -------------------------------------------------------------------
 Center     Atomic                   Forces (Hartrees/Bohr)
 Number     Number              X              Y              Z
 -------------------------------------------------------------------
      1        6          -0.000170525    0.000037276   -0.000000031
      2        1          -0.000016248   -0.000016481    0.000025048
      3        1           0.000116541   -0.000074089    0.000000010
      4        1          -0.000016291   -0.000016480   -0.000025040
      5        6          -0.000017594    0.000030287    0.000000035
      6        1           0.000000822    0.000019566   -0.000030700
      7        1           0.000000769    0.000019579    0.000030701
      8        8          -0.000041023    0.000218384    0.000000006
      9        8           0.000143549   -0.000218042   -0.000000029
 -------------------------------------------------------------------
 Cartesian Forces:  Max     0.000218384 RMS     0.000080108

 GradGradGradGradGradGradGradGradGradGradGradGradGradGradGradGradGradGrad
 Berny optimization.
 FormGI is forming the generalized inverse of G from B-inverse, IUseBI=4.
 Internal  Forces:  Max     0.000230546 RMS     0.000066025
 Search for a saddle point.
 Step number   2 out of a maximum of   39
 All quantities printed in internal units (Hartrees-Bohrs-Radians)
 Swapping is turned off.
 Update second derivatives using D2CorX and points    1    2
 ITU=  0  0
     Eigenvalues ---   -0.06322   0.00224   0.01598   0.02437   0.03763
     Eigenvalues ---    0.03924   0.06946   0.07280   0.07987   0.10598
     Eigenvalues ---    0.12253   0.14523   0.16935   0.33987   0.33988
     Eigenvalues ---    0.35078   0.35166   0.35976   0.47885   0.56638
     Eigenvalues ---    0.61929
 Eigenvectors required to have negative eigenvalues:
                          R5        R2        A7        D4        D9
   1                    0.64711  -0.57831  -0.29522   0.18762  -0.18762
                          A11       R4        A1        A4        D7
   1                   -0.15943   0.14856   0.09240   0.09240  -0.08913
 RFO step:  Lambda0=6.970443626D-08 Lambda=-5.52125118D-07.
 Linear search not attempted -- option 19 set.
 Iteration  1 RMS(Cart)=  0.00059231 RMS(Int)=  0.00000031
 Iteration  2 RMS(Cart)=  0.00000040 RMS(Int)=  0.00000003
 Variable       Old X    -DE/DX   Delta X   Delta X   Delta X     New X
                                 (Linear)    (Quad)   (Total)
    R1        2.04984   0.00003   0.00000   0.00009   0.00009   2.04992
    R2        2.55835   0.00023   0.00000   0.00103   0.00103   2.55938
    R3        2.04984   0.00003   0.00000   0.00009   0.00009   2.04992
    R4        2.61137   0.00007   0.00000   0.00029   0.00029   2.61166
    R5        2.40273   0.00010   0.00000   0.00131   0.00131   2.40405
    R6        2.04064   0.00004   0.00000   0.00010   0.00010   2.04074
    R7        2.04064   0.00004   0.00000   0.00010   0.00010   2.04074
    R8        2.40009   0.00022   0.00000   0.00035   0.00035   2.40045
    A1        1.77418  -0.00001   0.00000   0.00027   0.00027   1.77444
    A2        2.00908  -0.00000   0.00000  -0.00011  -0.00011   2.00898
    A3        2.07240  -0.00000   0.00000  -0.00009  -0.00009   2.07231
    A4        1.77418  -0.00001   0.00000   0.00027   0.00027   1.77444
    A5        1.64428   0.00004   0.00000  -0.00000  -0.00000   1.64428
    A6        2.07240  -0.00000   0.00000  -0.00009  -0.00009   2.07231
    A7        2.65339   0.00001   0.00000  -0.00114  -0.00114   2.65225
    A8        2.12461   0.00000   0.00000  -0.00004  -0.00004   2.12457
    A9        2.12461   0.00000   0.00000  -0.00004  -0.00004   2.12457
   A10        2.02180  -0.00000   0.00000  -0.00004  -0.00004   2.02176
   A11        1.71838  -0.00005   0.00000  -0.00026  -0.00026   1.71812
    D1       -2.10303  -0.00001   0.00000   0.00004   0.00004  -2.10299
    D2        2.10303   0.00001   0.00000  -0.00004  -0.00004   2.10300
    D3        0.00000  -0.00000   0.00000   0.00000   0.00000   0.00000
    D4       -2.77982   0.00001   0.00000   0.00070   0.00070  -2.77912
    D5        0.18782   0.00001   0.00000  -0.00012  -0.00012   0.18770
    D6        1.65777  -0.00000   0.00000   0.00041   0.00041   1.65818
    D7       -1.65777   0.00000   0.00000  -0.00041  -0.00041  -1.65818
    D8       -0.18782  -0.00001   0.00000   0.00012   0.00012  -0.18770
    D9        2.77982  -0.00001   0.00000  -0.00070  -0.00070   2.77912
   D10       -0.00000  -0.00000   0.00000  -0.00000  -0.00000  -0.00000
         Item               Value     Threshold  Converged?
 Maximum Force            0.000231     0.000450     YES
 RMS     Force            0.000066     0.000300     YES
 Maximum Displacement     0.001408     0.001800     YES
 RMS     Displacement     0.000592     0.001200     YES
 Predicted change in Energy=-2.412103D-07
 Optimization completed.
    -- Stationary point found.
                           ----------------------------
                           !   Optimized Parameters   !
                           ! (Angstroms and Degrees)  !
 --------------------------                            --------------------------
 ! Name  Definition              Value          Derivative Info.                !
 --------------------------------------------------------------------------------
 ! R1    R(1,2)                  1.0847         -DE/DX =    0.0                 !
 ! R2    R(1,3)                  1.3538         -DE/DX =    0.0002              !
 ! R3    R(1,4)                  1.0847         -DE/DX =    0.0                 !
 ! R4    R(1,5)                  1.3819         -DE/DX =    0.0001              !
 ! R5    R(3,9)                  1.2715         -DE/DX =    0.0001              !
 ! R6    R(5,6)                  1.0799         -DE/DX =    0.0                 !
 ! R7    R(5,7)                  1.0799         -DE/DX =    0.0                 !
 ! R8    R(8,9)                  1.2701         -DE/DX =    0.0002              !
 ! A1    A(2,1,3)              101.6529         -DE/DX =    0.0                 !
 ! A2    A(2,1,4)              115.1118         -DE/DX =    0.0                 !
 ! A3    A(2,1,5)              118.7396         -DE/DX =    0.0                 !
 ! A4    A(3,1,4)              101.6529         -DE/DX =    0.0                 !
 ! A5    A(3,1,5)               94.2104         -DE/DX =    0.0                 !
 ! A6    A(4,1,5)              118.7396         -DE/DX =    0.0                 !
 ! A7    A(1,3,9)              152.0279         -DE/DX =    0.0                 !
 ! A8    A(1,5,6)              121.7311         -DE/DX =    0.0                 !
 ! A9    A(1,5,7)              121.7311         -DE/DX =    0.0                 !
 ! A10   A(6,5,7)              115.8408         -DE/DX =    0.0                 !
 ! A11   A(3,9,8)               98.4562         -DE/DX =    0.0                 !
 ! D1    D(2,1,3,9)           -120.4948         -DE/DX =    0.0                 !
 ! D2    D(4,1,3,9)            120.4948         -DE/DX =    0.0                 !
 ! D3    D(5,1,3,9)              0.0            -DE/DX =    0.0                 !
 ! D4    D(2,1,5,6)           -159.2718         -DE/DX =    0.0                 !
 ! D5    D(2,1,5,7)             10.7616         -DE/DX =    0.0                 !
 ! D6    D(3,1,5,6)             94.9834         -DE/DX =    0.0                 !
 ! D7    D(3,1,5,7)            -94.9833         -DE/DX =    0.0                 !
 ! D8    D(4,1,5,6)            -10.7615         -DE/DX =    0.0                 !
 ! D9    D(4,1,5,7)            159.2719         -DE/DX =    0.0                 !
 ! D10   D(1,3,9,8)              0.0            -DE/DX =    0.0                 !
 --------------------------------------------------------------------------------
 GradGradGradGradGradGradGradGradGradGradGradGradGradGradGradGradGradGrad

                          Input orientation:                          
 ---------------------------------------------------------------------
 Center     Atomic      Atomic             Coordinates (Angstroms)
 Number     Number       Type             X           Y           Z
 ---------------------------------------------------------------------
      1          6           0       -1.284100   -0.616906    0.000030
      2          1           0       -1.628992   -1.085650    0.915431
      3          1           0        0.028147   -0.949841   -0.000072
      4          1           0       -1.629098   -1.085510   -0.915404
      5          6           0       -1.043524    0.743868    0.000120
      6          1           0       -1.023268    1.317089   -0.914813
      7          1           0       -1.023161    1.316948    0.915139
      8          8           0        1.146388    0.616750   -0.000017
      9          8           0        1.263256   -0.647936   -0.000120
 ---------------------------------------------------------------------
                    Distance matrix (angstroms):
                    1          2          3          4          5
     1  C    0.000000
     2  H    1.084727   0.000000
     3  H    1.353823   1.898078   0.000000
     4  H    1.084727   1.830835   1.898078   0.000000
     5  C    1.381877   2.127840   2.004278   2.127840   0.000000
     6  H    2.155297   3.080560   2.661051   2.477803   1.079859
     7  H    2.155297   2.477803   2.661050   3.080560   1.079859
     8  O    2.725652   3.382152   1.924752   3.382152   2.193599
     9  O    2.547545   3.065115   1.271472   3.065115   2.694134
                    6          7          8          9
     6  H    0.000000
     7  H    1.829952   0.000000
     8  O    2.456570   2.456569   0.000000
     9  O    3.150584   3.150582   1.270075   0.000000
 Stoichiometry    C2H5O2(2)
 Framework group  C1[X(C2H5O2)]
 Deg. of freedom    21
 Full point group                 C1      NOp   1
 Largest Abelian subgroup         C1      NOp   1
 Largest concise Abelian subgroup C1      NOp   1
                         Standard orientation:                         
 ---------------------------------------------------------------------
 Center     Atomic      Atomic             Coordinates (Angstroms)
 Number     Number       Type             X           Y           Z
 ---------------------------------------------------------------------
      1          6           0       -1.285569   -0.616825    0.000027
      2          1           0       -1.630771   -1.085342    0.915429
      3          1           0        0.026458   -0.950626   -0.000075
      4          1           0       -1.630877   -1.085201   -0.915406
      5          6           0       -1.044096    0.743790    0.000118
      6          1           0       -1.023461    1.316997   -0.914815
      7          1           0       -1.023353    1.316856    0.915137
      8          8           0        1.145733    0.615227   -0.000019
      9          8           0        1.261766   -0.649536   -0.000123
 ---------------------------------------------------------------------
 Rotational constants (GHZ):          14.8001402           5.6284834           4.3127204

 **********************************************************************

            Population analysis using the SCF Density.

 **********************************************************************

 Orbital symmetries:
 Alpha Orbitals:
       Occupied  (A) (A) (A) (A) (A) (A) (A) (A) (A) (A) (A) (A)
                 (A) (A) (A) (A) (A)
       Virtual   (A) (A) (A) (A) (A) (A) (A) (A) (A) (A) (A) (A)
                 (A) (A) (A) (A) (A) (A) (A) (A) (A) (A) (A) (A)
                 (A) (A) (A) (A) (A) (A) (A) (A) (A) (A) (A) (A)
                 (A) (A) (A) (A) (A) (A) (A) (A) (A) (A) (A) (A)
                 (A) (A) (A) (A) (A) (A) (A) (A) (A) (A) (A) (A)
                 (A) (A) (A) (A) (A) (A) (A) (A) (A) (A) (A) (A)
                 (A) (A) (A) (A) (A) (A) (A) (A) (A) (A) (A) (A)
                 (A) (A) (A) (A) (A) (A) (A) (A) (A) (A) (A) (A)
                 (A) (A) (A) (A) (A) (A) (A) (A) (A) (A) (A) (A)
                 (A) (A) (A) (A) (A) (A) (A) (A) (A) (A) (A) (A)
                 (A) (A) (A) (A) (A) (A) (A) (A) (A) (A) (A) (A)
                 (A) (A) (A) (A) (A) (A) (A) (A) (A) (A) (A) (A)
                 (A) (A) (A) (A) (A) (A) (A) (A) (A) (A) (A) (A)
                 (A) (A) (A) (A) (A) (A) (A) (A) (A) (A) (A) (A)
                 (A) (A) (A) (A) (A)
 Beta  Orbitals:
       Occupied  (A) (A) (A) (A) (A) (A) (A) (A) (A) (A) (A) (A)
                 (A) (A) (A) (A)
       Virtual   (A) (A) (A) (A) (A) (A) (A) (A) (A) (A) (A) (A)
                 (A) (A) (A) (A) (A) (A) (A) (A) (A) (A) (A) (A)
                 (A) (A) (A) (A) (A) (A) (A) (A) (A) (A) (A) (A)
                 (A) (A) (A) (A) (A) (A) (A) (A) (A) (A) (A) (A)
                 (A) (A) (A) (A) (A) (A) (A) (A) (A) (A) (A) (A)
                 (A) (A) (A) (A) (A) (A) (A) (A) (A) (A) (A) (A)
                 (A) (A) (A) (A) (A) (A) (A) (A) (A) (A) (A) (A)
                 (A) (A) (A) (A) (A) (A) (A) (A) (A) (A) (A) (A)
                 (A) (A) (A) (A) (A) (A) (A) (A) (A) (A) (A) (A)
                 (A) (A) (A) (A) (A) (A) (A) (A) (A) (A) (A) (A)
                 (A) (A) (A) (A) (A) (A) (A) (A) (A) (A) (A) (A)
                 (A) (A) (A) (A) (A) (A) (A) (A) (A) (A) (A) (A)
                 (A) (A) (A) (A) (A) (A) (A) (A) (A) (A) (A) (A)
                 (A) (A) (A) (A) (A) (A) (A) (A) (A) (A) (A) (A)
                 (A) (A) (A) (A) (A) (A)
 The electronic state is 2-A.
 Alpha  occ. eigenvalues --  -19.23005 -19.22157 -10.21794 -10.17765  -1.21035
 Alpha  occ. eigenvalues --   -0.81441  -0.79122  -0.61041  -0.53760  -0.50802
 Alpha  occ. eigenvalues --   -0.48670  -0.48048  -0.43649  -0.38038  -0.31799
 Alpha  occ. eigenvalues --   -0.27922  -0.27655
 Alpha virt. eigenvalues --   -0.04648   0.04270   0.06890   0.07322   0.13815
 Alpha virt. eigenvalues --    0.14401   0.18075   0.21581   0.22906   0.24346
 Alpha virt. eigenvalues --    0.25805   0.31336   0.37832   0.38609   0.41497
 Alpha virt. eigenvalues --    0.42857   0.45025   0.49438   0.49606   0.49914
 Alpha virt. eigenvalues --    0.50202   0.53121   0.58037   0.59705   0.62641
 Alpha virt. eigenvalues --    0.65173   0.72428   0.73798   0.73850   0.80628
 Alpha virt. eigenvalues --    0.82378   0.86684   0.91310   0.96300   1.00010
 Alpha virt. eigenvalues --    1.01241   1.03088   1.05667   1.07689   1.08152
 Alpha virt. eigenvalues --    1.10299   1.11695   1.20075   1.22984   1.24530
 Alpha virt. eigenvalues --    1.28240   1.29103   1.32196   1.33609   1.35977
 Alpha virt. eigenvalues --    1.43367   1.48196   1.53134   1.54587   1.56201
 Alpha virt. eigenvalues --    1.62848   1.66346   1.68586   1.77344   2.00389
 Alpha virt. eigenvalues --    2.02293   2.15009   2.16424   2.23663   2.25922
 Alpha virt. eigenvalues --    2.26728   2.31990   2.35485   2.41471   2.46365
 Alpha virt. eigenvalues --    2.47003   2.49693   2.55787   2.65620   2.70691
 Alpha virt. eigenvalues --    2.72991   2.76237   2.82467   2.84537   2.84824
 Alpha virt. eigenvalues --    2.92070   2.92761   2.96389   2.97583   3.02162
 Alpha virt. eigenvalues --    3.06985   3.07708   3.15381   3.16687   3.18769
 Alpha virt. eigenvalues --    3.25936   3.27758   3.29771   3.32960   3.36906
 Alpha virt. eigenvalues --    3.39370   3.39632   3.49079   3.49950   3.57518
 Alpha virt. eigenvalues --    3.58035   3.64942   3.66166   3.68906   3.73028
 Alpha virt. eigenvalues --    3.76005   3.79979   3.82578   3.85191   3.89665
 Alpha virt. eigenvalues --    3.90467   3.91303   3.97339   3.98041   4.04378
 Alpha virt. eigenvalues --    4.06623   4.11200   4.14485   4.15324   4.16901
 Alpha virt. eigenvalues --    4.21990   4.25955   4.32703   4.47137   4.49357
 Alpha virt. eigenvalues --    4.60736   4.61199   4.62075   4.66839   4.68172
 Alpha virt. eigenvalues --    4.74367   4.74445   4.77503   4.81650   4.88502
 Alpha virt. eigenvalues --    4.92929   4.95855   4.98251   5.03621   5.10095
 Alpha virt. eigenvalues --    5.11995   5.14116   5.19826   5.24503   5.24995
 Alpha virt. eigenvalues --    5.30567   5.47511   5.50545   5.58768   5.76643
 Alpha virt. eigenvalues --    5.80176   5.81757   5.84157   5.89561   6.18991
 Alpha virt. eigenvalues --    6.20562   6.23049   6.25912   6.27250   6.35921
 Alpha virt. eigenvalues --    6.35990   6.47828   6.49985   6.63658   6.90431
 Alpha virt. eigenvalues --    6.98350   7.07955   7.40578   7.41474   8.83604
 Alpha virt. eigenvalues --   11.25987  11.57752  13.82015
  Beta  occ. eigenvalues --  -19.21597 -19.20394 -10.21869 -10.17757  -1.17974
  Beta  occ. eigenvalues --   -0.79237  -0.77019  -0.61013  -0.52580  -0.49018
  Beta  occ. eigenvalues --   -0.46995  -0.43528  -0.40987  -0.37967  -0.30981
  Beta  occ. eigenvalues --   -0.26479
  Beta virt. eigenvalues --   -0.10375  -0.04360   0.04267   0.06954   0.07327
  Beta virt. eigenvalues --    0.13843   0.15218   0.18892   0.21884   0.23063
  Beta virt. eigenvalues --    0.24356   0.26056   0.31357   0.38152   0.38763
  Beta virt. eigenvalues --    0.41589   0.42852   0.45047   0.49640   0.49773
  Beta virt. eigenvalues --    0.50456   0.51181   0.53188   0.58305   0.62016
  Beta virt. eigenvalues --    0.63046   0.65454   0.73147   0.73977   0.75565
  Beta virt. eigenvalues --    0.80822   0.82710   0.86987   0.91439   0.96418
  Beta virt. eigenvalues --    1.00080   1.01404   1.03140   1.05954   1.07762
  Beta virt. eigenvalues --    1.08420   1.10375   1.11746   1.20153   1.23896
  Beta virt. eigenvalues --    1.24975   1.28812   1.30152   1.33450   1.34772
  Beta virt. eigenvalues --    1.35970   1.43727   1.48721   1.53367   1.55336
  Beta virt. eigenvalues --    1.56758   1.63322   1.67836   1.69416   1.79122
  Beta virt. eigenvalues --    2.00672   2.04273   2.17759   2.18002   2.24113
  Beta virt. eigenvalues --    2.26165   2.26952   2.32262   2.35681   2.41517
  Beta virt. eigenvalues --    2.46281   2.47009   2.49805   2.55747   2.65607
  Beta virt. eigenvalues --    2.70631   2.73052   2.76246   2.82443   2.84361
  Beta virt. eigenvalues --    2.84847   2.92089   2.92751   2.96542   2.97582
  Beta virt. eigenvalues --    3.02073   3.07013   3.07655   3.15492   3.16710
  Beta virt. eigenvalues --    3.18751   3.25921   3.28575   3.29751   3.33037
  Beta virt. eigenvalues --    3.37097   3.39518   3.39842   3.50007   3.53809
  Beta virt. eigenvalues --    3.58030   3.58197   3.65381   3.66483   3.71413
  Beta virt. eigenvalues --    3.73452   3.77579   3.80336   3.82733   3.85217
  Beta virt. eigenvalues --    3.89734   3.90528   3.91516   3.97382   3.99649
  Beta virt. eigenvalues --    4.04588   4.06762   4.11441   4.14614   4.15372
  Beta virt. eigenvalues --    4.16950   4.22048   4.26087   4.33103   4.47172
  Beta virt. eigenvalues --    4.49574   4.60942   4.61690   4.62162   4.66953
  Beta virt. eigenvalues --    4.71019   4.76291   4.76800   4.77752   4.83488
  Beta virt. eigenvalues --    4.90294   4.93165   4.96278   4.98453   5.04851
  Beta virt. eigenvalues --    5.12087   5.13400   5.15749   5.22646   5.24939
  Beta virt. eigenvalues --    5.25630   5.30594   5.48380   5.51012   5.61677
  Beta virt. eigenvalues --    5.78538   5.80944   5.82941   5.84362   5.90182
  Beta virt. eigenvalues --    6.18992   6.25729   6.26847   6.27899   6.32889
  Beta virt. eigenvalues --    6.38936   6.41185   6.50950   6.54706   6.64601
  Beta virt. eigenvalues --    6.92180   7.00128   7.11445   7.41623   7.42347
  Beta virt. eigenvalues --    8.86688  11.27016  11.59169  13.81962
          Condensed to atoms (all electrons):
               1          2          3          4          5          6
     1  C    5.020496   0.402668   0.210337   0.402668   0.475191  -0.035527
     2  H    0.402668   0.554436  -0.006121  -0.030236  -0.035327   0.005144
     3  H    0.210337  -0.006121   0.467725  -0.006121  -0.001111   0.001102
     4  H    0.402668  -0.030236  -0.006121   0.554437  -0.035327  -0.007900
     5  C    0.475191  -0.035327  -0.001111  -0.035327   4.911073   0.406725
     6  H   -0.035527   0.005144   0.001102  -0.007900   0.406725   0.519490
     7  H   -0.035527  -0.007900   0.001102   0.005144   0.406725  -0.026358
     8  O   -0.021222   0.002000  -0.060634   0.002000   0.088633  -0.005579
     9  O   -0.073798  -0.001346   0.188826  -0.001346  -0.069419   0.001015
               7          8          9
     1  C   -0.035527  -0.021222  -0.073798
     2  H   -0.007900   0.002000  -0.001346
     3  H    0.001102  -0.060634   0.188826
     4  H    0.005144   0.002000  -0.001346
     5  C    0.406725   0.088633  -0.069419
     6  H   -0.026358  -0.005579   0.001015
     7  H    0.519490  -0.005579   0.001015
     8  O   -0.005579   8.001182   0.136824
     9  O    0.001015   0.136824   7.910192
          Atomic-Atomic Spin Densities.
               1          2          3          4          5          6
     1  C   -0.002389  -0.000087   0.003634  -0.000087   0.003984   0.000142
     2  H   -0.000087  -0.000015   0.000612  -0.000434  -0.000084   0.000055
     3  H    0.003634   0.000612  -0.021739   0.000612   0.004270  -0.000058
     4  H   -0.000087  -0.000434   0.000612  -0.000015  -0.000084   0.000013
     5  C    0.003984  -0.000084   0.004270  -0.000084  -0.058131   0.000004
     6  H    0.000142   0.000055  -0.000058   0.000013   0.000004   0.002262
     7  H    0.000142   0.000013  -0.000058   0.000055   0.000004  -0.000375
     8  O   -0.000994   0.000173   0.002065   0.000173  -0.006630  -0.000001
     9  O   -0.000140  -0.000022  -0.005496  -0.000022   0.002991  -0.000140
               7          8          9
     1  C    0.000142  -0.000994  -0.000140
     2  H    0.000013   0.000173  -0.000022
     3  H   -0.000058   0.002065  -0.005496
     4  H    0.000055   0.000173  -0.000022
     5  C    0.000004  -0.006630   0.002991
     6  H   -0.000375  -0.000001  -0.000140
     7  H    0.002262  -0.000001  -0.000140
     8  O   -0.000001   0.778557  -0.174116
     9  O   -0.000140  -0.174116   0.639260
 Mulliken charges and spin densities:
               1          2
     1  C   -0.345286   0.004205
     2  H    0.116682   0.000211
     3  H    0.204895  -0.016157
     4  H    0.116682   0.000211
     5  C   -0.147163  -0.053675
     6  H    0.141889   0.001903
     7  H    0.141889   0.001903
     8  O   -0.137625   0.599226
     9  O   -0.091962   0.462174
 Sum of Mulliken charges =  -0.00000   1.00000
 Mulliken charges and spin densities with hydrogens summed into heavy atoms:
               1          2
     1  C   -0.111922   0.004626
     5  C    0.136614  -0.049869
     8  O   -0.137625   0.599226
     9  O    0.112933   0.446017
 Electronic spatial extent (au):  <R**2>=            302.3121
 Charge=             -0.0000 electrons
 Dipole moment (field-independent basis, Debye):
    X=             -2.0724    Y=              0.0290    Z=              0.0001  Tot=              2.0726
 Quadrupole moment (field-independent basis, Debye-Ang):
   XX=            -27.5500   YY=            -23.6247   ZZ=            -23.0962
   XY=             -0.1664   XZ=              0.0002   YZ=             -0.0000
 Traceless Quadrupole moment (field-independent basis, Debye-Ang):
   XX=             -2.7930   YY=              1.1322   ZZ=              1.6608
   XY=             -0.1664   XZ=              0.0002   YZ=             -0.0000
 Octapole moment (field-independent basis, Debye-Ang**2):
  XXX=              9.9661  YYY=              0.8364  ZZZ=             -0.0002  XYY=              0.5164
  XXY=             -0.5324  XXZ=             -0.0004  XZZ=              1.7801  YZZ=              0.5647
  YYZ=             -0.0001  XYZ=             -0.0000
 Hexadecapole moment (field-independent basis, Debye-Ang**3):
 XXXX=           -251.1742 YYYY=           -104.7897 ZZZZ=            -34.5253 XXXY=              1.9140
 XXXZ=              0.0073 YYYX=             -1.6754 YYYZ=             -0.0031 ZZZX=              0.0055
 ZZZY=             -0.0022 XXYY=            -57.4032 XXZZ=            -42.7367 YYZZ=            -21.0488
 XXYZ=             -0.0012 YYXZ=              0.0019 ZZXY=              0.2024
 N-N= 1.215761562635D+02 E-N=-7.817528994243D+02  KE= 2.281685525841D+02
                          Isotropic Fermi Contact Couplings
        Atom                 a.u.       MegaHertz       Gauss      10(-4) cm-1
     1  C(13)              0.00054       0.61228       0.21848       0.20423
     2  H(1)              -0.00024      -1.05203      -0.37539      -0.35092
     3  H(1)              -0.00764     -34.13645     -12.18073     -11.38669
     4  H(1)              -0.00024      -1.05202      -0.37539      -0.35091
     5  C(13)             -0.00264      -2.97167      -1.06037      -0.99124
     6  H(1)               0.00120       5.34916       1.90871       1.78429
     7  H(1)               0.00120       5.34916       1.90871       1.78429
     8  O(17)              0.04077     -24.71750      -8.81982      -8.24487
     9  O(17)              0.04039     -24.48703      -8.73758      -8.16799
 --------------------------------------------------------
       Center         ----  Spin Dipole Couplings  ----
                      3XX-RR        3YY-RR        3ZZ-RR
 --------------------------------------------------------
     1   Atom        0.014900     -0.007466     -0.007434
     2   Atom        0.006186     -0.003115     -0.003071
     3   Atom        0.047669     -0.020032     -0.027637
     4   Atom        0.006187     -0.003115     -0.003072
     5   Atom       -0.043375      0.018229      0.025146
     6   Atom        0.009061     -0.002250     -0.006811
     7   Atom        0.009059     -0.002250     -0.006809
     8   Atom       -1.186709     -1.444441      2.631150
     9   Atom       -0.968053     -1.165581      2.133635
 --------------------------------------------------------
                        XY            XZ            YZ
 --------------------------------------------------------
     1   Atom        0.000558     -0.000001     -0.000000
     2   Atom        0.003147     -0.003050     -0.000817
     3   Atom        0.030685     -0.000002     -0.000001
     4   Atom        0.003146      0.003049      0.000817
     5   Atom        0.012874      0.000005     -0.000001
     6   Atom       -0.006283      0.006611      0.000452
     7   Atom       -0.006282     -0.006614     -0.000450
     8   Atom        0.006420      0.000221     -0.000313
     9   Atom        0.030394      0.000182     -0.000255
 --------------------------------------------------------


 ---------------------------------------------------------------------------------
              Anisotropic Spin Dipole Couplings in Principal Axis System
 ---------------------------------------------------------------------------------

       Atom             a.u.   MegaHertz   Gauss  10(-4) cm-1        Axes

              Baa    -0.0075    -1.004    -0.358    -0.335 -0.0249  0.9997  0.0001
     1 C(13)  Bbb    -0.0074    -0.998    -0.356    -0.333  0.0001 -0.0001  1.0000
              Bcc     0.0149     2.001     0.714     0.668  0.9997  0.0249 -0.0001
 
              Baa    -0.0041    -2.212    -0.789    -0.738 -0.3840  0.7765 -0.4996
     2 H(1)   Bbb    -0.0039    -2.081    -0.743    -0.694  0.0724  0.5647  0.8221
              Bcc     0.0080     4.293     1.532     1.432  0.9205  0.2795 -0.2730
 
              Baa    -0.0319   -17.005    -6.068    -5.672 -0.3599  0.9330  0.0001
     3 H(1)   Bbb    -0.0276   -14.746    -5.262    -4.919  0.0001 -0.0001  1.0000
              Bcc     0.0595    31.750    11.329    10.591  0.9330  0.3599 -0.0000
 
              Baa    -0.0041    -2.212    -0.789    -0.738 -0.3839  0.7764  0.4997
     4 H(1)   Bbb    -0.0039    -2.081    -0.743    -0.694 -0.0723 -0.5648  0.8220
              Bcc     0.0080     4.293     1.532     1.432  0.9205  0.2795  0.2730
 
              Baa    -0.0460    -6.167    -2.201    -2.057  0.9805 -0.1967 -0.0001
     5 C(13)  Bbb     0.0208     2.793     0.997     0.932  0.1967  0.9805  0.0001
              Bcc     0.0251     3.374     1.204     1.126  0.0001 -0.0001  1.0000
 
              Baa    -0.0102    -5.455    -1.946    -1.819 -0.4066 -0.3678  0.8363
     6 H(1)   Bbb    -0.0034    -1.793    -0.640    -0.598  0.1863  0.8628  0.4700
              Bcc     0.0136     7.248     2.586     2.418  0.8944 -0.3469  0.2823
 
              Baa    -0.0102    -5.455    -1.946    -1.819  0.4067  0.3677  0.8363
     7 H(1)   Bbb    -0.0034    -1.793    -0.640    -0.598  0.1862  0.8629 -0.4699
              Bcc     0.0136     7.248     2.586     2.418  0.8944 -0.3468 -0.2824
 
              Baa    -1.4446   104.530    37.299    34.868 -0.0249  0.9997  0.0001
     8 O(17)  Bbb    -1.1865    85.858    30.636    28.639  0.9997  0.0249 -0.0001
              Bcc     2.6311  -190.388   -67.935   -63.507  0.0001 -0.0001  1.0000
 
              Baa    -1.1702    84.671    30.213    28.243 -0.1487  0.9889  0.0001
     9 O(17)  Bbb    -0.9635    69.717    24.877    23.255  0.9889  0.1487 -0.0000
              Bcc     2.1336  -154.388   -55.090   -51.498  0.0001 -0.0001  1.0000
 

 ---------------------------------------------------------------------------------

 1\1\GINC-CNODE0281\FTS\UB3LYP\CC-pVTZ+d\C2H5O2(2)\KOTUKILE\24-Feb-2022
 \0\\# opt=(calcfc,ts,noeigentest) freq ub3lyp cc-pvtz+d\\Ret-O2-concer
 ted-OOH-elimination-TS1-B3LYP-A\\0,2\C,-1.2840995634,-0.6169063741,0.0
 0002977\H,-1.6289921939,-1.085650422,0.9154312627\H,0.0281467508,-0.94
 98406919,-0.0000720396\H,-1.6290982486,-1.0855097042,-0.915403805\C,-1
 .0435244548,0.7438680316,0.0001202865\H,-1.0232681443,1.3170885627,-0.
 9148126947\H,-1.0231606085,1.3169476016,0.915139164\O,1.1463884388,0.6
 167503428,-0.00001659\O,1.2632560239,-0.6479363466,-0.0001203538\\Vers
 ion=ES64L-G16RevB.01\State=2-A\HF=-229.5779934\S2=0.75856\S2-1=0.\S2A=
 0.750049\RMSD=5.771e-09\RMSF=8.011e-05\Dipole=-0.8153674,0.0108854,0.0
 000481\Quadrupole=-2.0763805,0.8416333,1.2347471,-0.1256697,0.0001829,
 -0.0000231\PG=C01 [X(C2H5O2)]\\@


 I DO NOT DEFINE TIME, SPACE, PLACE, AND MOTION, AS BEING WELL KNOWN TO ALL.
                                            -- NEWTON (1642-1726), PRINCIPIA
 Job cpu time:       0 days  0 hours  0 minutes 56.7 seconds.
 Elapsed time:       0 days  0 hours  1 minutes 39.1 seconds.
 File lengths (MBytes):  RWF=     58 Int=      0 D2E=      0 Chk=      5 Scr=      1
 Normal termination of Gaussian 16 at Thu Feb 24 20:04:05 2022.
 Link1:  Proceeding to internal job step number  2.
 ---------------------------------------------------------------------
 #N Geom=AllCheck Guess=TCheck SCRF=Check GenChk UB3LYP/CC-pVTZ+d Freq
 ---------------------------------------------------------------------
 1/5=1,10=4,11=1,29=7,30=1,38=1,40=1/1,3;
 2/12=2,40=1/2;
 3/5=16,6=1,7=9,11=2,14=-4,25=1,30=1,70=2,71=2,74=-5,116=2,140=1/1,2,3;
 4/5=101/1;
 5/5=2,38=6,98=1/2;
 8/6=4,10=90,11=11/1;
 11/6=1,8=1,9=11,15=111,16=1/1,2,10;
 10/6=1/2;
 6/7=2,8=2,9=2,10=2,28=1/1;
 7/8=1,10=1,25=1/1,2,3,16;
 1/5=1,10=4,11=1,30=1/3;
 99//99;
 Structure from the checkpoint file:  "Ret-O2-concerted-OOH-elimination-TS1-B3LYP-A.chk"
 --------------------------------------------
 Ret-O2-concerted-OOH-elimination-TS1-B3LYP-A
 --------------------------------------------
 Charge =  0 Multiplicity = 2
 Redundant internal coordinates found in file.  (old form).
 C,0,-1.2840995634,-0.6169063741,0.00002977
 H,0,-1.6289921939,-1.085650422,0.9154312627
 H,0,0.0281467508,-0.9498406919,-0.0000720396
 H,0,-1.6290982486,-1.0855097042,-0.915403805
 C,0,-1.0435244548,0.7438680316,0.0001202865
 H,0,-1.0232681443,1.3170885627,-0.9148126947
 H,0,-1.0231606085,1.3169476016,0.915139164
 O,0,1.1463884388,0.6167503428,-0.00001659
 O,0,1.2632560239,-0.6479363466,-0.0001203538
 Recover connectivity data from disk.

 GradGradGradGradGradGradGradGradGradGradGradGradGradGradGradGradGradGrad
 Berny optimization.
 Initialization pass.
                           ----------------------------
                           !    Initial Parameters    !
                           ! (Angstroms and Degrees)  !
 --------------------------                            --------------------------
 ! Name  Definition              Value          Derivative Info.                !
 --------------------------------------------------------------------------------
 ! R1    R(1,2)                  1.0847         calculate D2E/DX2 analytically  !
 ! R2    R(1,3)                  1.3538         calculate D2E/DX2 analytically  !
 ! R3    R(1,4)                  1.0847         calculate D2E/DX2 analytically  !
 ! R4    R(1,5)                  1.3819         calculate D2E/DX2 analytically  !
 ! R5    R(3,9)                  1.2715         calculate D2E/DX2 analytically  !
 ! R6    R(5,6)                  1.0799         calculate D2E/DX2 analytically  !
 ! R7    R(5,7)                  1.0799         calculate D2E/DX2 analytically  !
 ! R8    R(8,9)                  1.2701         calculate D2E/DX2 analytically  !
 ! A1    A(2,1,3)              101.6529         calculate D2E/DX2 analytically  !
 ! A2    A(2,1,4)              115.1118         calculate D2E/DX2 analytically  !
 ! A3    A(2,1,5)              118.7396         calculate D2E/DX2 analytically  !
 ! A4    A(3,1,4)              101.6529         calculate D2E/DX2 analytically  !
 ! A5    A(3,1,5)               94.2104         calculate D2E/DX2 analytically  !
 ! A6    A(4,1,5)              118.7396         calculate D2E/DX2 analytically  !
 ! A7    A(1,3,9)              152.0279         calculate D2E/DX2 analytically  !
 ! A8    A(1,5,6)              121.7311         calculate D2E/DX2 analytically  !
[...]
 Sum of electronic and thermal Free Energies=         -229.540527
 
                     E (Thermal)             CV                S
                      KCal/Mol        Cal/Mol-Kelvin    Cal/Mol-Kelvin
 Total                   43.615             15.398             69.416
 Electronic               0.000              0.000              1.377
 Translational            0.889              2.981             38.246
 Rotational               0.889              2.981             24.307
 Vibrational             41.837              9.436              5.486
 Vibration     1          0.645              1.817              1.992
 Vibration     2          0.730              1.566              1.147
 Vibration     3          0.835              1.297              0.713
 Vibration     4          0.872              1.212              0.617
                       Q            Log10(Q)             Ln(Q)
 Total Bot       0.584201D-17        -17.233438        -39.681458
 Total V=0       0.433276D+13         12.636765         29.097227
 Vib (Bot)       0.340416D-29        -29.467990        -67.852553
 Vib (Bot)    1  0.917099D+00         -0.037584         -0.086540
 Vib (Bot)    2  0.519311D+00         -0.284572         -0.655252
 Vib (Bot)    3  0.349546D+00         -0.456495         -1.051120
 Vib (Bot)    4  0.313090D+00         -0.504331         -1.161265
 Vib (V=0)       0.252472D+01          0.402213          0.926131
 Vib (V=0)    1  0.154454D+01          0.188800          0.434728
 Vib (V=0)    2  0.122089D+01          0.086677          0.199581
 Vib (V=0)    3  0.111007D+01          0.045349          0.104421
 Vib (V=0)    4  0.108994D+01          0.037401          0.086120
 Electronic      0.200000D+01          0.301030          0.693147
 Translational   0.187395D+08          7.272758         16.746144
 Rotational      0.457893D+05          4.660764         10.731805
 ***** Axes restored to original set *****
 -------------------------------------------------------------------
 Center     Atomic                   Forces (Hartrees/Bohr)
 Number     Number              X              Y              Z
 -------------------------------------------------------------------
      1        6          -0.000170523    0.000037284   -0.000000031
      2        1          -0.000016247   -0.000016479    0.000025044
      3        1           0.000116513   -0.000074087    0.000000010
      4        1          -0.000016291   -0.000016477   -0.000025036
      5        6          -0.000017586    0.000030289    0.000000035
      6        1           0.000000824    0.000019555   -0.000030683
      7        1           0.000000771    0.000019568    0.000030684
      8        8          -0.000041038    0.000218477    0.000000006
      9        8           0.000143578   -0.000218128   -0.000000029
 -------------------------------------------------------------------
 Cartesian Forces:  Max     0.000218477 RMS     0.000080126
 FormGI is forming the generalized inverse of G from B-inverse, IUseBI=4.

 GradGradGradGradGradGradGradGradGradGradGradGradGradGradGradGradGradGrad
 Berny optimization.
 Internal  Forces:  Max     0.000230530 RMS     0.000066033
 Search for a saddle point.
 Step number   1 out of a maximum of    2
 All quantities printed in internal units (Hartrees-Bohrs-Radians)
 Swapping is turned off.
 Second derivative matrix not updated -- analytic derivatives used.
 ITU=  0
     Eigenvalues ---   -0.06327   0.00268   0.01607   0.02451   0.03962
     Eigenvalues ---    0.04028   0.06958   0.07421   0.08058   0.10659
     Eigenvalues ---    0.12460   0.14706   0.17621   0.34674   0.34774
     Eigenvalues ---    0.35923   0.36078   0.36879   0.48338   0.56658
     Eigenvalues ---    0.63825
 Eigenvectors required to have negative eigenvalues:
                          R5        R2        A7        D4        D9
   1                    0.65203  -0.56327  -0.30568   0.19033  -0.19033
                          A11       R4        A1        A4        D7
   1                   -0.16484   0.14818   0.09283   0.09283  -0.09257
 Angle between quadratic step and forces=  54.44 degrees.
 Linear search not attempted -- option 19 set.
 Iteration  1 RMS(Cart)=  0.00057467 RMS(Int)=  0.00000029
 Iteration  2 RMS(Cart)=  0.00000038 RMS(Int)=  0.00000003
 Variable       Old X    -DE/DX   Delta X   Delta X   Delta X     New X
                                 (Linear)    (Quad)   (Total)
    R1        2.04984   0.00003   0.00000   0.00009   0.00009   2.04992
    R2        2.55835   0.00023   0.00000   0.00108   0.00108   2.55944
    R3        2.04984   0.00003   0.00000   0.00009   0.00009   2.04992
    R4        2.61137   0.00007   0.00000   0.00027   0.00027   2.61164
    R5        2.40273   0.00010   0.00000   0.00126   0.00126   2.40399
    R6        2.04064   0.00004   0.00000   0.00010   0.00010   2.04074
    R7        2.04064   0.00004   0.00000   0.00010   0.00010   2.04074
    R8        2.40009   0.00022   0.00000   0.00036   0.00036   2.40045
    A1        1.77418  -0.00001   0.00000   0.00022   0.00022   1.77440
    A2        2.00908  -0.00000   0.00000  -0.00009  -0.00009   2.00899
    A3        2.07240  -0.00000   0.00000  -0.00007  -0.00007   2.07233
    A4        1.77418  -0.00001   0.00000   0.00022   0.00022   1.77440
    A5        1.64428   0.00004   0.00000   0.00000   0.00000   1.64428
    A6        2.07240  -0.00000   0.00000  -0.00007  -0.00007   2.07233
    A7        2.65339   0.00001   0.00000  -0.00112  -0.00112   2.65227
    A8        2.12461   0.00000   0.00000  -0.00003  -0.00003   2.12457
    A9        2.12461   0.00000   0.00000  -0.00003  -0.00003   2.12457
   A10        2.02180  -0.00000   0.00000  -0.00004  -0.00004   2.02176
   A11        1.71838  -0.00005   0.00000  -0.00025  -0.00025   1.71814
    D1       -2.10303  -0.00001   0.00000   0.00003   0.00003  -2.10300
    D2        2.10303   0.00001   0.00000  -0.00003  -0.00003   2.10300
    D3        0.00000  -0.00000   0.00000  -0.00000  -0.00000  -0.00000
    D4       -2.77982   0.00001   0.00000   0.00063   0.00063  -2.77919
    D5        0.18782   0.00001   0.00000  -0.00014  -0.00014   0.18768
    D6        1.65777  -0.00000   0.00000   0.00039   0.00039   1.65816
    D7       -1.65777   0.00000   0.00000  -0.00039  -0.00039  -1.65816
    D8       -0.18782  -0.00001   0.00000   0.00014   0.00014  -0.18768
    D9        2.77982  -0.00001   0.00000  -0.00063  -0.00063   2.77919
   D10       -0.00000  -0.00000   0.00000   0.00000   0.00000   0.00000
         Item               Value     Threshold  Converged?
 Maximum Force            0.000231     0.000450     YES
 RMS     Force            0.000066     0.000300     YES
 Maximum Displacement     0.001387     0.001800     YES
 RMS     Displacement     0.000575     0.001200     YES
 Predicted change in Energy=-2.441274D-07
 Optimization completed.
    -- Stationary point found.
                           ----------------------------
                           !   Optimized Parameters   !
                           ! (Angstroms and Degrees)  !
 --------------------------                            --------------------------
 ! Name  Definition              Value          Derivative Info.                !
 --------------------------------------------------------------------------------
 ! R1    R(1,2)                  1.0847         -DE/DX =    0.0                 !
 ! R2    R(1,3)                  1.3538         -DE/DX =    0.0002              !
 ! R3    R(1,4)                  1.0847         -DE/DX =    0.0                 !
 ! R4    R(1,5)                  1.3819         -DE/DX =    0.0001              !
 ! R5    R(3,9)                  1.2715         -DE/DX =    0.0001              !
 ! R6    R(5,6)                  1.0799         -DE/DX =    0.0                 !
 ! R7    R(5,7)                  1.0799         -DE/DX =    0.0                 !
 ! R8    R(8,9)                  1.2701         -DE/DX =    0.0002              !
 ! A1    A(2,1,3)              101.6529         -DE/DX =    0.0                 !
 ! A2    A(2,1,4)              115.1118         -DE/DX =    0.0                 !
 ! A3    A(2,1,5)              118.7396         -DE/DX =    0.0                 !
 ! A4    A(3,1,4)              101.6529         -DE/DX =    0.0                 !
 ! A5    A(3,1,5)               94.2104         -DE/DX =    0.0                 !
 ! A6    A(4,1,5)              118.7396         -DE/DX =    0.0                 !
 ! A7    A(1,3,9)              152.0279         -DE/DX =    0.0                 !
 ! A8    A(1,5,6)              121.7311         -DE/DX =    0.0                 !
 ! A9    A(1,5,7)              121.7311         -DE/DX =    0.0                 !
 ! A10   A(6,5,7)              115.8408         -DE/DX =    0.0                 !
 ! A11   A(3,9,8)               98.4562         -DE/DX =    0.0                 !
 ! D1    D(2,1,3,9)           -120.4948         -DE/DX =    0.0                 !
 ! D2    D(4,1,3,9)            120.4948         -DE/DX =    0.0                 !
 ! D3    D(5,1,3,9)              0.0            -DE/DX =    0.0                 !
 ! D4    D(2,1,5,6)           -159.2718         -DE/DX =    0.0                 !
 ! D5    D(2,1,5,7)             10.7616         -DE/DX =    0.0                 !
 ! D6    D(3,1,5,6)             94.9834         -DE/DX =    0.0                 !
 ! D7    D(3,1,5,7)            -94.9833         -DE/DX =    0.0                 !
 ! D8    D(4,1,5,6)            -10.7615         -DE/DX =    0.0                 !
 ! D9    D(4,1,5,7)            159.2719         -DE/DX =    0.0                 !
 ! D10   D(1,3,9,8)              0.0            -DE/DX =    0.0                 !
 --------------------------------------------------------------------------------
 GradGradGradGradGradGradGradGradGradGradGradGradGradGradGradGradGradGrad


 ----------------------------------------------------------------------

 Electric dipole moment (input orientation):
 (Debye = 10**-18 statcoulomb cm , SI units = C m)
                  (au)            (Debye)         (10**-30 SI)
   Tot        0.815441D+00      0.207264D+01      0.691360D+01
   x         -0.815368D+00     -0.207246D+01     -0.691298D+01
   y          0.108861D-01      0.276696D-01      0.922960D-01
   z          0.481451D-04      0.122373D-03      0.408191D-03

 Dipole polarizability, Alpha (input orientation).
 (esu units = cm**3 , SI units = C**2 m**2 J**-1)
 Alpha(0;0):
               (au)            (10**-24 esu)      (10**-40 SI)
   iso        0.394276D+02      0.584257D+01      0.650074D+01
   aniso      0.187826D+02      0.278329D+01      0.309682D+01
   xx         0.488298D+02      0.723583D+01      0.805094D+01
   yx        -0.139908D+01     -0.207323D+00     -0.230678D+00
   yy         0.417506D+02      0.618681D+01      0.688375D+01
   zx        -0.133132D-02     -0.197281D-03     -0.219505D-03
   zy         0.115938D-02      0.171802D-03      0.191156D-03
   zz         0.277025D+02      0.410509D+01      0.456753D+01

 ----------------------------------------------------------------------

 Dipole orientation:
     6         -0.01608028         -1.19796716          2.41081712
     1          1.70164546         -2.11540021          3.05078845
     1         -0.02408225         -1.79390710         -0.07714721
     1         -1.75781957         -2.06894926          3.05078813
     6          0.01852273          1.37913149          1.99056578
     1         -1.69582797          2.48576086          1.96664927
     1          1.76196818          2.43933176          1.96664669
     8          0.01603951          1.19419841         -2.15060793
     8         -0.01600457         -1.19233668         -2.40334113

 Electric dipole moment (dipole orientation):
 (Debye = 10**-18 statcoulomb cm , SI units = C m)
                  (au)            (Debye)         (10**-30 SI)
   Tot        0.815441D+00      0.207264D+01      0.691360D+01
   x          0.000000D+00      0.000000D+00      0.000000D+00
   y          0.000000D+00      0.000000D+00      0.000000D+00
   z          0.815441D+00      0.207264D+01      0.691360D+01

 Dipole polarizability, Alpha (dipole orientation).
 (esu units = cm**3 , SI units = C**2 m**2 J**-1)
 Alpha(0;0):
               (au)            (10**-24 esu)      (10**-40 SI)
   iso        0.394276D+02      0.584257D+01      0.650074D+01
   aniso      0.187826D+02      0.278329D+01      0.309682D+01
   xx         0.277051D+02      0.410547D+01      0.456795D+01
   yx         0.188107D+00      0.278745D-01      0.310146D-01
   yy         0.417120D+02      0.618108D+01      0.687738D+01
   zx         0.175066D-01      0.259421D-02      0.288645D-02
   zy         0.130397D+01      0.193229D+00      0.214996D+00
   zz         0.488659D+02      0.724117D+01      0.805689D+01

 ----------------------------------------------------------------------
 1\1\GINC-CNODE0281\Freq\UB3LYP\CC-pVTZ+d\C2H5O2(2)\KOTUKILE\24-Feb-202
 2\0\\#N Geom=AllCheck Guess=TCheck SCRF=Check GenChk UB3LYP/CC-pVTZ+d 
 Freq\\Ret-O2-concerted-OOH-elimination-TS1-B3LYP-A\\0,2\C,-1.284099563
 4,-0.6169063741,0.00002977\H,-1.6289921939,-1.085650422,0.9154312627\H
 ,0.0281467508,-0.9498406919,-0.0000720396\H,-1.6290982486,-1.085509704
 2,-0.915403805\C,-1.0435244548,0.7438680316,0.0001202865\H,-1.02326814
 43,1.3170885627,-0.9148126947\H,-1.0231606085,1.3169476016,0.915139164
 \O,1.1463884388,0.6167503428,-0.00001659\O,1.2632560239,-0.6479363466,
 -0.0001203538\\Version=ES64L-G16RevB.01\State=2-A\HF=-229.5779934\S2=0
 .75856\S2-1=0.\S2A=0.750049\RMSD=1.303e-09\RMSF=8.013e-05\ZeroPoint=0.
 0649398\Thermal=0.0695042\Dipole=-0.8153684,0.0108861,0.0000481\Dipole
 Deriv=-0.1304363,0.2445705,0.0000292,-0.0974193,-0.3473835,-0.0000246,
 0.0000031,-0.0000445,0.0484391,0.0648549,-0.1067519,0.0350196,-0.05527
 69,0.0601478,0.023451,0.0228435,0.0446792,-0.0402635,0.5184085,-0.1595
 868,-0.0000337,-0.203247,0.1177433,0.0000094,-0.000037,0.0000069,0.148
 4737,0.0648483,-0.1067517,-0.0350482,-0.0552762,0.0601581,-0.0234291,-
 0.0228643,-0.0446515,-0.0402673,0.2333749,0.1832496,0.0000104,0.400495
 6,0.315501,-0.0000119,0.0000268,0.0000008,0.1661386,0.0553704,-0.01933
 56,-0.0037129,0.0057499,0.0231385,0.0352721,0.0064305,0.0612914,-0.017
 6806,0.0553701,-0.0193434,0.0037012,0.0057468,0.0231533,-0.0352664,-0.
 0064381,-0.0612829,-0.0176952,-0.2810864,-0.2759328,-0.0000126,-0.8132
 723,0.0862094,0.0000641,-0.0000538,0.0000329,-0.1340143,-0.5807044,0.2
 598821,0.0000471,0.8124995,-0.3386679,-0.0000645,0.0000894,-0.0000324,
 -0.1131306\Polar=48.8297714,-1.3990845,41.7506333,-0.0013313,0.0011594
 ,27.7025287\Quadrupole=-2.0763812,0.8416339,1.2347473,-0.1256698,0.000
 1829,-0.0000231\PG=C01 [X(C2H5O2)]\NImag=1\\0.22505737,0.20370149,0.60
 188414,0.00003871,-0.00001340,0.62190790,-0.05823348,-0.05526408,0.078
 34324,0.06441562,-0.04604613,-0.09317274,0.09142154,0.04830508,0.10407
 686,0.07276789,0.09695254,-0.25220894,-0.08185051,-0.10688051,0.263787
 12,0.03509142,-0.06587069,-0.00000861,-0.01398786,0.00399296,-0.000499
 24,-0.01837248,0.01816310,-0.02875365,-0.00000127,-0.00663395,0.001940
 88,0.00053165,-0.00599467,0.08967866,-0.00000219,0.00000367,-0.0257463
 4,0.01348657,-0.00386036,-0.00164311,0.00000345,0.00000344,0.04865488,
 -0.05825104,-0.05526325,-0.07837423,0.00285509,0.00611710,0.00915764,-
 0.01398935,-0.00663194,-0.01348616,0.06443464,-0.04604553,-0.09314382,
 -0.09139175,0.00611972,0.00615574,0.01038146,0.00399334,0.00194037,0.0
 0386044,0.04830489,0.10404403,-0.07279747,-0.09692169,-0.25222040,-0.0
 0915891,-0.01037874,-0.01610241,0.00050128,-0.00053033,-0.00164110,0.0
 8188107,0.10685036,0.26380103,-0.07744738,-0.04099391,-0.00000507,0.00
 339591,-0.01126422,0.00031521,0.03190096,0.01433478,-0.00000101,0.0033
 9580,-0.01126770,-0.00031695,0.11856346,-0.10201977,-0.37155301,-0.000
 01416,0.00698467,-0.01518148,-0.00008473,0.06846336,-0.00790801,-0.000
 00424,0.00698473,-0.01517684,0.00008108,0.04989300,0.71000647,-0.00000
 969,-0.00001777,-0.11002280,0.00045832,0.03030505,0.00332819,0.0000031
 0,-0.00000102,-0.00498319,-0.00045726,-0.03030659,0.00332364,0.0000351
 4,0.00000151,0.65241395,0.00761624,-0.00606303,0.00284906,0.00646961,-
 0.00307140,0.00127331,-0.00399663,-0.00176412,-0.00015741,-0.00469498,
 0.00255049,0.00105679,-0.03164248,-0.00327235,0.00523944,0.02819427,-0
 .00368427,-0.01023807,0.02731474,0.00012422,-0.00451636,-0.00080882,0.
 00081637,-0.00026338,0.00006880,0.00058193,0.00144947,-0.00033800,-0.0
 0615970,-0.13495981,0.12551826,0.00753131,0.13835008,-0.00000377,-0.00
 228744,0.00473397,-0.00021027,-0.00087934,0.00131447,0.00120621,-0.000
 03950,0.00006213,-0.00010310,0.00027191,0.00126995,0.00414229,0.128624
 41,-0.26827565,-0.00569387,-0.13813505,0.27575859,0.00761589,-0.006062
 32,-0.00285034,-0.00469509,0.00255062,-0.00105570,-0.00399673,-0.00176
 413,0.00015762,0.00646950,-0.00307110,-0.00127437,-0.03164357,-0.00328
 665,-0.00526775,0.00417678,-0.00111085,0.00015732,0.02819562,-0.003687
 46,-0.01023422,-0.02731661,0.00058196,0.00144946,0.00033796,0.00081654
 ,-0.00026337,-0.00006896,0.00012428,-0.00451662,0.00080791,-0.00617380
 ,-0.13492071,-0.12549700,-0.00110920,0.01065693,0.01389340,0.00754665,
 0.13830756,0.00000286,0.00228585,0.00473045,0.00010390,-0.00027218,0.0
 0127007,-0.00120560,0.00003966,0.00006225,0.00020968,0.00087881,0.0013
 1486,-0.00417105,-0.12860349,-0.26831372,-0.00015987,-0.01388915,-0.01
 606662,0.00572412,0.13811299,0.27579983,0.00398861,-0.03695060,-0.0000
 0287,-0.00552970,0.00114989,-0.00174329,-0.04075710,-0.03532529,0.0000
 0027,-0.00552952,0.00114963,0.00174408,0.02957192,-0.00320266,-0.00000
 301,-0.00658282,0.00195559,0.00031316,-0.00658216,0.00195561,-0.000311
 89,0.07760461,0.02267495,-0.01674459,-0.00000284,-0.00301141,-0.001202
 14,-0.00130363,-0.04736599,-0.04938205,-0.00000185,-0.00301120,-0.0012
 0235,0.00130382,0.01642292,0.00612551,0.00000090,0.00061929,0.00035838
 ,-0.00041312,0.00061837,0.00035838,0.00041284,-0.01084558,0.56133639,0
 .00000169,0.00000061,0.00320171,0.00032935,-0.00011104,-0.00019394,-0.
 00000065,-0.00000257,0.01072915,-0.00032920,0.00011075,-0.00019388,-0.
 00000150,0.00000205,-0.01821248,-0.00628936,0.00030665,0.00167691,0.00
 629042,-0.00030708,0.00167623,-0.00000439,0.00004242,0.01649494,-0.085
 43762,0.06276638,0.00001010,0.00530989,-0.00173390,0.00163468,0.028107
 76,0.02561622,-0.00000115,0.00530986,-0.00173373,-0.00163551,-0.046094
 62,-0.02054432,0.00000172,0.00046000,-0.00005462,0.00019203,0.00045975
 ,-0.00005459,-0.00019215,-0.04618384,0.02389865,0.00000362,0.13806883,
 -0.04305638,0.02195597,0.00000375,0.00279379,0.00044979,0.00087408,0.0
 4114877,-0.00698946,-0.00000096,0.00279346,0.00045002,-0.00087440,-0.0
 0479137,-0.03643212,-0.00000333,0.00457900,-0.00083723,-0.00103527,0.0
 0457941,-0.00083739,0.00103467,0.08011340,-0.49964751,-0.00004180,-0.0
 8816009,0.52188793,0.00000197,-0.00000238,0.00562444,-0.00150169,0.000
 65559,0.00044853,0.00000006,-0.00000006,-0.02549469,0.00150156,-0.0006
 5539,0.00044831,0.00000293,-0.00000243,0.01074205,0.00188190,-0.000037
 43,-0.00047377,-0.00188131,0.00003739,-0.00047336,0.00000794,-0.000038
 54,-0.01517865,-0.00001335,0.00004326,0.02435712\\0.00017052,-0.000037
 28,0.00000003,0.00001625,0.00001648,-0.00002504,-0.00011651,0.00007409
 ,0.,0.00001629,0.00001648,0.00002504,0.00001759,-0.00003029,-0.0000000
 3,-0.00000082,-0.00001955,0.00003068,-0.00000077,-0.00001957,-0.000030
 68,0.00004104,-0.00021848,0.,-0.00014358,0.00021813,0.00000003\\\@


 THERE IS NO SUBJECT, HOWEVER COMPLEX,
 WHICH, IF STUDIED WITH PATIENCE AND INTELLIGIENCE
 WILL NOT BECOME
 MORE COMPLEX
                        QUOTED BY D. GORDON ROHMAN
 Job cpu time:       0 days  0 hours  0 minutes 25.5 seconds.
 Elapsed time:       0 days  0 hours  1 minutes  6.3 seconds.
 File lengths (MBytes):  RWF=     58 Int=      0 D2E=      0 Chk=      5 Scr=      1
 Normal termination of Gaussian 16 at Thu Feb 24 20:05:17 2022.
