 Entering Gaussian System, Link 0=g16
 Initial command:
 /apps/chpc/chem/gaussian16/B01/g16/l1.exe "/mnt/lustre/users/kotukile/Kgalaletso/4053398.sched01/Gau-46985.inp" -scrdir="/mnt/lustre/users/kotukile/Kgalaletso/4053398.sched01/"
 Entering Link 1 = /apps/chpc/chem/gaussian16/B01/g16/l1.exe PID=     46987.
  
 Copyright (c) 1988-2017, Gaussian, Inc.  All Rights Reserved.
  
 This is part of the Gaussian(R) 16 program.  It is based on
 the Gaussian(R) 09 system (copyright 2009, Gaussian, Inc.),
 the Gaussian(R) 03 system (copyright 2003, Gaussian, Inc.),
 the Gaussian(R) 98 system (copyright 1998, Gaussian, Inc.),
 the Gaussian(R) 94 system (copyright 1995, Gaussian, Inc.),
 the Gaussian 92(TM) system (copyright 1992, Gaussian, Inc.),
 the Gaussian 90(TM) system (copyright 1990, Gaussian, Inc.),
 the Gaussian 88(TM) system (copyright 1988, Gaussian, Inc.),
 the Gaussian 86(TM) system (copyright 1986, Carnegie Mellon
 University), and the Gaussian 82(TM) system (copyright 1983,
 Carnegie Mellon University). Gaussian is a federally registered
 trademark of Gaussian, Inc.
  
 This software contains proprietary and confidential information,
 including trade secrets, belonging to Gaussian, Inc.
  
 This software is provided under written license and may be
 used, copied, transmitted, or stored only in accord with that
 written license.
  
 The following legend is applicable only to US Government
 contracts under FAR:
  
                    RESTRICTED RIGHTS LEGEND
  
 Use, reproduction and disclosure by the US Government is
 subject to restrictions as set forth in subparagraphs (a)
 and (c) of the Commercial Computer Software - Restricted
 Rights clause in FAR 52.227-19.
  
 Gaussian, Inc.
 340 Quinnipiac St., Bldg. 40, Wallingford CT 06492
  
  
 ---------------------------------------------------------------
 Warning -- This program may not be used in any manner that
 competes with the business of Gaussian, Inc. or will provide
 assistance to any competitor of Gaussian, Inc.  The licensee
 of this program is prohibited from giving any competitor of
 Gaussian, Inc. access to this program.  By using this program,
 the user acknowledges that Gaussian, Inc. is engaged in the
 business of creating and licensing software in the field of
 computational chemistry and represents and warrants to the
 licensee that it is not a competitor of Gaussian, Inc. and that
 it will not use this program in any manner prohibited above.
 ---------------------------------------------------------------
  

 Cite this work as:
 Gaussian 16, Revision B.01,
 M. J. Frisch, G. W. Trucks, H. B. Schlegel, G. E. Scuseria, 
 M. A. Robb, J. R. Cheeseman, G. Scalmani, V. Barone, 
 G. A. Petersson, H. Nakatsuji, X. Li, M. Caricato, A. V. Marenich, 
 J. Bloino, B. G. Janesko, R. Gomperts, B. Mennucci, H. P. Hratchian, 
 J. V. Ortiz, A. F. Izmaylov, J. L. Sonnenberg, D. Williams-Young, 
 F. Ding, F. Lipparini, F. Egidi, J. Goings, B. Peng, A. Petrone, 
 T. Henderson, D. Ranasinghe, V. G. Zakrzewski, J. Gao, N. Rega, 
 G. Zheng, W. Liang, M. Hada, M. Ehara, K. Toyota, R. Fukuda, 
 J. Hasegawa, M. Ishida, T. Nakajima, Y. Honda, O. Kitao, H. Nakai, 
 T. Vreven, K. Throssell, J. A. Montgomery, Jr., J. E. Peralta, 
 F. Ogliaro, M. J. Bearpark, J. J. Heyd, E. N. Brothers, K. N. Kudin, 
 V. N. Staroverov, T. A. Keith, R. Kobayashi, J. Normand, 
 K. Raghavachari, A. P. Rendell, J. C. Burant, S. S. Iyengar, 
 J. Tomasi, M. Cossi, J. M. Millam, M. Klene, C. Adamo, R. Cammi, 
 J. W. Ochterski, R. L. Martin, K. Morokuma, O. Farkas, 
 J. B. Foresman, and D. J. Fox, Gaussian, Inc., Wallingford CT, 2016.
 
 ******************************************
 Gaussian 16:  ES64L-G16RevB.01 20-Dec-2017
                28-Feb-2022 
 ******************************************
 %nprocshared=24
 Will use up to   24 processors via shared memory.
 %lindaworkers=cnode0936.cm.cluster,cnode0938.cm.cluster
 %mem=5GB
 %chk=QOOHet-OOH-Elimination-TS3a-B3LYP-A.chk
 SetLPE:    new flags="-opt 'Tsnet.Node.lindarsharg: ssh'  -nodelist 'cnode0936.cm.cluster cnode0938.cm.cluster' -env GAUSS_MDEF=671088640 -env GAUSS_EXEDIR="/apps/chpc/chem/gaussian16/B01/g16/bsd:/apps/chpc/chem/gaussian16/B01/g16""
 Will use up to    2 processors via Linda.
 ---------------------------------------------------
 # opt=(calcfc,ts,noeigentest) freq ub3lyp cc-pvtz+d
 ---------------------------------------------------
 1/5=1,10=4,11=1,18=20,26=3,38=1/1,3;
 2/9=110,12=2,17=6,18=5,40=1/2;
 3/5=16,6=1,7=9,11=2,25=1,30=1,71=2,74=-5,116=2,140=1/1,2,3;
 4//1;
 5/5=2,38=5/2;
 8/6=4,10=90,11=11/1;
 11/6=1,8=1,9=11,15=111,16=1/1,2,10;
 10/6=1,13=1/2;
 6/7=2,8=2,9=2,10=2,28=1/1;
 7/10=1,18=20,25=1/1,2,3,16;
 1/5=1,10=4,11=1,18=20,26=3/3(2);
 2/9=110/2;
 99//99;
 2/9=110/2;
 3/5=16,6=1,7=9,11=2,25=1,30=1,71=1,74=-5,116=2/1,2,3;
 4/5=5,16=3,69=1/1;
 5/5=2,38=5/2;
 7//1,2,3,16;
 1/5=1,11=1,18=20,26=3/3(-5);
 2/9=110/2;
 6/7=2,8=2,9=2,10=2,19=2,28=1/1;
 99/9=1/99;
 -----------------------------------
 QOOHet-OOH-Elimination-TS3a-B3LYP-A
 -----------------------------------
 Symbolic Z-matrix:
 Charge =  0 Multiplicity = 2
 C                    -1.63487   0.53231  -0.11863 
 H                    -2.19172   0.47136  -1.04788 
 H                     1.66728   1.15357  -0.29082 
 H                    -1.56808   1.50692   0.35476 
 C                    -0.92922  -0.54884   0.36646 
 H                    -0.51859  -0.52312   1.36997 
 H                    -1.13198  -1.54035  -0.02636 
 O                     0.77307  -0.47161  -0.48713 
 O                     1.61789   0.35047   0.2563 
 
 Add virtual bond connecting atoms O8         and C5         Dist= 3.60D+00.

 GradGradGradGradGradGradGradGradGradGradGradGradGradGradGradGradGradGrad
 Berny optimization.
 Initialization pass.
                           ----------------------------
                           !    Initial Parameters    !
                           ! (Angstroms and Degrees)  !
 --------------------------                            --------------------------
 ! Name  Definition              Value          Derivative Info.                !
 --------------------------------------------------------------------------------
 ! R1    R(1,2)                  1.085          calculate D2E/DX2 analytically  !
 ! R2    R(1,4)                  1.0856         calculate D2E/DX2 analytically  !
 ! R3    R(1,5)                  1.3792         calculate D2E/DX2 analytically  !
 ! R4    R(3,9)                  0.973          calculate D2E/DX2 analytically  !
 ! R5    R(5,6)                  1.0846         calculate D2E/DX2 analytically  !
 ! R6    R(5,7)                  1.0856         calculate D2E/DX2 analytically  !
 ! R7    R(5,8)                  1.9059         calculate D2E/DX2 analytically  !
 ! R8    R(8,9)                  1.3936         calculate D2E/DX2 analytically  !
 ! A1    A(2,1,4)              117.0951         calculate D2E/DX2 analytically  !
 ! A2    A(2,1,5)              121.3172         calculate D2E/DX2 analytically  !
 ! A3    A(4,1,5)              121.261          calculate D2E/DX2 analytically  !
 ! A4    A(1,5,6)              120.0368         calculate D2E/DX2 analytically  !
 ! A5    A(1,5,7)              119.547          calculate D2E/DX2 analytically  !
 ! A6    A(1,5,8)              105.5278         calculate D2E/DX2 analytically  !
 ! A7    A(6,5,7)              115.2882         calculate D2E/DX2 analytically  !
 ! A8    A(6,5,8)               94.3164         calculate D2E/DX2 analytically  !
 ! A9    A(7,5,8)               92.394          calculate D2E/DX2 analytically  !
 ! A10   A(5,8,9)              109.0521         calculate D2E/DX2 analytically  !
 ! A11   A(3,9,8)              102.5736         calculate D2E/DX2 analytically  !
 ! D1    D(2,1,5,6)           -169.7932         calculate D2E/DX2 analytically  !
 ! D2    D(2,1,5,7)            -16.2894         calculate D2E/DX2 analytically  !
 ! D3    D(2,1,5,8)             85.6768         calculate D2E/DX2 analytically  !
 ! D4    D(4,1,5,6)             16.962          calculate D2E/DX2 analytically  !
 ! D5    D(4,1,5,7)            170.4658         calculate D2E/DX2 analytically  !
 ! D6    D(4,1,5,8)            -87.568          calculate D2E/DX2 analytically  !
 ! D7    D(1,5,8,9)             86.7257         calculate D2E/DX2 analytically  !
 ! D8    D(6,5,8,9)            -36.0919         calculate D2E/DX2 analytically  !
 ! D9    D(7,5,8,9)           -151.6812         calculate D2E/DX2 analytically  !
 ! D10   D(5,8,9,3)           -106.3406         calculate D2E/DX2 analytically  !
 --------------------------------------------------------------------------------
 Trust Radius=3.00D-01 FncErr=1.00D-07 GrdErr=1.00D-06 EigMax=2.50D+02 EigMin=1.00D-04
 Number of steps in this run=     39 maximum allowed number of steps=    100.
 Search for a saddle point of order  1.
 GradGradGradGradGradGradGradGradGradGradGradGradGradGradGradGradGradGrad

                          Input orientation:                          
 ---------------------------------------------------------------------
 Center     Atomic      Atomic             Coordinates (Angstroms)
 Number     Number       Type             X           Y           Z
 ---------------------------------------------------------------------
      1          6           0       -1.634873    0.532305   -0.118626
      2          1           0       -2.191724    0.471363   -1.047875
      3          1           0        1.667278    1.153566   -0.290818
      4          1           0       -1.568083    1.506917    0.354759
      5          6           0       -0.929220   -0.548838    0.366456
      6          1           0       -0.518585   -0.523119    1.369969
      7          1           0       -1.131982   -1.540350   -0.026362
      8          8           0        0.773072   -0.471613   -0.487130
      9          8           0        1.617885    0.350466    0.256299
 ---------------------------------------------------------------------
                    Distance matrix (angstroms):
                    1          2          3          4          5
     1  C    0.000000
     2  H    1.085035   0.000000
     3  H    3.364494   3.991295   0.000000
     4  H    1.085552   1.851670   3.318010   0.000000
     5  C    1.379174   2.152919   3.173640   2.152768   0.000000
     6  H    2.139143   3.103926   3.216750   2.500629   1.084583
     7  H    2.134786   2.492696   3.893967   3.101818   1.085594
     8  O    2.634738   3.161274   1.865301   3.178736   1.905878
     9  O    3.279340   4.028474   0.973009   3.390791   2.703447
                    6          7          8          9
     6  H    0.000000
     7  H    1.833236   0.000000
     8  O    2.262708   2.232428   0.000000
     9  O    2.562795   3.349157   1.393632   0.000000
 Stoichiometry    C2H5O2(2)
 Framework group  C1[X(C2H5O2)]
 Deg. of freedom    21
 Full point group                 C1      NOp   1
 Largest Abelian subgroup         C1      NOp   1
 Largest concise Abelian subgroup C1      NOp   1
                         Standard orientation:                         
 ---------------------------------------------------------------------
 Center     Atomic      Atomic             Coordinates (Angstroms)
 Number     Number       Type             X           Y           Z
 ---------------------------------------------------------------------
      1          6           0       -1.634873    0.532305   -0.118626
      2          1           0       -2.191724    0.471363   -1.047875
      3          1           0        1.667278    1.153566   -0.290818
      4          1           0       -1.568083    1.506917    0.354759
      5          6           0       -0.929220   -0.548838    0.366456
      6          1           0       -0.518585   -0.523119    1.369969
      7          1           0       -1.131982   -1.540350   -0.026362
      8          8           0        0.773072   -0.471613   -0.487130
      9          8           0        1.617885    0.350466    0.256299
 ---------------------------------------------------------------------
 Rotational constants (GHZ):          17.5060215           4.3922628           4.0605500
 Standard basis: CC-pVTZ+d (5D, 7F)
 There are   215 symmetry adapted cartesian basis functions of A   symmetry.
 There are   190 symmetry adapted basis functions of A   symmetry.
   190 basis functions,   293 primitive gaussians,   215 cartesian basis functions
    17 alpha electrons       16 beta electrons
       nuclear repulsion energy       117.9981092636 Hartrees.
 NAtoms=    9 NActive=    9 NUniq=    9 SFac= 1.00D+00 NAtFMM=   60 NAOKFM=F Big=F
 Integral buffers will be    131072 words long.
 Raffenetti 2 integral format.
 Two-electron integral symmetry is turned on.
 One-electron integrals computed using PRISM.
 NBasis=   190 RedAO= T EigKep=  6.48D-04  NBF=   190
 NBsUse=   190 1.00D-06 EigRej= -1.00D+00 NBFU=   190
 ExpMin= 1.03D-01 ExpMax= 1.53D+04 ExpMxC= 5.22D+02 IAcc=3 IRadAn=         5 AccDes= 0.00D+00
 Harris functional with IExCor=  402 and IRadAn=       5 diagonalized for initial guess.
 HarFok:  IExCor=  402 AccDes= 0.00D+00 IRadAn=         5 IDoV= 1 UseB2=F ITyADJ=14
 ICtDFT=  3500011 ScaDFX=  1.000000  1.000000  1.000000  1.000000
 FoFCou: FMM=F IPFlag=           0 FMFlag=      100000 FMFlg1=           0
         NFxFlg=           0 DoJE=T BraDBF=F KetDBF=T FulRan=T
         wScrn=  0.000000 ICntrl=       500 IOpCl=  0 I1Cent=   200000004 NGrid=           0
         NMat0=    1 NMatS0=      1 NMatT0=    0 NMatD0=    1 NMtDS0=    0 NMtDT0=    0
 Petite list used in FoFCou.
 Initial guess <Sx>= 0.0000 <Sy>= 0.0000 <Sz>= 0.5000 <S**2>= 0.7500 S= 0.5000
 Keep R1 and R2 ints in memory in canonical form, NReq=354287669.
 Requested convergence on RMS density matrix=1.00D-08 within 128 cycles.
 Requested convergence on MAX density matrix=1.00D-06.
 Requested convergence on             energy=1.00D-06.
 No special actions if energy rises.
 Integral accuracy reduced to 1.0D-05 until final iterations.
 Initial convergence to 1.0D-05 achieved.  Increase integral accuracy.
 SCF Done:  E(UB3LYP) =  -229.573949796     A.U. after   19 cycles
            NFock= 19  Conv=0.29D-08     -V/T= 2.0063
 <Sx>= 0.0000 <Sy>= 0.0000 <Sz>= 0.5000 <S**2>= 0.7802 S= 0.5150
 <L.S>= 0.000000000000E+00
 Annihilation of the first spin contaminant:
 S**2 before annihilation     0.7802,   after     0.7502
 DoSCS=F DFT=T ScalE2(SS,OS)=  1.000000  1.000000
 Range of M.O.s used for correlation:     1   190
 NBasis=   190 NAE=    17 NBE=    16 NFC=     0 NFV=     0
 NROrb=    190 NOA=    17 NOB=    16 NVA=   173 NVB=   174
 Symmetrizing basis deriv contribution to polar:
 IMax=3 JMax=2 DiffMx= 0.00D+00
 G2DrvN: will do    10 centers at a time, making    1 passes.
 Calling FoFCou, ICntrl=  3107 FMM=F I1Cent=   0 AccDes= 0.00D+00.
 End of G2Drv F.D. properties file   721 does not exist.
 End of G2Drv F.D. properties file   722 does not exist.
 End of G2Drv F.D. properties file   788 does not exist.
          IDoAtm=111111111
          Differentiating once with respect to nuclear coordinates.
 Keep R1 and R2 ints in memory in canonical form, NReq=354212577.
          There are    30 degrees of freedom in the 1st order CPHF.  IDoFFX=6 NUNeed=     0.
     24 vectors produced by pass  0 Test12= 1.91D-14 3.33D-09 XBig12= 1.69D-01 1.16D-01.
 AX will form    24 AO Fock derivatives at one time.
     24 vectors produced by pass  1 Test12= 1.91D-14 3.33D-09 XBig12= 2.42D-02 4.97D-02.
     24 vectors produced by pass  2 Test12= 1.91D-14 3.33D-09 XBig12= 1.67D-03 6.14D-03.
     24 vectors produced by pass  3 Test12= 1.91D-14 3.33D-09 XBig12= 2.37D-05 6.89D-04.
     24 vectors produced by pass  4 Test12= 1.91D-14 3.33D-09 XBig12= 2.45D-07 8.32D-05.
     24 vectors produced by pass  5 Test12= 1.91D-14 3.33D-09 XBig12= 2.67D-09 6.87D-06.
     22 vectors produced by pass  6 Test12= 1.91D-14 3.33D-09 XBig12= 1.18D-11 4.26D-07.
      6 vectors produced by pass  7 Test12= 1.91D-14 3.33D-09 XBig12= 4.83D-14 2.12D-08.
 InvSVY:  IOpt=1 It=  1 EMax= 2.00D-15
 Solved reduced A of dimension   172 with    24 vectors.
 End of Minotr F.D. properties file   721 does not exist.
 End of Minotr F.D. properties file   722 does not exist.
 End of Minotr F.D. properties file   788 does not exist.

 **********************************************************************

            Population analysis using the SCF Density.

 **********************************************************************

 Orbital symmetries:
 Alpha Orbitals:
       Occupied  (A) (A) (A) (A) (A) (A) (A) (A) (A) (A) (A) (A)
                 (A) (A) (A) (A) (A)
       Virtual   (A) (A) (A) (A) (A) (A) (A) (A) (A) (A) (A) (A)
                 (A) (A) (A) (A) (A) (A) (A) (A) (A) (A) (A) (A)
                 (A) (A) (A) (A) (A) (A) (A) (A) (A) (A) (A) (A)
                 (A) (A) (A) (A) (A) (A) (A) (A) (A) (A) (A) (A)
                 (A) (A) (A) (A) (A) (A) (A) (A) (A) (A) (A) (A)
                 (A) (A) (A) (A) (A) (A) (A) (A) (A) (A) (A) (A)
                 (A) (A) (A) (A) (A) (A) (A) (A) (A) (A) (A) (A)
                 (A) (A) (A) (A) (A) (A) (A) (A) (A) (A) (A) (A)
                 (A) (A) (A) (A) (A) (A) (A) (A) (A) (A) (A) (A)
                 (A) (A) (A) (A) (A) (A) (A) (A) (A) (A) (A) (A)
                 (A) (A) (A) (A) (A) (A) (A) (A) (A) (A) (A) (A)
                 (A) (A) (A) (A) (A) (A) (A) (A) (A) (A) (A) (A)
                 (A) (A) (A) (A) (A) (A) (A) (A) (A) (A) (A) (A)
                 (A) (A) (A) (A) (A) (A) (A) (A) (A) (A) (A) (A)
                 (A) (A) (A) (A) (A)
 Beta  Orbitals:
       Occupied  (A) (A) (A) (A) (A) (A) (A) (A) (A) (A) (A) (A)
                 (A) (A) (A) (A)
       Virtual   (A) (A) (A) (A) (A) (A) (A) (A) (A) (A) (A) (A)
                 (A) (A) (A) (A) (A) (A) (A) (A) (A) (A) (A) (A)
                 (A) (A) (A) (A) (A) (A) (A) (A) (A) (A) (A) (A)
                 (A) (A) (A) (A) (A) (A) (A) (A) (A) (A) (A) (A)
                 (A) (A) (A) (A) (A) (A) (A) (A) (A) (A) (A) (A)
                 (A) (A) (A) (A) (A) (A) (A) (A) (A) (A) (A) (A)
                 (A) (A) (A) (A) (A) (A) (A) (A) (A) (A) (A) (A)
                 (A) (A) (A) (A) (A) (A) (A) (A) (A) (A) (A) (A)
                 (A) (A) (A) (A) (A) (A) (A) (A) (A) (A) (A) (A)
                 (A) (A) (A) (A) (A) (A) (A) (A) (A) (A) (A) (A)
                 (A) (A) (A) (A) (A) (A) (A) (A) (A) (A) (A) (A)
                 (A) (A) (A) (A) (A) (A) (A) (A) (A) (A) (A) (A)
                 (A) (A) (A) (A) (A) (A) (A) (A) (A) (A) (A) (A)
                 (A) (A) (A) (A) (A) (A) (A) (A) (A) (A) (A) (A)
                 (A) (A) (A) (A) (A) (A)
 The electronic state is 2-A.
 Alpha  occ. eigenvalues --  -19.19599 -19.18822 -10.20943 -10.19293  -1.12897
 Alpha  occ. eigenvalues --   -0.86093  -0.77228  -0.60492  -0.52627  -0.48311
 Alpha  occ. eigenvalues --   -0.45409  -0.44100  -0.42649  -0.37308  -0.30567
 Alpha  occ. eigenvalues --   -0.28387  -0.23758
 Alpha virt. eigenvalues --    0.00590   0.03293   0.05208   0.07952   0.08221
 Alpha virt. eigenvalues --    0.09564   0.14072   0.22967   0.24602   0.27721
 Alpha virt. eigenvalues --    0.28540   0.32716   0.36011   0.39503   0.42655
 Alpha virt. eigenvalues --    0.43685   0.43916   0.45995   0.49565   0.50422
 Alpha virt. eigenvalues --    0.52934   0.54560   0.58739   0.60858   0.62371
 Alpha virt. eigenvalues --    0.64246   0.68041   0.69410   0.71431   0.74084
 Alpha virt. eigenvalues --    0.80667   0.83419   0.87921   0.90973   0.96853
 Alpha virt. eigenvalues --    0.97935   1.01224   1.03476   1.06712   1.07532
 Alpha virt. eigenvalues --    1.09774   1.10953   1.21396   1.23066   1.25561
 Alpha virt. eigenvalues --    1.26762   1.27446   1.33779   1.37209   1.40151
 Alpha virt. eigenvalues --    1.42518   1.46545   1.50098   1.51516   1.53259
 Alpha virt. eigenvalues --    1.63160   1.65426   1.68890   1.80489   1.87472
 Alpha virt. eigenvalues --    1.93962   2.02576   2.07770   2.12617   2.19996
 Alpha virt. eigenvalues --    2.22716   2.28363   2.31472   2.40801   2.44908
 Alpha virt. eigenvalues --    2.47302   2.49252   2.54900   2.57688   2.71831
 Alpha virt. eigenvalues --    2.73935   2.75965   2.76580   2.77541   2.83507
 Alpha virt. eigenvalues --    2.87690   2.90687   2.90756   2.95045   3.02287
 Alpha virt. eigenvalues --    3.05813   3.08116   3.09827   3.15526   3.21370
 Alpha virt. eigenvalues --    3.22903   3.24206   3.25703   3.29740   3.32146
 Alpha virt. eigenvalues --    3.34356   3.40173   3.42656   3.44202   3.49296
 Alpha virt. eigenvalues --    3.58249   3.59242   3.63550   3.66884   3.68976
 Alpha virt. eigenvalues --    3.69479   3.72384   3.76672   3.79358   3.82280
 Alpha virt. eigenvalues --    3.84644   3.89440   3.92396   3.95504   3.96372
 Alpha virt. eigenvalues --    3.97336   4.02925   4.03003   4.08985   4.12004
 Alpha virt. eigenvalues --    4.17355   4.20562   4.21862   4.33809   4.37544
 Alpha virt. eigenvalues --    4.44575   4.51302   4.56998   4.60318   4.66526
 Alpha virt. eigenvalues --    4.72646   4.76639   4.83151   4.84235   4.88460
 Alpha virt. eigenvalues --    4.92653   4.95972   4.97528   5.02038   5.06862
 Alpha virt. eigenvalues --    5.11489   5.13078   5.20548   5.23218   5.27066
 Alpha virt. eigenvalues --    5.31977   5.38482   5.41421   5.57673   5.79044
 Alpha virt. eigenvalues --    5.86039   5.88599   5.91785   5.99919   6.18988
 Alpha virt. eigenvalues --    6.25139   6.30870   6.32237   6.37887   6.44674
 Alpha virt. eigenvalues --    6.53623   6.57040   6.63177   6.65728   6.80785
 Alpha virt. eigenvalues --    7.02972   7.12802   7.29323   7.51165   9.25763
 Alpha virt. eigenvalues --   10.95368  11.17604  13.51531
  Beta  occ. eigenvalues --  -19.19310 -19.17305 -10.21185 -10.18490  -1.11288
  Beta  occ. eigenvalues --   -0.83677  -0.75901  -0.59631  -0.51928  -0.47868
  Beta  occ. eigenvalues --   -0.44481  -0.42317  -0.39995  -0.36964  -0.27852
  Beta  occ. eigenvalues --   -0.26331
  Beta virt. eigenvalues --   -0.11360   0.01905   0.04157   0.05560   0.08215
  Beta virt. eigenvalues --    0.08387   0.10373   0.14107   0.23049   0.24790
  Beta virt. eigenvalues --    0.27995   0.29042   0.34687   0.37387   0.39787
  Beta virt. eigenvalues --    0.42818   0.43784   0.44346   0.46684   0.49784
  Beta virt. eigenvalues --    0.50804   0.53389   0.55172   0.59141   0.61514
  Beta virt. eigenvalues --    0.62845   0.64700   0.68663   0.69772   0.72373
  Beta virt. eigenvalues --    0.74657   0.81427   0.83930   0.88226   0.91265
  Beta virt. eigenvalues --    0.97470   0.98185   1.01532   1.03652   1.07194
  Beta virt. eigenvalues --    1.08152   1.10114   1.11856   1.21939   1.23526
  Beta virt. eigenvalues --    1.25928   1.26907   1.28136   1.34203   1.37613
  Beta virt. eigenvalues --    1.41149   1.43027   1.46892   1.50470   1.52117
  Beta virt. eigenvalues --    1.54246   1.64062   1.66200   1.69506   1.81354
  Beta virt. eigenvalues --    1.87870   1.94496   2.04105   2.10573   2.13366
  Beta virt. eigenvalues --    2.20420   2.24001   2.29086   2.31804   2.40952
  Beta virt. eigenvalues --    2.46219   2.48102   2.50056   2.55194   2.58090
  Beta virt. eigenvalues --    2.72651   2.74547   2.76363   2.76683   2.78860
  Beta virt. eigenvalues --    2.84410   2.88800   2.91333   2.92216   2.96775
  Beta virt. eigenvalues --    3.02451   3.07193   3.08353   3.11126   3.16133
  Beta virt. eigenvalues --    3.21614   3.23202   3.24386   3.26010   3.30127
  Beta virt. eigenvalues --    3.32260   3.34507   3.40674   3.43078   3.44979
  Beta virt. eigenvalues --    3.49750   3.58536   3.59543   3.63918   3.67668
  Beta virt. eigenvalues --    3.69123   3.69657   3.72622   3.76991   3.80036
  Beta virt. eigenvalues --    3.82630   3.85092   3.90396   3.92565   3.95676
  Beta virt. eigenvalues --    3.96717   3.97722   4.03177   4.03317   4.09596
  Beta virt. eigenvalues --    4.12146   4.18055   4.21475   4.22104   4.34149
  Beta virt. eigenvalues --    4.38422   4.45287   4.51685   4.57416   4.60761
  Beta virt. eigenvalues --    4.66802   4.72991   4.77795   4.83847   4.84706
  Beta virt. eigenvalues --    4.89545   4.93544   4.96895   4.98392   5.03140
  Beta virt. eigenvalues --    5.07387   5.11842   5.13446   5.22597   5.25151
  Beta virt. eigenvalues --    5.28513   5.33491   5.40820   5.41808   5.59019
  Beta virt. eigenvalues --    5.79287   5.86296   5.88741   5.92377   6.02120
  Beta virt. eigenvalues --    6.19175   6.26525   6.32446   6.33276   6.40421
  Beta virt. eigenvalues --    6.48623   6.55148   6.58516   6.64423   6.68167
  Beta virt. eigenvalues --    6.81688   7.05803   7.13253   7.30229   7.52196
  Beta virt. eigenvalues --    9.27406  10.95944  11.18026  13.52021
          Condensed to atoms (all electrons):
               1          2          3          4          5          6
     1  C    5.047943   0.408518   0.000935   0.407788   0.484158  -0.046919
     2  H    0.408518   0.543238   0.000062  -0.035644  -0.037397   0.005855
     3  H    0.000935   0.000062   0.472024  -0.000037  -0.000561  -0.000989
     4  H    0.407788  -0.035644  -0.000037   0.546784  -0.041841  -0.006602
     5  C    0.484158  -0.037397  -0.000561  -0.041841   4.830798   0.413557
     6  H   -0.046919   0.005855  -0.000989  -0.006602   0.413557   0.534467
     7  H   -0.039021  -0.007283  -0.000125   0.006238   0.405624  -0.025002
     8  O   -0.018085   0.000758  -0.029857  -0.000826   0.074571  -0.019172
     9  O    0.005047   0.000051   0.325780   0.001940  -0.037364   0.010961
               7          8          9
     1  C   -0.039021  -0.018085   0.005047
     2  H   -0.007283   0.000758   0.000051
     3  H   -0.000125  -0.029857   0.325780
     4  H    0.006238  -0.000826   0.001940
     5  C    0.405624   0.074571  -0.037364
     6  H   -0.025002  -0.019172   0.010961
     7  H    0.541942  -0.011029   0.002257
     8  O   -0.011029   8.133577   0.074777
     9  O    0.002257   0.074777   7.806985
          Atomic-Atomic Spin Densities.
               1          2          3          4          5          6
     1  C    0.568601   0.005382   0.001510   0.006006   0.032153  -0.001429
     2  H    0.005382  -0.025613   0.000016   0.003295   0.000127  -0.000039
     3  H    0.001510   0.000016  -0.003079   0.000071   0.001020   0.000107
     4  H    0.006006   0.003295   0.000071  -0.026766   0.000427   0.000611
     5  C    0.032153   0.000127   0.001020   0.000427  -0.154137   0.001236
     6  H   -0.001429  -0.000039   0.000107   0.000611   0.001236   0.010848
     7  H   -0.001995   0.000666   0.000049  -0.000057   0.001394   0.001360
     8  O   -0.044146  -0.000664  -0.002448  -0.000942  -0.029308  -0.007341
     9  O    0.007242   0.000046   0.001742   0.000218   0.007912   0.002001
               7          8          9
     1  C   -0.001995  -0.044146   0.007242
     2  H    0.000666  -0.000664   0.000046
     3  H    0.000049  -0.002448   0.001742
     4  H   -0.000057  -0.000942   0.000218
     5  C    0.001394  -0.029308   0.007912
     6  H    0.001360  -0.007341   0.002001
     7  H    0.012313  -0.006822   0.000468
     8  O   -0.006822   0.646848  -0.060798
     9  O    0.000468  -0.060798   0.132845
 Mulliken charges and spin densities:
               1          2
     1  C   -0.250365   0.573325
     2  H    0.121842  -0.016784
     3  H    0.232768  -0.001011
     4  H    0.122201  -0.017138
     5  C   -0.091544  -0.139176
     6  H    0.133844   0.007354
     7  H    0.126399   0.007375
     8  O   -0.204712   0.494379
     9  O   -0.190433   0.091676
 Sum of Mulliken charges =  -0.00000   1.00000
 Mulliken charges and spin densities with hydrogens summed into heavy atoms:
               1          2
     1  C   -0.006322   0.539403
     5  C    0.168699  -0.124447
     8  O   -0.204712   0.494379
     9  O    0.042335   0.090665
 APT charges:
               1
     1  C   -0.665721
     2  H    0.433879
     3  H    0.451288
     4  H    0.333659
     5  C   -0.641383
     6  H    0.290441
     7  H    0.384880
     8  O   -0.169296
     9  O   -0.417748
 Sum of APT charges =  -0.00000
 APT charges with hydrogens summed into heavy atoms:
               1
     1  C    0.101818
     5  C    0.033938
     8  O   -0.169296
     9  O    0.033540
 Electronic spatial extent (au):  <R**2>=            330.6336
 Charge=             -0.0000 electrons
 Dipole moment (field-independent basis, Debye):
    X=             -1.0533    Y=              1.4439    Z=             -0.1717  Tot=              1.7955
 Quadrupole moment (field-independent basis, Debye-Ang):
   XX=            -25.1237   YY=            -21.4272   ZZ=            -24.6115
   XY=              2.8987   XZ=             -0.2574   YZ=             -1.0021
 Traceless Quadrupole moment (field-independent basis, Debye-Ang):
   XX=             -1.4029   YY=              2.2936   ZZ=             -0.8907
   XY=              2.8987   XZ=             -0.2574   YZ=             -1.0021
 Octapole moment (field-independent basis, Debye-Ang**2):
  XXX=             13.4857  YYY=              3.0106  ZZZ=             -0.1927  XYY=              5.3833
  XXY=              5.2000  XXZ=             -6.1352  XZZ=              2.6137  YZZ=             -0.0224
  YYZ=             -0.8576  XYZ=             -1.9401
 Hexadecapole moment (field-independent basis, Debye-Ang**3):
 XXXX=           -299.4230 YYYY=            -70.6332 ZZZZ=            -50.0138 XXXY=              9.5823
 XXXZ=              3.1357 YYYX=              9.1594 YYYZ=              1.8009 ZZZX=              1.7266
 ZZZY=              0.0430 XXYY=            -52.6153 XXZZ=            -55.4774 YYZZ=            -21.3935
 XXYZ=             -2.0288 YYXZ=             -1.5767 ZZXY=              1.1006
 N-N= 1.179981092636D+02 E-N=-7.750606169886D+02  KE= 2.281440342438D+02
  Exact polarizability:   0.000   0.000   0.000   0.000   0.000   0.000
 Approx polarizability:  98.919  -7.246  54.798   0.512   1.285  44.284
                          Isotropic Fermi Contact Couplings
        Atom                 a.u.       MegaHertz       Gauss      10(-4) cm-1
     1  C(13)              0.01826      20.52657       7.32439       6.84693
     2  H(1)              -0.00738     -32.99424     -11.77316     -11.00569
     3  H(1)              -0.00189      -8.45718      -3.01773      -2.82101
     4  H(1)              -0.00751     -33.57163     -11.97919     -11.19829
     5  C(13)             -0.01496     -16.81339      -5.99944      -5.60834
     6  H(1)               0.00468      20.92239       7.46563       6.97896
     7  H(1)               0.00445      19.90218       7.10159       6.63865
     8  O(17)              0.02997     -18.17004      -6.48352      -6.06087
     9  O(17)              0.01299      -7.87221      -2.80900      -2.62589
 --------------------------------------------------------
       Center         ----  Spin Dipole Couplings  ----
                      3XX-RR        3YY-RR        3ZZ-RR
 --------------------------------------------------------
     1   Atom        0.351020     -0.296162     -0.054858
     2   Atom        0.012898     -0.040749      0.027851
     3   Atom       -0.003471      0.017437     -0.013965
     4   Atom       -0.009617      0.025754     -0.016137
     5   Atom       -0.091548      0.076000      0.015548
     6   Atom       -0.000775      0.001908     -0.001133
     7   Atom        0.005241      0.002292     -0.007533
     8   Atom        1.173656     -0.614640     -0.559016
     9   Atom        0.414297     -0.222978     -0.191319
 --------------------------------------------------------
                        XY            XZ            YZ
 --------------------------------------------------------
     1   Atom        0.165712     -0.435238     -0.101547
     2   Atom        0.008857      0.018914      0.000091
     3   Atom        0.008308     -0.003636     -0.012186
     4   Atom        0.010413     -0.016820      0.028184
     5   Atom       -0.034615      0.091791      0.001901
     6   Atom       -0.004784     -0.007105     -0.008013
     7   Atom       -0.000329     -0.000567     -0.009456
     8   Atom       -1.155647     -1.195549      0.609017
     9   Atom       -0.219910     -0.294289      0.043604
 --------------------------------------------------------


 ---------------------------------------------------------------------------------
              Anisotropic Spin Dipole Couplings in Principal Axis System
 ---------------------------------------------------------------------------------

       Atom             a.u.   MegaHertz   Gauss  10(-4) cm-1        Axes

              Baa    -0.3374   -45.281   -16.157   -15.104 -0.4268  0.8300 -0.3591
     1 C(13)  Bbb    -0.3301   -44.290   -15.804   -14.773  0.3657  0.5216  0.7708
              Bcc     0.6675    89.571    31.961    29.878  0.8271  0.1977 -0.5261
 
              Baa    -0.0423   -22.573    -8.054    -7.529 -0.1734  0.9838  0.0455
     2 H(1)   Bbb     0.0013     0.681     0.243     0.227  0.8029  0.1680 -0.5720
              Bcc     0.0410    21.892     7.812     7.302  0.5704  0.0627  0.8190
 
              Baa    -0.0182    -9.702    -3.462    -3.236  0.0589  0.3108  0.9486
     3 H(1)   Bbb    -0.0063    -3.386    -1.208    -1.129  0.9498 -0.3100  0.0426
              Bcc     0.0245    13.087     4.670     4.366  0.3073  0.8985 -0.3135
 
              Baa    -0.0422   -22.530    -8.039    -7.515  0.5176 -0.3941  0.7595
     4 H(1)   Bbb     0.0022     1.192     0.425     0.398  0.8547  0.1971 -0.4802
              Bcc     0.0400    21.338     7.614     7.118  0.0396  0.8977  0.4389
 
              Baa    -0.1486   -19.935    -7.113    -6.650  0.8638  0.1373 -0.4848
     5 C(13)  Bbb     0.0577     7.745     2.763     2.583  0.3367  0.5585  0.7581
              Bcc     0.0908    12.190     4.350     4.066 -0.3748  0.8181 -0.4362
 
              Baa    -0.0135    -7.200    -2.569    -2.402  0.5575  0.5128  0.6529
     6 H(1)   Bbb     0.0048     2.566     0.916     0.856  0.8136 -0.4937 -0.3070
              Bcc     0.0087     4.634     1.654     1.546  0.1649  0.7023 -0.6925
 
              Baa    -0.0133    -7.096    -2.532    -2.367  0.0353  0.5188  0.8542
     7 H(1)   Bbb     0.0053     2.809     1.002     0.937  0.9994 -0.0225 -0.0277
              Bcc     0.0080     4.287     1.530     1.430  0.0049  0.8546 -0.5192
 
              Baa    -1.1974    86.641    30.916    28.900  0.0913  0.8004 -0.5925
     8 O(17)  Bbb    -1.1604    83.965    29.961    28.008  0.5728  0.4445  0.6887
              Bcc     2.3578  -170.606   -60.877   -56.908  0.8146 -0.4023 -0.4179
 
              Baa    -0.3399    24.594     8.776     8.204  0.4377  0.5614  0.7023
     9 O(17)  Bbb    -0.2534    18.334     6.542     6.116 -0.0142  0.7853 -0.6190
              Bcc     0.5933   -42.929   -15.318   -14.319  0.8990 -0.2610 -0.3517
 

 ---------------------------------------------------------------------------------

 Calling FoFJK, ICntrl=    100147 FMM=F ISym2X=0 I1Cent= 0 IOpClX= 1 NMat=1 NMatS=1 NMatT=0.
 ***** Axes restored to original set *****
 -------------------------------------------------------------------
 Center     Atomic                   Forces (Hartrees/Bohr)
 Number     Number              X              Y              Z
 -------------------------------------------------------------------
      1        6           0.002070637   -0.001729981    0.000458257
      2        1           0.001395506   -0.000203148    0.002454969
      3        1           0.000248039   -0.003546821    0.002967732
      4        1          -0.000087091   -0.002637349   -0.000989401
      5        6          -0.003373145    0.001095725   -0.000095354
      6        1          -0.000962428    0.000136223   -0.002872162
      7        1           0.000586670    0.002843666    0.000853742
      8        8           0.000243309    0.000612052    0.001202984
      9        8          -0.000121497    0.003429632   -0.003980766
 -------------------------------------------------------------------
 Cartesian Forces:  Max     0.003980766 RMS     0.001975245
 FormGI is forming the generalized inverse of G from B-inverse, IUseBI=4.

 GradGradGradGradGradGradGradGradGradGradGradGradGradGradGradGradGradGrad
 Berny optimization.
 Internal  Forces:  Max     0.005988308 RMS     0.001822842
 Search for a saddle point.
 Step number   1 out of a maximum of   39
 All quantities printed in internal units (Hartrees-Bohrs-Radians)
 Swapping is turned off.
 Second derivative matrix not updated -- analytic derivatives used.
 ITU=  0
     Eigenvalues ---   -0.05906   0.00279   0.01083   0.01917   0.02039
     Eigenvalues ---    0.04354   0.05184   0.08171   0.08533   0.08917
     Eigenvalues ---    0.10511   0.13037   0.14805   0.18342   0.34757
     Eigenvalues ---    0.34938   0.35063   0.35272   0.35683   0.45161
     Eigenvalues ---    0.47806
 Eigenvectors required to have negative eigenvalues:
                          R7        R3        D4        D2        R8
   1                   -0.91527   0.17418   0.15335  -0.14461   0.13305
                          D1        A8        D5        A9        A10
   1                    0.12622   0.12004  -0.11748   0.11609  -0.06647
 RFO step:  Lambda0=4.103590579D-05 Lambda=-2.47944847D-04.
 Linear search not attempted -- option 19 set.
 Iteration  1 RMS(Cart)=  0.00783447 RMS(Int)=  0.00002938
 Iteration  2 RMS(Cart)=  0.00004898 RMS(Int)=  0.00000283
 Iteration  3 RMS(Cart)=  0.00000000 RMS(Int)=  0.00000283
 Variable       Old X    -DE/DX   Delta X   Delta X   Delta X     New X
                                 (Linear)    (Quad)   (Total)
    R1        2.05042  -0.00281   0.00000  -0.00796  -0.00796   2.04245
    R2        2.05140  -0.00280   0.00000  -0.00805  -0.00805   2.04335
    R3        2.60626  -0.00599   0.00000  -0.00777  -0.00777   2.59849
    R4        1.83872  -0.00458   0.00000  -0.00969  -0.00969   1.82903
    R5        2.04957  -0.00302   0.00000  -0.00814  -0.00814   2.04142
    R6        2.05148  -0.00302   0.00000  -0.00833  -0.00833   2.04314
    R7        3.60159   0.00027   0.00000  -0.02910  -0.02910   3.57248
    R8        2.63358  -0.00053   0.00000   0.00045   0.00045   2.63404
    A1        2.04370   0.00040   0.00000   0.00332   0.00332   2.04701
    A2        2.11738  -0.00027   0.00000  -0.00192  -0.00192   2.11546
    A3        2.11640  -0.00013   0.00000  -0.00084  -0.00085   2.11555
    A4        2.09504   0.00002   0.00000  -0.00090  -0.00090   2.09414
    A5        2.08649  -0.00006   0.00000  -0.00121  -0.00121   2.08528
    A6        1.84181  -0.00038   0.00000  -0.00356  -0.00357   1.83824
    A7        2.01216   0.00017   0.00000   0.00052   0.00051   2.01267
    A8        1.64613  -0.00000   0.00000   0.00476   0.00476   1.65090
    A9        1.61258   0.00012   0.00000   0.00279   0.00279   1.61537
   A10        1.90332   0.00175   0.00000   0.01050   0.01050   1.91382
   A11        1.79025   0.00120   0.00000   0.00463   0.00463   1.79488
    D1       -2.96345  -0.00012   0.00000   0.00757   0.00757  -2.95588
    D2       -0.28430   0.00025   0.00000   0.00383   0.00383  -0.28047
    D3        1.49534   0.00013   0.00000   0.00447   0.00447   1.49981
    D4        0.29604  -0.00025   0.00000   0.00156   0.00156   0.29761
    D5        2.97519   0.00011   0.00000  -0.00217  -0.00217   2.97302
    D6       -1.52835  -0.00000   0.00000  -0.00154  -0.00154  -1.52989
    D7        1.51365   0.00001   0.00000  -0.00039  -0.00039   1.51326
    D8       -0.62992   0.00010   0.00000  -0.00027  -0.00026  -0.63019
    D9       -2.64734  -0.00009   0.00000  -0.00147  -0.00148  -2.64882
   D10       -1.85599  -0.00019   0.00000  -0.00763  -0.00763  -1.86362
         Item               Value     Threshold  Converged?
 Maximum Force            0.005988     0.000450     NO 
 RMS     Force            0.001823     0.000300     NO 
 Maximum Displacement     0.023734     0.001800     NO 
 RMS     Displacement     0.007835     0.001200     NO 
 Predicted change in Energy=-1.035551D-04
 GradGradGradGradGradGradGradGradGradGradGradGradGradGradGradGradGradGrad

                          Input orientation:                          
 ---------------------------------------------------------------------
 Center     Atomic      Atomic             Coordinates (Angstroms)
 Number     Number       Type             X           Y           Z
 ---------------------------------------------------------------------
      1          6           0       -1.629708    0.530602   -0.118902
      2          1           0       -2.185409    0.467699   -1.043787
      3          1           0        1.670117    1.151033   -0.292645
      4          1           0       -1.563971    1.500334    0.354906
      5          6           0       -0.927784   -0.548115    0.365312
      6          1           0       -0.523503   -0.523720    1.366789
      7          1           0       -1.130930   -1.534771   -0.027375
      8          8           0        0.760512   -0.466444   -0.481381
      9          8           0        1.614443    0.354078    0.253755
 ---------------------------------------------------------------------
                    Distance matrix (angstroms):
                    1          2          3          4          5
     1  C    0.000000
     2  H    1.080820   0.000000
     3  H    3.362137   3.987009   0.000000
     4  H    1.081293   1.846310   3.316724   0.000000
     5  C    1.375061   2.144542   3.173184   2.144991   0.000000
     6  H    2.131329   3.091232   3.220324   2.490637   1.080275
     7  H    2.126716   2.480908   3.889701   3.089583   1.081185
     8  O    2.615081   3.141238   1.865270   3.157659   1.890477
     9  O    3.270252   4.016889   0.967879   3.380303   2.699873
                    6          7          8          9
     6  H    0.000000
     7  H    1.826167   0.000000
     8  O    2.251157   2.219234   0.000000
     9  O    2.565188   3.344228   1.393872   0.000000
 Stoichiometry    C2H5O2(2)
 Framework group  C1[X(C2H5O2)]
 Deg. of freedom    21
 Full point group                 C1      NOp   1
 Largest Abelian subgroup         C1      NOp   1
 Largest concise Abelian subgroup C1      NOp   1
                         Standard orientation:                         
 ---------------------------------------------------------------------
 Center     Atomic      Atomic             Coordinates (Angstroms)
 Number     Number       Type             X           Y           Z
 ---------------------------------------------------------------------
      1          6           0       -1.625492    0.535263   -0.115726
      2          1           0       -2.181955    0.478982   -1.040579
      3          1           0        1.676417    1.144824   -0.288345
      4          1           0       -1.556027    1.502362    0.362906
      5          6           0       -0.927126   -0.548362    0.362641
      6          1           0       -0.522174   -0.530436    1.363983
      7          1           0       -1.134012   -1.532305   -0.034874
      8          8           0        0.760953   -0.468441   -0.484652
      9          8           0        1.618229    0.345337    0.254079
 ---------------------------------------------------------------------
 Rotational constants (GHZ):          17.6539206           4.4250848           4.0885628
 Standard basis: CC-pVTZ+d (5D, 7F)
 There are   215 symmetry adapted cartesian basis functions of A   symmetry.
 There are   190 symmetry adapted basis functions of A   symmetry.
   190 basis functions,   293 primitive gaussians,   215 cartesian basis functions
    17 alpha electrons       16 beta electrons
       nuclear repulsion energy       118.3937577739 Hartrees.
 NAtoms=    9 NActive=    9 NUniq=    9 SFac= 1.00D+00 NAtFMM=   60 NAOKFM=F Big=F
 Integral buffers will be    131072 words long.
 Raffenetti 2 integral format.
 Two-electron integral symmetry is turned on.
 One-electron integrals computed using PRISM.
 NBasis=   190 RedAO= T EigKep=  6.38D-04  NBF=   190
 NBsUse=   190 1.00D-06 EigRej= -1.00D+00 NBFU=   190
 Initial guess from the checkpoint file:  "QOOHet-OOH-Elimination-TS3a-B3LYP-A.chk"
 B after Tr=    -0.000000    0.000000    0.000000
         Rot=    0.999996   -0.002148   -0.000501    0.001520 Ang=  -0.31 deg.
 Initial guess <Sx>= 0.0000 <Sy>= 0.0000 <Sz>= 0.5000 <S**2>= 0.7799 S= 0.5149
 ExpMin= 1.03D-01 ExpMax= 1.53D+04 ExpMxC= 5.22D+02 IAcc=3 IRadAn=         5 AccDes= 0.00D+00
 Harris functional with IExCor=  402 and IRadAn=       5 diagonalized for initial guess.
 HarFok:  IExCor=  402 AccDes= 0.00D+00 IRadAn=         5 IDoV= 1 UseB2=F ITyADJ=14
 ICtDFT=  3500011 ScaDFX=  1.000000  1.000000  1.000000  1.000000
 FoFCou: FMM=F IPFlag=           0 FMFlag=      100000 FMFlg1=           0
         NFxFlg=           0 DoJE=T BraDBF=F KetDBF=T FulRan=T
         wScrn=  0.000000 ICntrl=       500 IOpCl=  0 I1Cent=   200000004 NGrid=           0
         NMat0=    1 NMatS0=      1 NMatT0=    0 NMatD0=    1 NMtDS0=    0 NMtDT0=    0
 Petite list used in FoFCou.
 Keep R1 and R2 ints in memory in canonical form, NReq=354287669.
 Requested convergence on RMS density matrix=1.00D-08 within 128 cycles.
 Requested convergence on MAX density matrix=1.00D-06.
 Requested convergence on             energy=1.00D-06.
 No special actions if energy rises.
 Integral accuracy reduced to 1.0D-05 until final iterations.
 Initial convergence to 1.0D-05 achieved.  Increase integral accuracy.
 SCF Done:  E(UB3LYP) =  -229.574052130     A.U. after   13 cycles
            NFock= 13  Conv=0.60D-08     -V/T= 2.0060
 <Sx>= 0.0000 <Sy>= 0.0000 <Sz>= 0.5000 <S**2>= 0.7791 S= 0.5145
 <L.S>= 0.000000000000E+00
 Annihilation of the first spin contaminant:
 S**2 before annihilation     0.7791,   after     0.7502
 Calling FoFJK, ICntrl=      2127 FMM=F ISym2X=0 I1Cent= 0 IOpClX= 1 NMat=1 NMatS=1 NMatT=0.
 ***** Axes restored to original set *****
 -------------------------------------------------------------------
 Center     Atomic                   Forces (Hartrees/Bohr)
 Number     Number              X              Y              Z
 -------------------------------------------------------------------
      1        6          -0.000032631    0.000024963   -0.000006983
      2        1          -0.000018395   -0.000000527   -0.000025906
      3        1           0.000003982    0.000068891   -0.000046784
      4        1           0.000002236    0.000029609    0.000013333
      5        6           0.000030829   -0.000005378    0.000010397
      6        1           0.000004871   -0.000002313    0.000037651
      7        1          -0.000005845   -0.000033876   -0.000013217
      8        8           0.000027723   -0.000012982   -0.000023824
      9        8          -0.000012771   -0.000068387    0.000055333
 -------------------------------------------------------------------
 Cartesian Forces:  Max     0.000068891 RMS     0.000029847

 GradGradGradGradGradGradGradGradGradGradGradGradGradGradGradGradGradGrad
 Berny optimization.
 FormGI is forming the generalized inverse of G from B-inverse, IUseBI=4.
 Internal  Forces:  Max     0.000083565 RMS     0.000025928
 Search for a saddle point.
 Step number   2 out of a maximum of   39
 All quantities printed in internal units (Hartrees-Bohrs-Radians)
 Swapping is turned off.
 Update second derivatives using D2CorX and points    1    2
 ITU=  0  0
     Eigenvalues ---   -0.05958   0.00279   0.01080   0.01917   0.02033
     Eigenvalues ---    0.04352   0.05193   0.08171   0.08534   0.08922
     Eigenvalues ---    0.10510   0.13039   0.14842   0.18339   0.34764
     Eigenvalues ---    0.34940   0.35137   0.35276   0.35689   0.45301
     Eigenvalues ---    0.47954
 Eigenvectors required to have negative eigenvalues:
                          R7        R3        D4        D2        R8
   1                   -0.91496   0.17516   0.15372  -0.14323   0.13280
                          D1        A8        D5        A9        A10
   1                    0.12817   0.12043  -0.11768   0.11548  -0.06682
 RFO step:  Lambda0=3.045869321D-10 Lambda=-5.98822789D-08.
 Linear search not attempted -- option 19 set.
 Iteration  1 RMS(Cart)=  0.00017874 RMS(Int)=  0.00000002
 Iteration  2 RMS(Cart)=  0.00000002 RMS(Int)=  0.00000001
 Variable       Old X    -DE/DX   Delta X   Delta X   Delta X     New X
                                 (Linear)    (Quad)   (Total)
    R1        2.04245   0.00003   0.00000   0.00009   0.00009   2.04254
    R2        2.04335   0.00003   0.00000   0.00009   0.00009   2.04344
    R3        2.59849   0.00007   0.00000   0.00017   0.00017   2.59866
    R4        1.82903   0.00008   0.00000   0.00017   0.00017   1.82920
    R5        2.04142   0.00004   0.00000   0.00010   0.00010   2.04152
    R6        2.04314   0.00004   0.00000   0.00010   0.00010   2.04325
    R7        3.57248   0.00002   0.00000   0.00008   0.00008   3.57256
    R8        2.63404  -0.00000   0.00000  -0.00000  -0.00000   2.63404
    A1        2.04701  -0.00000   0.00000  -0.00000  -0.00000   2.04701
    A2        2.11546   0.00000   0.00000   0.00001   0.00001   2.11547
    A3        2.11555   0.00000   0.00000  -0.00000  -0.00000   2.11555
    A4        2.09414  -0.00000   0.00000  -0.00005  -0.00005   2.09409
    A5        2.08528  -0.00000   0.00000  -0.00006  -0.00006   2.08523
    A6        1.83824   0.00002   0.00000   0.00027   0.00027   1.83851
    A7        2.01267  -0.00000   0.00000  -0.00003  -0.00003   2.01264
    A8        1.65090  -0.00000   0.00000   0.00005   0.00005   1.65095
    A9        1.61537  -0.00001   0.00000  -0.00004  -0.00004   1.61533
   A10        1.91382  -0.00003   0.00000  -0.00020  -0.00020   1.91361
   A11        1.79488  -0.00000   0.00000   0.00001   0.00001   1.79489
    D1       -2.95588   0.00001   0.00000   0.00022   0.00022  -2.95566
    D2       -0.28047  -0.00000   0.00000  -0.00010  -0.00010  -0.28057
    D3        1.49981  -0.00000   0.00000  -0.00000  -0.00000   1.49981
    D4        0.29761   0.00001   0.00000   0.00024   0.00024   0.29784
    D5        2.97302  -0.00000   0.00000  -0.00009  -0.00009   2.97293
    D6       -1.52989  -0.00000   0.00000   0.00001   0.00001  -1.52988
    D7        1.51326   0.00000   0.00000   0.00003   0.00003   1.51328
    D8       -0.63019  -0.00000   0.00000  -0.00001  -0.00001  -0.63020
    D9       -2.64882   0.00000   0.00000   0.00001   0.00001  -2.64880
   D10       -1.86362   0.00000   0.00000   0.00012   0.00012  -1.86350
         Item               Value     Threshold  Converged?
 Maximum Force            0.000084     0.000450     YES
 RMS     Force            0.000026     0.000300     YES
 Maximum Displacement     0.000491     0.001800     YES
 RMS     Displacement     0.000179     0.001200     YES
 Predicted change in Energy=-2.978885D-08
 Optimization completed.
    -- Stationary point found.
                           ----------------------------
                           !   Optimized Parameters   !
                           ! (Angstroms and Degrees)  !
 --------------------------                            --------------------------
 ! Name  Definition              Value          Derivative Info.                !
 --------------------------------------------------------------------------------
 ! R1    R(1,2)                  1.0808         -DE/DX =    0.0                 !
 ! R2    R(1,4)                  1.0813         -DE/DX =    0.0                 !
 ! R3    R(1,5)                  1.3751         -DE/DX =    0.0001              !
 ! R4    R(3,9)                  0.9679         -DE/DX =    0.0001              !
 ! R5    R(5,6)                  1.0803         -DE/DX =    0.0                 !
 ! R6    R(5,7)                  1.0812         -DE/DX =    0.0                 !
 ! R7    R(5,8)                  1.8905         -DE/DX =    0.0                 !
 ! R8    R(8,9)                  1.3939         -DE/DX =    0.0                 !
 ! A1    A(2,1,4)              117.2852         -DE/DX =    0.0                 !
 ! A2    A(2,1,5)              121.2072         -DE/DX =    0.0                 !
 ! A3    A(4,1,5)              121.2123         -DE/DX =    0.0                 !
 ! A4    A(1,5,6)              119.9851         -DE/DX =    0.0                 !
 ! A5    A(1,5,7)              119.4779         -DE/DX =    0.0                 !
 ! A6    A(1,5,8)              105.3236         -DE/DX =    0.0                 !
 ! A7    A(6,5,7)              115.3174         -DE/DX =    0.0                 !
 ! A8    A(6,5,8)               94.5893         -DE/DX =    0.0                 !
 ! A9    A(7,5,8)               92.5536         -DE/DX =    0.0                 !
 ! A10   A(5,8,9)              109.6536         -DE/DX =    0.0                 !
 ! A11   A(3,9,8)              102.8388         -DE/DX =    0.0                 !
 ! D1    D(2,1,5,6)           -169.3596         -DE/DX =    0.0                 !
 ! D2    D(2,1,5,7)            -16.0699         -DE/DX =    0.0                 !
 ! D3    D(2,1,5,8)             85.9327         -DE/DX =    0.0                 !
 ! D4    D(4,1,5,6)             17.0516         -DE/DX =    0.0                 !
 ! D5    D(4,1,5,7)            170.3413         -DE/DX =    0.0                 !
 ! D6    D(4,1,5,8)            -87.6562         -DE/DX =    0.0                 !
 ! D7    D(1,5,8,9)             86.7032         -DE/DX =    0.0                 !
 ! D8    D(6,5,8,9)            -36.1071         -DE/DX =    0.0                 !
 ! D9    D(7,5,8,9)           -151.7661         -DE/DX =    0.0                 !
 ! D10   D(5,8,9,3)           -106.7776         -DE/DX =    0.0                 !
 --------------------------------------------------------------------------------
 GradGradGradGradGradGradGradGradGradGradGradGradGradGradGradGradGradGrad

                          Input orientation:                          
 ---------------------------------------------------------------------
 Center     Atomic      Atomic             Coordinates (Angstroms)
 Number     Number       Type             X           Y           Z
 ---------------------------------------------------------------------
      1          6           0       -1.629708    0.530602   -0.118902
      2          1           0       -2.185409    0.467699   -1.043787
      3          1           0        1.670117    1.151033   -0.292645
      4          1           0       -1.563971    1.500334    0.354906
      5          6           0       -0.927784   -0.548115    0.365312
      6          1           0       -0.523503   -0.523720    1.366789
      7          1           0       -1.130930   -1.534771   -0.027375
      8          8           0        0.760512   -0.466444   -0.481381
      9          8           0        1.614443    0.354078    0.253755
 ---------------------------------------------------------------------
                    Distance matrix (angstroms):
                    1          2          3          4          5
     1  C    0.000000
     2  H    1.080820   0.000000
     3  H    3.362137   3.987009   0.000000
     4  H    1.081293   1.846310   3.316724   0.000000
     5  C    1.375061   2.144542   3.173184   2.144991   0.000000
     6  H    2.131329   3.091232   3.220324   2.490637   1.080275
     7  H    2.126716   2.480908   3.889701   3.089583   1.081185
     8  O    2.615081   3.141238   1.865270   3.157659   1.890477
     9  O    3.270252   4.016889   0.967879   3.380303   2.699873
                    6          7          8          9
     6  H    0.000000
     7  H    1.826167   0.000000
     8  O    2.251157   2.219234   0.000000
     9  O    2.565188   3.344228   1.393872   0.000000
 Stoichiometry    C2H5O2(2)
 Framework group  C1[X(C2H5O2)]
 Deg. of freedom    21
 Full point group                 C1      NOp   1
 Largest Abelian subgroup         C1      NOp   1
 Largest concise Abelian subgroup C1      NOp   1
                         Standard orientation:                         
 ---------------------------------------------------------------------
 Center     Atomic      Atomic             Coordinates (Angstroms)
 Number     Number       Type             X           Y           Z
 ---------------------------------------------------------------------
      1          6           0       -1.625492    0.535263   -0.115726
      2          1           0       -2.181955    0.478982   -1.040579
      3          1           0        1.676417    1.144824   -0.288345
      4          1           0       -1.556027    1.502362    0.362906
      5          6           0       -0.927126   -0.548362    0.362641
      6          1           0       -0.522174   -0.530436    1.363983
      7          1           0       -1.134012   -1.532305   -0.034874
      8          8           0        0.760953   -0.468441   -0.484652
      9          8           0        1.618229    0.345337    0.254079
 ---------------------------------------------------------------------
 Rotational constants (GHZ):          17.6539206           4.4250848           4.0885628

 **********************************************************************

            Population analysis using the SCF Density.

 **********************************************************************

 Orbital symmetries:
 Alpha Orbitals:
       Occupied  (A) (A) (A) (A) (A) (A) (A) (A) (A) (A) (A) (A)
                 (A) (A) (A) (A) (A)
       Virtual   (A) (A) (A) (A) (A) (A) (A) (A) (A) (A) (A) (A)
                 (A) (A) (A) (A) (A) (A) (A) (A) (A) (A) (A) (A)
                 (A) (A) (A) (A) (A) (A) (A) (A) (A) (A) (A) (A)
                 (A) (A) (A) (A) (A) (A) (A) (A) (A) (A) (A) (A)
                 (A) (A) (A) (A) (A) (A) (A) (A) (A) (A) (A) (A)
                 (A) (A) (A) (A) (A) (A) (A) (A) (A) (A) (A) (A)
                 (A) (A) (A) (A) (A) (A) (A) (A) (A) (A) (A) (A)
                 (A) (A) (A) (A) (A) (A) (A) (A) (A) (A) (A) (A)
                 (A) (A) (A) (A) (A) (A) (A) (A) (A) (A) (A) (A)
                 (A) (A) (A) (A) (A) (A) (A) (A) (A) (A) (A) (A)
                 (A) (A) (A) (A) (A) (A) (A) (A) (A) (A) (A) (A)
                 (A) (A) (A) (A) (A) (A) (A) (A) (A) (A) (A) (A)
                 (A) (A) (A) (A) (A) (A) (A) (A) (A) (A) (A) (A)
                 (A) (A) (A) (A) (A) (A) (A) (A) (A) (A) (A) (A)
                 (A) (A) (A) (A) (A)
 Beta  Orbitals:
       Occupied  (A) (A) (A) (A) (A) (A) (A) (A) (A) (A) (A) (A)
                 (A) (A) (A) (A)
       Virtual   (A) (A) (A) (A) (A) (A) (A) (A) (A) (A) (A) (A)
                 (A) (A) (A) (A) (A) (A) (A) (A) (A) (A) (A) (A)
                 (A) (A) (A) (A) (A) (A) (A) (A) (A) (A) (A) (A)
                 (A) (A) (A) (A) (A) (A) (A) (A) (A) (A) (A) (A)
                 (A) (A) (A) (A) (A) (A) (A) (A) (A) (A) (A) (A)
                 (A) (A) (A) (A) (A) (A) (A) (A) (A) (A) (A) (A)
                 (A) (A) (A) (A) (A) (A) (A) (A) (A) (A) (A) (A)
                 (A) (A) (A) (A) (A) (A) (A) (A) (A) (A) (A) (A)
                 (A) (A) (A) (A) (A) (A) (A) (A) (A) (A) (A) (A)
                 (A) (A) (A) (A) (A) (A) (A) (A) (A) (A) (A) (A)
                 (A) (A) (A) (A) (A) (A) (A) (A) (A) (A) (A) (A)
                 (A) (A) (A) (A) (A) (A) (A) (A) (A) (A) (A) (A)
                 (A) (A) (A) (A) (A) (A) (A) (A) (A) (A) (A) (A)
                 (A) (A) (A) (A) (A) (A) (A) (A) (A) (A) (A) (A)
                 (A) (A) (A) (A) (A) (A)
 The electronic state is 2-A.
 Alpha  occ. eigenvalues --  -19.19455 -19.18776 -10.20873 -10.19138  -1.12876
 Alpha  occ. eigenvalues --   -0.86249  -0.77379  -0.60613  -0.52688  -0.48477
 Alpha  occ. eigenvalues --   -0.45423  -0.44133  -0.42652  -0.37376  -0.30578
 Alpha  occ. eigenvalues --   -0.28369  -0.23659
 Alpha virt. eigenvalues --    0.00724   0.03454   0.05265   0.08047   0.08253
 Alpha virt. eigenvalues --    0.09674   0.14111   0.22993   0.24566   0.27720
 Alpha virt. eigenvalues --    0.28600   0.32846   0.36073   0.39780   0.42700
 Alpha virt. eigenvalues --    0.43835   0.44038   0.46082   0.49723   0.50526
 Alpha virt. eigenvalues --    0.52935   0.54672   0.58815   0.60974   0.62485
 Alpha virt. eigenvalues --    0.64433   0.68126   0.69510   0.71480   0.74356
 Alpha virt. eigenvalues --    0.80937   0.83493   0.88192   0.91143   0.96964
 Alpha virt. eigenvalues --    0.98101   1.01286   1.03583   1.06836   1.07684
 Alpha virt. eigenvalues --    1.10068   1.11087   1.21622   1.23359   1.25708
 Alpha virt. eigenvalues --    1.26756   1.27833   1.34107   1.37367   1.40535
 Alpha virt. eigenvalues --    1.42622   1.46487   1.50559   1.52159   1.53835
 Alpha virt. eigenvalues --    1.63583   1.65642   1.69158   1.80742   1.87563
 Alpha virt. eigenvalues --    1.93779   2.02538   2.07759   2.12507   2.19954
 Alpha virt. eigenvalues --    2.23087   2.28410   2.31601   2.40942   2.45102
 Alpha virt. eigenvalues --    2.47553   2.49541   2.55458   2.58255   2.72237
 Alpha virt. eigenvalues --    2.74198   2.75960   2.76822   2.77913   2.83622
 Alpha virt. eigenvalues --    2.87806   2.90815   2.90926   2.95200   3.02544
 Alpha virt. eigenvalues --    3.05819   3.08363   3.10156   3.15722   3.21776
 Alpha virt. eigenvalues --    3.23156   3.24521   3.25916   3.30392   3.32519
 Alpha virt. eigenvalues --    3.35005   3.40646   3.43156   3.44489   3.49827
 Alpha virt. eigenvalues --    3.58841   3.59916   3.63825   3.67258   3.69322
 Alpha virt. eigenvalues --    3.70012   3.72975   3.77353   3.79910   3.82799
 Alpha virt. eigenvalues --    3.85279   3.90135   3.93020   3.96038   3.97025
 Alpha virt. eigenvalues --    3.98405   4.03725   4.03980   4.09630   4.12833
 Alpha virt. eigenvalues --    4.18116   4.21666   4.22864   4.34912   4.38261
 Alpha virt. eigenvalues --    4.45316   4.52293   4.57945   4.61485   4.67587
 Alpha virt. eigenvalues --    4.73609   4.77226   4.84095   4.84848   4.89742
 Alpha virt. eigenvalues --    4.93782   4.97355   4.98853   5.02972   5.07515
 Alpha virt. eigenvalues --    5.12895   5.14496   5.21024   5.24093   5.28075
 Alpha virt. eigenvalues --    5.33264   5.39805   5.42566   5.58294   5.81023
 Alpha virt. eigenvalues --    5.86295   5.89774   5.92346   6.00435   6.21183
 Alpha virt. eigenvalues --    6.25912   6.31840   6.33023   6.38716   6.45609
 Alpha virt. eigenvalues --    6.54358   6.57610   6.64151   6.66440   6.81276
 Alpha virt. eigenvalues --    7.03565   7.13111   7.29885   7.51984   9.26847
 Alpha virt. eigenvalues --   10.99432  11.25483  13.61166
  Beta  occ. eigenvalues --  -19.19177 -19.17286 -10.21110 -10.18321  -1.11306
  Beta  occ. eigenvalues --   -0.83902  -0.76013  -0.59729  -0.52001  -0.48025
  Beta  occ. eigenvalues --   -0.44529  -0.42386  -0.40020  -0.37023  -0.27916
  Beta  occ. eigenvalues --   -0.26319
  Beta virt. eigenvalues --   -0.11287   0.02010   0.04338   0.05633   0.08304
  Beta virt. eigenvalues --    0.08426   0.10467   0.14147   0.23078   0.24760
  Beta virt. eigenvalues --    0.28067   0.29064   0.34856   0.37479   0.40052
  Beta virt. eigenvalues --    0.42863   0.44024   0.44397   0.46791   0.49949
  Beta virt. eigenvalues --    0.50919   0.53398   0.55272   0.59198   0.61649
  Beta virt. eigenvalues --    0.62964   0.64904   0.68737   0.69857   0.72463
  Beta virt. eigenvalues --    0.74883   0.81699   0.84000   0.88490   0.91446
  Beta virt. eigenvalues --    0.97615   0.98333   1.01601   1.03775   1.07306
  Beta virt. eigenvalues --    1.08308   1.10427   1.11985   1.22174   1.23801
  Beta virt. eigenvalues --    1.26104   1.26904   1.28499   1.34544   1.37805
  Beta virt. eigenvalues --    1.41516   1.43130   1.46824   1.50934   1.52733
  Beta virt. eigenvalues --    1.54851   1.64372   1.66517   1.69769   1.81579
  Beta virt. eigenvalues --    1.87949   1.94302   2.03969   2.10602   2.13346
  Beta virt. eigenvalues --    2.20388   2.24378   2.29148   2.31940   2.41111
  Beta virt. eigenvalues --    2.46481   2.48360   2.50356   2.55797   2.58619
  Beta virt. eigenvalues --    2.73160   2.74846   2.76409   2.76853   2.79259
  Beta virt. eigenvalues --    2.84554   2.88951   2.91469   2.92409   2.96932
  Beta virt. eigenvalues --    3.02723   3.07279   3.08602   3.11415   3.16322
  Beta virt. eigenvalues --    3.22003   3.23478   3.24720   3.26229   3.30796
  Beta virt. eigenvalues --    3.32631   3.35158   3.41141   3.43586   3.45280
  Beta virt. eigenvalues --    3.50280   3.59130   3.60198   3.64173   3.68007
  Beta virt. eigenvalues --    3.69440   3.70254   3.73212   3.77656   3.80600
  Beta virt. eigenvalues --    3.83162   3.85714   3.90991   3.93209   3.96208
  Beta virt. eigenvalues --    3.97396   3.98834   4.03967   4.04316   4.10227
  Beta virt. eigenvalues --    4.12980   4.18825   4.22637   4.23056   4.35291
  Beta virt. eigenvalues --    4.39117   4.46032   4.52704   4.58335   4.61959
  Beta virt. eigenvalues --    4.67856   4.73964   4.78414   4.84614   4.85525
  Beta virt. eigenvalues --    4.90793   4.94710   4.98242   4.99724   5.04028
  Beta virt. eigenvalues --    5.08055   5.13197   5.14852   5.23164   5.25989
  Beta virt. eigenvalues --    5.29428   5.34694   5.42189   5.42876   5.59615
  Beta virt. eigenvalues --    5.81279   5.86525   5.89965   5.92931   6.02542
  Beta virt. eigenvalues --    6.21379   6.27281   6.33352   6.34298   6.40997
  Beta virt. eigenvalues --    6.49469   6.55743   6.59073   6.65322   6.68829
  Beta virt. eigenvalues --    6.82144   7.06354   7.13572   7.30783   7.52988
  Beta virt. eigenvalues --    9.28466  10.99985  11.25915  13.61669
          Condensed to atoms (all electrons):
               1          2          3          4          5          6
     1  C    5.054295   0.409362   0.000893   0.408636   0.480352  -0.047458
     2  H    0.409362   0.541910   0.000065  -0.035438  -0.037972   0.005926
     3  H    0.000893   0.000065   0.472687  -0.000048  -0.000641  -0.000965
     4  H    0.408636  -0.035438  -0.000048   0.544986  -0.042317  -0.006631
     5  C    0.480352  -0.037972  -0.000641  -0.042317   4.828189   0.414371
     6  H   -0.047458   0.005926  -0.000965  -0.006631   0.414371   0.534070
     7  H   -0.039483  -0.007346  -0.000130   0.006301   0.406520  -0.024708
     8  O   -0.019369   0.000809  -0.029370  -0.000859   0.077566  -0.019737
     9  O    0.005363   0.000051   0.327296   0.002007  -0.037292   0.010976
               7          8          9
     1  C   -0.039483  -0.019369   0.005363
     2  H   -0.007346   0.000809   0.000051
     3  H   -0.000130  -0.029370   0.327296
     4  H    0.006301  -0.000859   0.002007
     5  C    0.406520   0.077566  -0.037292
     6  H   -0.024708  -0.019737   0.010976
     7  H    0.541097  -0.011482   0.002302
     8  O   -0.011482   8.134033   0.074035
     9  O    0.002302   0.074035   7.805568
          Atomic-Atomic Spin Densities.
               1          2          3          4          5          6
     1  C    0.579442   0.005585   0.001518   0.006236   0.032798  -0.001449
     2  H    0.005585  -0.026044   0.000016   0.003363   0.000107  -0.000040
     3  H    0.001518   0.000016  -0.002948   0.000068   0.001030   0.000105
     4  H    0.006236   0.003363   0.000068  -0.027187   0.000446   0.000632
     5  C    0.032798   0.000107   0.001030   0.000446  -0.149898   0.001202
     6  H   -0.001449  -0.000040   0.000105   0.000632   0.001202   0.011093
     7  H   -0.001961   0.000698   0.000048  -0.000068   0.001250   0.001499
     8  O   -0.046180  -0.000694  -0.002476  -0.000948  -0.029213  -0.007608
     9  O    0.007458   0.000048   0.001761   0.000212   0.007676   0.002026
               7          8          9
     1  C   -0.001961  -0.046180   0.007458
     2  H    0.000698  -0.000694   0.000048
     3  H    0.000048  -0.002476   0.001761
     4  H   -0.000068  -0.000948   0.000212
     5  C    0.001250  -0.029213   0.007676
     6  H    0.001499  -0.007608   0.002026
     7  H    0.012042  -0.006872   0.000471
     8  O   -0.006872   0.636731  -0.059267
     9  O    0.000471  -0.059267   0.127822
 Mulliken charges and spin densities:
               1          2
     1  C   -0.252590   0.583448
     2  H    0.122633  -0.016962
     3  H    0.230212  -0.000879
     4  H    0.123365  -0.017248
     5  C   -0.088776  -0.134602
     6  H    0.134156   0.007460
     7  H    0.126929   0.007107
     8  O   -0.205625   0.483472
     9  O   -0.190305   0.088206
 Sum of Mulliken charges =  -0.00000   1.00000
 Mulliken charges and spin densities with hydrogens summed into heavy atoms:
               1          2
     1  C   -0.006591   0.549237
     5  C    0.172310  -0.120036
     8  O   -0.205625   0.483472
     9  O    0.039907   0.087327
 Electronic spatial extent (au):  <R**2>=            328.6391
 Charge=             -0.0000 electrons
 Dipole moment (field-independent basis, Debye):
    X=             -1.0645    Y=              1.4282    Z=             -0.1638  Tot=              1.7887
 Quadrupole moment (field-independent basis, Debye-Ang):
   XX=            -25.0514   YY=            -21.4456   ZZ=            -24.5962
   XY=              2.9319   XZ=             -0.2865   YZ=             -0.9908
 Traceless Quadrupole moment (field-independent basis, Debye-Ang):
   XX=             -1.3537   YY=              2.2521   ZZ=             -0.8984
   XY=              2.9319   XZ=             -0.2865   YZ=             -0.9908
 Octapole moment (field-independent basis, Debye-Ang**2):
  XXX=             13.4196  YYY=              2.9350  ZZZ=             -0.1796  XYY=              5.3525
  XXY=              5.1979  XXZ=             -6.0892  XZZ=              2.5585  YZZ=             -0.0338
  YYZ=             -0.8277  XYZ=             -1.9330
 Hexadecapole moment (field-independent basis, Debye-Ang**3):
 XXXX=           -296.8147 YYYY=            -70.4470 ZZZZ=            -49.6402 XXXY=              9.9398
 XXXZ=              2.9321 YYYX=              9.1217 YYYZ=              1.7995 ZZZX=              1.6544
 ZZZY=              0.0149 XXYY=            -52.1841 XXZZ=            -55.0526 YYZZ=            -21.2378
 XXYZ=             -2.0385 YYXZ=             -1.5429 ZZXY=              1.1088
 N-N= 1.183937577739D+02 E-N=-7.758865309159D+02  KE= 2.281936998720D+02
                          Isotropic Fermi Contact Couplings
        Atom                 a.u.       MegaHertz       Gauss      10(-4) cm-1
     1  C(13)              0.01792      20.14013       7.18650       6.71803
     2  H(1)              -0.00751     -33.56482     -11.97676     -11.19602
     3  H(1)              -0.00183      -8.18142      -2.91934      -2.72903
     4  H(1)              -0.00764     -34.13000     -12.17843     -11.38454
     5  C(13)             -0.01480     -16.63588      -5.93610      -5.54913
     6  H(1)               0.00480      21.47050       7.66121       7.16179
     7  H(1)               0.00434      19.40276       6.92339       6.47206
     8  O(17)              0.03166     -19.19325      -6.84863      -6.40218
     9  O(17)              0.01222      -7.40982      -2.64401      -2.47165
 --------------------------------------------------------
       Center         ----  Spin Dipole Couplings  ----
                      3XX-RR        3YY-RR        3ZZ-RR
 --------------------------------------------------------
     1   Atom        0.359783     -0.302414     -0.057370
     2   Atom        0.013405     -0.041889      0.028484
     3   Atom       -0.002713      0.016708     -0.013994
     4   Atom       -0.009742      0.025890     -0.016147
     5   Atom       -0.089874      0.074872      0.015002
     6   Atom       -0.000946      0.001902     -0.000956
     7   Atom        0.004977      0.002854     -0.007832
     8   Atom        1.120769     -0.577054     -0.543716
     9   Atom        0.403132     -0.214863     -0.188270
 --------------------------------------------------------
                        XY            XZ            YZ
 --------------------------------------------------------
     1   Atom        0.167738     -0.443087     -0.102552
     2   Atom        0.008920      0.019340     -0.000258
     3   Atom        0.008465     -0.003732     -0.011829
     4   Atom        0.010998     -0.017156      0.029210
     5   Atom       -0.033253      0.089018      0.000627
     6   Atom       -0.004830     -0.006810     -0.008205
     7   Atom       -0.000469     -0.000688     -0.009286
     8   Atom       -1.152368     -1.170913      0.615161
     9   Atom       -0.217143     -0.282971      0.041029
 --------------------------------------------------------


 ---------------------------------------------------------------------------------
              Anisotropic Spin Dipole Couplings in Principal Axis System
 ---------------------------------------------------------------------------------

       Atom             a.u.   MegaHertz   Gauss  10(-4) cm-1        Axes

              Baa    -0.3437   -46.124   -16.458   -15.385 -0.4222  0.8344 -0.3544
     1 C(13)  Bbb    -0.3365   -45.160   -16.114   -15.064  0.3684  0.5151  0.7739
              Bcc     0.6803    91.284    32.572    30.449  0.8283  0.1962 -0.5248
 
              Baa    -0.0435   -23.185    -8.273    -7.734 -0.1712  0.9840  0.0496
     2 H(1)   Bbb     0.0015     0.785     0.280     0.262  0.8022  0.1684 -0.5727
              Bcc     0.0420    22.400     7.993     7.472  0.5719  0.0583  0.8182
 
              Baa    -0.0181    -9.643    -3.441    -3.216  0.0609  0.3081  0.9494
     3 H(1)   Bbb    -0.0059    -3.124    -1.115    -1.042  0.9430 -0.3295  0.0464
              Bcc     0.0239    12.766     4.555     4.258  0.3271  0.8925 -0.3106
 
              Baa    -0.0434   -23.139    -8.257    -7.718  0.5170 -0.4011  0.7562
     4 H(1)   Bbb     0.0024     1.293     0.462     0.431  0.8549  0.1969 -0.4800
              Bcc     0.0409    21.845     7.795     7.287  0.0436  0.8946  0.4446
 
              Baa    -0.1447   -19.411    -6.926    -6.475  0.8655  0.1325 -0.4831
     5 C(13)  Bbb     0.0553     7.415     2.646     2.473  0.3402  0.5524  0.7610
              Bcc     0.0894    11.996     4.281     4.002 -0.3677  0.8230 -0.4330
 
              Baa    -0.0134    -7.158    -2.554    -2.388  0.5556  0.5219  0.6473
     6 H(1)   Bbb     0.0045     2.418     0.863     0.807  0.8229 -0.4569 -0.3378
              Bcc     0.0089     4.740     1.691     1.581  0.1194  0.7203 -0.6833
 
              Baa    -0.0132    -7.064    -2.521    -2.356  0.0455  0.5002  0.8647
     7 H(1)   Bbb     0.0050     2.675     0.955     0.892  0.9988 -0.0063 -0.0489
              Bcc     0.0082     4.389     1.566     1.464 -0.0190  0.8659 -0.4999
 
              Baa    -1.1766    85.135    30.378    28.398  0.0854  0.7888 -0.6087
     8 O(17)  Bbb    -1.1384    82.377    29.394    27.478  0.5817  0.4565  0.6732
              Bcc     2.3150  -167.512   -59.772   -55.876  0.8089 -0.4116 -0.4199
 
              Baa    -0.3317    24.001     8.564     8.006  0.4366  0.5658  0.6995
     9 O(17)  Bbb    -0.2446    17.699     6.315     5.904 -0.0111  0.7808 -0.6246
              Bcc     0.5763   -41.699   -14.879   -13.909  0.8996 -0.2649 -0.3472
 

 ---------------------------------------------------------------------------------

 1\1\GINC-CNODE0936\FTS\UB3LYP\CC-pVTZ+d\C2H5O2(2)\KOTUKILE\28-Feb-2022
 \0\\# opt=(calcfc,ts,noeigentest) freq ub3lyp cc-pvtz+d\\QOOHet-OOH-El
 imination-TS3a-B3LYP-A\\0,2\C,-1.6297080872,0.5306023305,-0.1189017585
 \H,-2.1854086434,0.4676990889,-1.0437867446\H,1.6701169092,1.151033201
 9,-0.2926447959\H,-1.5639709117,1.5003337182,0.3549063474\C,-0.9277835
 691,-0.5481149479,0.3653120616\H,-0.5235030209,-0.5237201512,1.3667887
 892\H,-1.1309302765,-1.5347709004,-0.0273752976\O,0.7605123861,-0.4664
 436614,-0.4813813474\O,1.6144432134,0.3540783215,0.2537547459\\Version
 =ES64L-G16RevB.01\State=2-A\HF=-229.5740521\S2=0.779149\S2-1=0.\S2A=0.
 750153\RMSD=6.022e-09\RMSF=2.985e-05\Dipole=-0.4207433,0.5600559,-0.06
 75091\Quadrupole=-1.0216412,1.6824045,-0.6607633,2.1695965,-0.2215129,
 -0.7478716\PG=C01 [X(C2H5O2)]\\@


 ... IT IS NO ONE DREAME THAT
     CAN PLEASE THESE ALL ...

                -- BEN JONSON
 Job cpu time:       0 days  0 hours  0 minutes 34.4 seconds.
 Elapsed time:       0 days  0 hours  1 minutes 26.6 seconds.
 File lengths (MBytes):  RWF=     58 Int=      0 D2E=      0 Chk=      5 Scr=      1
 Normal termination of Gaussian 16 at Mon Feb 28 11:37:32 2022.
 Link1:  Proceeding to internal job step number  2.
 ---------------------------------------------------------------------
 #N Geom=AllCheck Guess=TCheck SCRF=Check GenChk UB3LYP/CC-pVTZ+d Freq
 ---------------------------------------------------------------------
 1/5=1,10=4,11=1,29=7,30=1,38=1,40=1/1,3;
 2/12=2,40=1/2;
 3/5=16,6=1,7=9,11=2,14=-4,25=1,30=1,70=2,71=2,74=-5,116=2,140=1/1,2,3;
 4/5=101/1;
 5/5=2,38=6,98=1/2;
 8/6=4,10=90,11=11/1;
 11/6=1,8=1,9=11,15=111,16=1/1,2,10;
 10/6=1/2;
 6/7=2,8=2,9=2,10=2,28=1/1;
 7/8=1,10=1,25=1/1,2,3,16;
 1/5=1,10=4,11=1,30=1/3;
 99//99;
 Structure from the checkpoint file:  "QOOHet-OOH-Elimination-TS3a-B3LYP-A.chk"
 -----------------------------------
 QOOHet-OOH-Elimination-TS3a-B3LYP-A
 -----------------------------------
 Charge =  0 Multiplicity = 2
 Redundant internal coordinates found in file.  (old form).
 C,0,-1.6297080872,0.5306023305,-0.1189017585
 H,0,-2.1854086434,0.4676990889,-1.0437867446
 H,0,1.6701169092,1.1510332019,-0.2926447959
 H,0,-1.5639709117,1.5003337182,0.3549063474
 C,0,-0.9277835691,-0.5481149479,0.3653120616
 H,0,-0.5235030209,-0.5237201512,1.3667887892
 H,0,-1.1309302765,-1.5347709004,-0.0273752976
 O,0,0.7605123861,-0.4664436614,-0.4813813474
 O,0,1.6144432134,0.3540783215,0.2537547459
 Recover connectivity data from disk.

 GradGradGradGradGradGradGradGradGradGradGradGradGradGradGradGradGradGrad
 Berny optimization.
 Initialization pass.
                           ----------------------------
                           !    Initial Parameters    !
                           ! (Angstroms and Degrees)  !
 --------------------------                            --------------------------
 ! Name  Definition              Value          Derivative Info.                !
 --------------------------------------------------------------------------------
 ! R1    R(1,2)                  1.0808         calculate D2E/DX2 analytically  !
 ! R2    R(1,4)                  1.0813         calculate D2E/DX2 analytically  !
 ! R3    R(1,5)                  1.3751         calculate D2E/DX2 analytically  !
 ! R4    R(3,9)                  0.9679         calculate D2E/DX2 analytically  !
 ! R5    R(5,6)                  1.0803         calculate D2E/DX2 analytically  !
 ! R6    R(5,7)                  1.0812         calculate D2E/DX2 analytically  !
 ! R7    R(5,8)                  1.8905         calculate D2E/DX2 analytically  !
 ! R8    R(8,9)                  1.3939         calculate D2E/DX2 analytically  !
 ! A1    A(2,1,4)              117.2852         calculate D2E/DX2 analytically  !
 ! A2    A(2,1,5)              121.2072         calculate D2E/DX2 analytically  !
 ! A3    A(4,1,5)              121.2123         calculate D2E/DX2 analytically  !
 ! A4    A(1,5,6)              119.9851         calculate D2E/DX2 analytically  !
 ! A5    A(1,5,7)              119.4779         calculate D2E/DX2 analytically  !
 ! A6    A(1,5,8)              105.3236         calculate D2E/DX2 analytically  !
 ! A7    A(6,5,7)              115.3174         calculate D2E/DX2 analytically  !
 ! A8    A(6,5,8)               94.5893         calculate D2E/DX2 analytically  !
 ! A9    A(7,5,8)               92.5536         calculate D2E/DX2 analytically  !
 ! A10   A(5,8,9)              109.6536         calculate D2E/DX2 analytically  !
 ! A11   A(3,9,8)              102.8388         calculate D2E/DX2 analytically  !
 ! D1    D(2,1,5,6)           -169.3596         calculate D2E/DX2 analytically  !
[...]
 Electronic               0.000              0.000              1.377
 Translational            0.889              2.981             38.246
 Rotational               0.889              2.981             24.424
 Vibrational             43.855             11.099              9.319
 Vibration     1          0.602              1.955              3.634
 Vibration     2          0.651              1.800              1.902
 Vibration     3          0.697              1.661              1.381
 Vibration     4          0.779              1.436              0.906
 Vibration     5          0.828              1.315              0.736
                       Q            Log10(Q)             Ln(Q)
 Total Bot       0.141543D-17        -17.849113        -41.099101
 Total V=0       0.137232D+14         13.137456         30.250111
 Vib (Bot)       0.777675D-30        -30.109202        -69.329000
 Vib (Bot)    1  0.225382D+01          0.352920          0.812627
 Vib (Bot)    2  0.868370D+00         -0.061295         -0.141137
 Vib (Bot)    3  0.618116D+00         -0.208930         -0.481078
 Vib (Bot)    4  0.423429D+00         -0.373219         -0.859369
 Vib (Bot)    5  0.358170D+00         -0.445911         -1.026748
 Vib (V=0)       0.753993D+01          0.877367          2.020213
 Vib (V=0)    1  0.280862D+01          0.448493          1.032692
 Vib (V=0)    2  0.150203D+01          0.176679          0.406818
 Vib (V=0)    3  0.129503D+01          0.112279          0.258532
 Vib (V=0)    4  0.115520D+01          0.062659          0.144277
 Vib (V=0)    5  0.111505D+01          0.047294          0.108899
 Electronic      0.200000D+01          0.301030          0.693147
 Translational   0.187395D+08          7.272758         16.746144
 Rotational      0.485625D+05          4.686301         10.790607
 ***** Axes restored to original set *****
 -------------------------------------------------------------------
 Center     Atomic                   Forces (Hartrees/Bohr)
 Number     Number              X              Y              Z
 -------------------------------------------------------------------
      1        6          -0.000032608    0.000024973   -0.000006976
      2        1          -0.000018393   -0.000000526   -0.000025903
      3        1           0.000003991    0.000068897   -0.000046800
      4        1           0.000002233    0.000029586    0.000013319
      5        6           0.000030791   -0.000005358    0.000010432
      6        1           0.000004867   -0.000002317    0.000037621
      7        1          -0.000005840   -0.000033878   -0.000013219
      8        8           0.000027740   -0.000012972   -0.000023806
      9        8          -0.000012782   -0.000068405    0.000055332
 -------------------------------------------------------------------
 Cartesian Forces:  Max     0.000068897 RMS     0.000029846
 FormGI is forming the generalized inverse of G from B-inverse, IUseBI=4.

 GradGradGradGradGradGradGradGradGradGradGradGradGradGradGradGradGradGrad
 Berny optimization.
 Internal  Forces:  Max     0.000083581 RMS     0.000025924
 Search for a saddle point.
 Step number   1 out of a maximum of    2
 All quantities printed in internal units (Hartrees-Bohrs-Radians)
 Swapping is turned off.
 Second derivative matrix not updated -- analytic derivatives used.
 ITU=  0
     Eigenvalues ---   -0.06032   0.00282   0.01069   0.01919   0.02043
     Eigenvalues ---    0.04471   0.05301   0.08287   0.08680   0.09161
     Eigenvalues ---    0.10555   0.13146   0.14937   0.18385   0.35546
     Eigenvalues ---    0.35640   0.35845   0.35994   0.36124   0.46376
     Eigenvalues ---    0.49584
 Eigenvectors required to have negative eigenvalues:
                          R7        R3        D4        D2        R8
   1                   -0.91312   0.17424   0.15565  -0.14557   0.13199
                          D1        A8        D5        A9        A10
   1                    0.12984   0.11988  -0.11976   0.11452  -0.07794
 Angle between quadratic step and forces=  45.02 degrees.
 Linear search not attempted -- option 19 set.
 Iteration  1 RMS(Cart)=  0.00017384 RMS(Int)=  0.00000002
 Iteration  2 RMS(Cart)=  0.00000002 RMS(Int)=  0.00000001
 Variable       Old X    -DE/DX   Delta X   Delta X   Delta X     New X
                                 (Linear)    (Quad)   (Total)
    R1        2.04245   0.00003   0.00000   0.00009   0.00009   2.04254
    R2        2.04335   0.00003   0.00000   0.00009   0.00009   2.04344
    R3        2.59849   0.00007   0.00000   0.00016   0.00016   2.59865
    R4        1.82903   0.00008   0.00000   0.00017   0.00017   1.82920
    R5        2.04142   0.00004   0.00000   0.00010   0.00010   2.04152
    R6        2.04314   0.00004   0.00000   0.00010   0.00010   2.04325
    R7        3.57248   0.00002   0.00000   0.00009   0.00009   3.57257
    R8        2.63404  -0.00000   0.00000  -0.00000  -0.00000   2.63403
    A1        2.04701  -0.00000   0.00000  -0.00000  -0.00000   2.04701
    A2        2.11546   0.00000   0.00000   0.00001   0.00001   2.11547
    A3        2.11555   0.00000   0.00000  -0.00000  -0.00000   2.11555
    A4        2.09414  -0.00000   0.00000  -0.00005  -0.00005   2.09409
    A5        2.08528  -0.00000   0.00000  -0.00005  -0.00005   2.08523
    A6        1.83824   0.00002   0.00000   0.00026   0.00026   1.83851
    A7        2.01267  -0.00000   0.00000  -0.00003  -0.00003   2.01264
    A8        1.65090  -0.00000   0.00000   0.00005   0.00005   1.65094
    A9        1.61537  -0.00001   0.00000  -0.00004  -0.00004   1.61533
   A10        1.91382  -0.00003   0.00000  -0.00021  -0.00021   1.91361
   A11        1.79488  -0.00000   0.00000   0.00001   0.00001   1.79489
    D1       -2.95588   0.00001   0.00000   0.00022   0.00022  -2.95566
    D2       -0.28047  -0.00000   0.00000  -0.00010  -0.00010  -0.28057
    D3        1.49981  -0.00000   0.00000   0.00000   0.00000   1.49981
    D4        0.29761   0.00001   0.00000   0.00023   0.00023   0.29784
    D5        2.97302  -0.00000   0.00000  -0.00009  -0.00009   2.97293
    D6       -1.52989  -0.00000   0.00000   0.00001   0.00001  -1.52987
    D7        1.51326   0.00000   0.00000   0.00002   0.00002   1.51328
    D8       -0.63019  -0.00000   0.00000  -0.00002  -0.00002  -0.63021
    D9       -2.64882   0.00000   0.00000   0.00001   0.00001  -2.64881
   D10       -1.86362   0.00000   0.00000   0.00013   0.00013  -1.86349
         Item               Value     Threshold  Converged?
 Maximum Force            0.000084     0.000450     YES
 RMS     Force            0.000026     0.000300     YES
 Maximum Displacement     0.000480     0.001800     YES
 RMS     Displacement     0.000174     0.001200     YES
 Predicted change in Energy=-2.933506D-08
 Optimization completed.
    -- Stationary point found.
                           ----------------------------
                           !   Optimized Parameters   !
                           ! (Angstroms and Degrees)  !
 --------------------------                            --------------------------
 ! Name  Definition              Value          Derivative Info.                !
 --------------------------------------------------------------------------------
 ! R1    R(1,2)                  1.0808         -DE/DX =    0.0                 !
 ! R2    R(1,4)                  1.0813         -DE/DX =    0.0                 !
 ! R3    R(1,5)                  1.3751         -DE/DX =    0.0001              !
 ! R4    R(3,9)                  0.9679         -DE/DX =    0.0001              !
 ! R5    R(5,6)                  1.0803         -DE/DX =    0.0                 !
 ! R6    R(5,7)                  1.0812         -DE/DX =    0.0                 !
 ! R7    R(5,8)                  1.8905         -DE/DX =    0.0                 !
 ! R8    R(8,9)                  1.3939         -DE/DX =    0.0                 !
 ! A1    A(2,1,4)              117.2852         -DE/DX =    0.0                 !
 ! A2    A(2,1,5)              121.2072         -DE/DX =    0.0                 !
 ! A3    A(4,1,5)              121.2123         -DE/DX =    0.0                 !
 ! A4    A(1,5,6)              119.9851         -DE/DX =    0.0                 !
 ! A5    A(1,5,7)              119.4779         -DE/DX =    0.0                 !
 ! A6    A(1,5,8)              105.3236         -DE/DX =    0.0                 !
 ! A7    A(6,5,7)              115.3174         -DE/DX =    0.0                 !
 ! A8    A(6,5,8)               94.5893         -DE/DX =    0.0                 !
 ! A9    A(7,5,8)               92.5536         -DE/DX =    0.0                 !
 ! A10   A(5,8,9)              109.6536         -DE/DX =    0.0                 !
 ! A11   A(3,9,8)              102.8388         -DE/DX =    0.0                 !
 ! D1    D(2,1,5,6)           -169.3596         -DE/DX =    0.0                 !
 ! D2    D(2,1,5,7)            -16.0699         -DE/DX =    0.0                 !
 ! D3    D(2,1,5,8)             85.9327         -DE/DX =    0.0                 !
 ! D4    D(4,1,5,6)             17.0516         -DE/DX =    0.0                 !
 ! D5    D(4,1,5,7)            170.3413         -DE/DX =    0.0                 !
 ! D6    D(4,1,5,8)            -87.6562         -DE/DX =    0.0                 !
 ! D7    D(1,5,8,9)             86.7032         -DE/DX =    0.0                 !
 ! D8    D(6,5,8,9)            -36.1071         -DE/DX =    0.0                 !
 ! D9    D(7,5,8,9)           -151.7661         -DE/DX =    0.0                 !
 ! D10   D(5,8,9,3)           -106.7776         -DE/DX =    0.0                 !
 --------------------------------------------------------------------------------
 GradGradGradGradGradGradGradGradGradGradGradGradGradGradGradGradGradGrad


 ----------------------------------------------------------------------

 Electric dipole moment (input orientation):
 (Debye = 10**-18 statcoulomb cm , SI units = C m)
                  (au)            (Debye)         (10**-30 SI)
   Tot        0.703737D+00      0.178872D+01      0.596653D+01
   x         -0.420744D+00     -0.106942D+01     -0.356721D+01
   y          0.560056D+00      0.142352D+01      0.474835D+01
   z         -0.675083D-01     -0.171589D+00     -0.572359D+00

 Dipole polarizability, Alpha (input orientation).
 (esu units = cm**3 , SI units = C**2 m**2 J**-1)
 Alpha(0;0):
               (au)            (10**-24 esu)      (10**-40 SI)
   iso        0.444406D+02      0.658542D+01      0.732727D+01
   aniso      0.328560D+02      0.486876D+01      0.541722D+01
   xx         0.658290D+02      0.975486D+01      0.108537D+02
   yx        -0.228798D+01     -0.339043D+00     -0.377236D+00
   yy         0.370404D+02      0.548882D+01      0.610714D+01
   zx         0.557522D+00      0.826162D-01      0.919229D-01
   zy        -0.588574D+00     -0.872177D-01     -0.970427D-01
   zz         0.304525D+02      0.451260D+01      0.502094D+01

 ----------------------------------------------------------------------

 Dipole orientation:
     6         -1.46868581         -1.14174652          2.66079326
     1         -3.21111958         -0.33907315          3.36169164
     1          2.72234856          2.75245986         -0.10282455
     1          0.10617971         -1.24018147          3.95901449
     6         -1.19244995         -1.78228278          0.15768561
     1          0.42521157         -2.87252791         -0.44393405
     1         -2.84949668         -1.95208290         -1.02544703
     8         -0.13883046          1.21636597         -1.47345863
     8          2.48345831          1.42437911         -1.33751787

 Electric dipole moment (dipole orientation):
 (Debye = 10**-18 statcoulomb cm , SI units = C m)
                  (au)            (Debye)         (10**-30 SI)
   Tot        0.703737D+00      0.178872D+01      0.596653D+01
   x          0.000000D+00      0.000000D+00      0.000000D+00
   y          0.000000D+00      0.000000D+00      0.000000D+00
   z          0.703737D+00      0.178872D+01      0.596653D+01

 Dipole polarizability, Alpha (dipole orientation).
 (esu units = cm**3 , SI units = C**2 m**2 J**-1)
 Alpha(0;0):
               (au)            (10**-24 esu)      (10**-40 SI)
   iso        0.444406D+02      0.658542D+01      0.732727D+01
   aniso      0.328560D+02      0.486876D+01      0.541722D+01
   xx         0.437864D+02      0.648847D+01      0.721939D+01
   yx         0.112956D+02      0.167384D+01      0.186240D+01
   yy         0.399343D+02      0.591765D+01      0.658427D+01
   zx        -0.108918D+02     -0.161400D+01     -0.179582D+01
   zy        -0.948326D+01     -0.140527D+01     -0.156358D+01
   zz         0.496013D+02      0.735016D+01      0.817816D+01

 ----------------------------------------------------------------------
 1\1\GINC-CNODE0936\Freq\UB3LYP\CC-pVTZ+d\C2H5O2(2)\KOTUKILE\28-Feb-202
 2\0\\#N Geom=AllCheck Guess=TCheck SCRF=Check GenChk UB3LYP/CC-pVTZ+d 
 Freq\\QOOHet-OOH-Elimination-TS3a-B3LYP-A\\0,2\C,-1.6297080872,0.53060
 23305,-0.1189017585\H,-2.1854086434,0.4676990889,-1.0437867446\H,1.670
 1169092,1.1510332019,-0.2926447959\H,-1.5639709117,1.5003337182,0.3549
 063474\C,-0.9277835691,-0.5481149479,0.3653120616\H,-0.5235030209,-0.5
 237201512,1.3667887892\H,-1.1309302765,-1.5347709004,-0.0273752976\O,0
 .7605123861,-0.4664436614,-0.4813813474\O,1.6144432134,0.3540783215,0.
 2537547459\\Version=ES64L-G16RevB.01\State=2-A\HF=-229.5740521\S2=0.77
 9149\S2-1=0.\S2A=0.750153\RMSD=2.476e-09\RMSF=2.985e-05\ZeroPoint=0.06
 73668\Thermal=0.0727195\Dipole=-0.4207438,0.5600562,-0.0675083\DipoleD
 eriv=0.0775024,-0.0324298,0.1002318,-0.486584,-0.0368927,0.2018296,0.3
 630226,0.1381091,-0.0554261,0.0878862,0.0202854,-0.0826958,0.0143519,0
 .0435832,-0.032856,-0.1061594,-0.0004135,-0.0179178,0.3304087,-0.01435
 51,-0.0441242,0.0390067,0.1988165,0.0501387,-0.1417102,0.0730791,0.213
 5023,0.1076541,-0.0141562,-0.0500849,0.0317406,-0.0546659,-0.0443489,-
 0.049516,-0.065528,0.0432056,-0.8730334,-0.1070904,0.2284562,0.4032618
 ,0.2074133,-0.083637,0.113435,0.0018868,0.1049782,0.1175688,0.0067596,
 -0.0777947,-0.0025697,0.0573065,-0.0236093,-0.0537645,0.0166793,-0.022
 5162,0.1184548,-0.0187703,-0.0148185,-0.0181982,-0.0415166,-0.0223029,
 -0.0452834,-0.0521299,0.0618808,0.9642248,0.1713336,-0.1142361,0.78698
 39,-0.1507863,0.0451882,0.3648903,0.0017027,-0.1868524,-0.9306664,-0.0
 115768,0.0550662,-0.7679929,-0.223258,-0.0904024,-0.4449145,-0.1133855
 ,-0.1408544\Polar=65.8290257,-2.2879756,37.0404001,0.5575216,-0.588574
 ,30.4525159\Quadrupole=-1.0216404,1.6824045,-0.660764,2.1695963,-0.221
 5132,-0.7478721\PG=C01 [X(C2H5O2)]\NImag=1\\0.28665058,-0.11320334,0.6
 2660565,0.24107800,0.05697810,0.48837931,-0.10995865,-0.00586555,-0.13
 403317,0.10924881,-0.00543761,-0.05770918,-0.02406377,0.00245834,0.052
 54814,-0.13909908,-0.02052571,-0.25687154,0.15089498,0.02058160,0.2667
 3047,-0.00105302,0.00136847,-0.00023859,-0.00009881,0.00014513,0.00003
 059,0.03159756,0.00031640,0.00130632,-0.00081817,-0.00006472,-0.000083
 69,0.00005970,0.03629429,0.34381747,0.00075024,-0.00096245,0.00048859,
 -0.00016892,-0.00019548,0.00002100,0.01017312,-0.21313545,0.19183092,-
 0.03844075,-0.01556753,-0.02260593,0.00305989,-0.01276476,-0.00632556,
 -0.00053557,0.00019842,0.00026976,0.02934593,-0.01009829,-0.27816941,-
 0.11591350,0.00113264,0.00161992,0.00119891,0.00031651,-0.00004423,-0.
 00008216,0.00979547,0.29592537,-0.02250169,-0.11660705,-0.10662105,-0.
 00141216,-0.02132760,-0.00617051,0.00029274,-0.00009123,-0.00013265,0.
 02459579,0.12486178,0.10151642,-0.08082119,0.05186351,-0.05338461,-0.0
 0468747,0.01300428,-0.00491335,0.00330920,0.00194494,-0.00337429,0.004
 74739,-0.00332911,0.00194059,0.08425778,0.11781368,-0.28295555,0.07413
 347,-0.00040283,0.00506197,-0.00237882,-0.00463448,-0.00141262,0.00158
 648,0.01798433,-0.01955655,0.01076146,-0.02416402,0.66944627,-0.100403
 50,0.10102836,-0.14134373,-0.01616816,0.02426919,-0.00567895,-0.000463
 30,-0.00043246,-0.00034675,0.00687995,-0.01209498,0.00887667,0.2650087
 1,0.00527107,0.54317352,-0.00751856,0.00478681,-0.01878575,0.00419063,
 0.00410995,-0.00343656,-0.00021426,0.00001503,-0.00013624,-0.00279607,
 -0.00111740,0.00295584,-0.06732587,-0.00836840,-0.11059342,0.08622811,
 0.01033114,0.00590850,0.02422648,0.00317428,-0.00289866,0.00087104,-0.
 00011456,-0.00000470,0.00002145,-0.00111643,0.00106206,0.00014706,0.00
 065897,-0.05931511,-0.01302337,-0.00093246,0.05225025,-0.00238209,-0.0
 0413395,-0.00437596,-0.00202564,0.00055462,0.00232601,0.00014191,0.000
 10231,0.00002088,0.00162919,0.00053199,-0.00007551,-0.11554482,-0.0056
 0687,-0.29436537,0.11448343,0.00875232,0.31069465,0.00309366,0.0225413
 2,0.00465097,-0.00262306,-0.00153453,0.00234282,-0.00093573,-0.0001612
 0,0.00012876,0.00304214,0.00385150,-0.00437070,-0.03785144,-0.05245879
 ,-0.02834052,-0.00001281,-0.00829380,-0.00314115,0.05282466,-0.0047058
 2,-0.01913094,-0.01115203,-0.00025254,0.00128607,0.00030907,0.00006943
 ,0.00017598,0.00007344,0.00247193,-0.00145521,0.00200065,-0.04398821,-
 0.28855236,-0.09622351,0.00125437,0.00257564,0.00077164,0.04822951,0.3
 0560468,0.00417103,0.00763985,0.00955510,0.00272803,0.00046843,-0.0004
 7760,0.00053972,0.00020695,0.00012926,-0.00397518,0.00120263,0.0021210
 1,-0.03726284,-0.09493876,-0.09379059,-0.00467590,-0.02438602,-0.00517
 572,0.02771859,0.10338525,0.08851158,-0.05528493,0.06392847,-0.0213295
 6,0.00077986,0.00017993,0.00044838,-0.01375804,-0.01507289,-0.00847018
 ,0.00127960,-0.00080559,-0.00116069,0.13208409,-0.04686199,-0.00813393
 ,-0.01583539,-0.00416224,0.00863505,-0.01506568,-0.00299898,0.00991029
 ,0.05766734,-0.00111725,0.01559782,-0.01084773,-0.00033283,-0.00004561
 ,-0.00012523,-0.03139818,-0.02533006,-0.03564336,-0.00045762,-0.000071
 33,0.00015395,0.04025966,-0.03100268,-0.01065752,-0.00189191,0.0004129
 1,-0.00102186,-0.01237825,-0.00129834,0.00600628,0.08577032,0.16090857
 ,0.01404187,-0.01230121,0.00422966,-0.00000604,-0.00037328,0.00017364,
 0.00703511,-0.00040644,0.01154394,-0.00010981,-0.00009524,0.00037147,-
 0.02550474,-0.00528825,-0.02565386,0.01932653,0.00301024,-0.01025775,-
 0.00289703,0.00042249,0.00095572,0.06973114,0.09978597,0.12937913,0.00
 333286,-0.00985216,0.00464867,0.00008880,-0.00016072,0.00005777,-0.018
 31134,-0.02347027,0.00082777,0.00029744,0.00025425,-0.00033974,-0.0337
 1249,0.00109250,-0.00778584,0.00328421,0.00045511,-0.00179587,-0.00247
 175,-0.00007969,0.00084627,-0.09186685,-0.07845394,-0.08161703,0.13935
 913,0.00610109,-0.01145319,0.00745715,0.00015320,0.00022105,0.00000944
 ,-0.00204660,-0.31842445,0.24833755,-0.00054382,0.00068938,0.00010099,
 -0.03625002,0.00828664,0.00186322,0.00214401,0.00000912,0.00004979,0.0
 0020424,0.00079448,0.00041539,-0.07997702,-0.11917127,-0.08475427,0.11
 021492,0.43904825,0.00434522,-0.01111593,0.00655961,0.00019108,0.00008
 629,-0.00005252,-0.01751130,0.21451481,-0.20355520,-0.00035821,0.00039
 057,0.00011416,-0.02696463,0.01646023,0.00912906,0.00086207,0.00038080
 ,0.00120877,0.00390827,0.00041301,-0.00182877,-0.04963051,-0.04765051,
 -0.11074196,0.08515800,-0.17347927,0.29916685\\0.00003261,-0.00002497,
 0.00000698,0.00001839,0.00000053,0.00002590,-0.00000399,-0.00006890,0.
 00004680,-0.00000223,-0.00002959,-0.00001332,-0.00003079,0.00000536,-0
 .00001043,-0.00000487,0.00000232,-0.00003762,0.00000584,0.00003388,0.0
 0001322,-0.00002774,0.00001297,0.00002381,0.00001278,0.00006840,-0.000
 05533\\\@


      LET US REMEMBER, PLEASE, THAT THE SEARCH FOR THE CONSTITUTION
      OF THE WORLD IS ONE OF THE GREATEST AND NOBLEST PROBLEMS PRESENTED 
      BY NATURE.

                                                  -- GALILEO
 Job cpu time:       0 days  0 hours  0 minutes 22.3 seconds.
 Elapsed time:       0 days  0 hours  0 minutes 58.4 seconds.
 File lengths (MBytes):  RWF=     58 Int=      0 D2E=      0 Chk=      5 Scr=      1
 Normal termination of Gaussian 16 at Mon Feb 28 11:38:36 2022.
