 Entering Gaussian System, Link 0=g16
 Initial command:
 /apps/chpc/chem/gaussian16/B01/g16/l1.exe "/mnt/lustre/users/kotukile/Kgalaletso/4053151.sched01/Gau-142495.inp" -scrdir="/mnt/lustre/users/kotukile/Kgalaletso/4053151.sched01/"
 Entering Link 1 = /apps/chpc/chem/gaussian16/B01/g16/l1.exe PID=    142498.
  
 Copyright (c) 1988-2017, Gaussian, Inc.  All Rights Reserved.
  
 This is part of the Gaussian(R) 16 program.  It is based on
 the Gaussian(R) 09 system (copyright 2009, Gaussian, Inc.),
 the Gaussian(R) 03 system (copyright 2003, Gaussian, Inc.),
 the Gaussian(R) 98 system (copyright 1998, Gaussian, Inc.),
 the Gaussian(R) 94 system (copyright 1995, Gaussian, Inc.),
 the Gaussian 92(TM) system (copyright 1992, Gaussian, Inc.),
 the Gaussian 90(TM) system (copyright 1990, Gaussian, Inc.),
 the Gaussian 88(TM) system (copyright 1988, Gaussian, Inc.),
 the Gaussian 86(TM) system (copyright 1986, Carnegie Mellon
 University), and the Gaussian 82(TM) system (copyright 1983,
 Carnegie Mellon University). Gaussian is a federally registered
 trademark of Gaussian, Inc.
  
 This software contains proprietary and confidential information,
 including trade secrets, belonging to Gaussian, Inc.
  
 This software is provided under written license and may be
 used, copied, transmitted, or stored only in accord with that
 written license.
  
 The following legend is applicable only to US Government
 contracts under FAR:
  
                    RESTRICTED RIGHTS LEGEND
  
 Use, reproduction and disclosure by the US Government is
 subject to restrictions as set forth in subparagraphs (a)
 and (c) of the Commercial Computer Software - Restricted
 Rights clause in FAR 52.227-19.
  
 Gaussian, Inc.
 340 Quinnipiac St., Bldg. 40, Wallingford CT 06492
  
  
 ---------------------------------------------------------------
 Warning -- This program may not be used in any manner that
 competes with the business of Gaussian, Inc. or will provide
 assistance to any competitor of Gaussian, Inc.  The licensee
 of this program is prohibited from giving any competitor of
 Gaussian, Inc. access to this program.  By using this program,
 the user acknowledges that Gaussian, Inc. is engaged in the
 business of creating and licensing software in the field of
 computational chemistry and represents and warrants to the
 licensee that it is not a competitor of Gaussian, Inc. and that
 it will not use this program in any manner prohibited above.
 ---------------------------------------------------------------
  

 Cite this work as:
 Gaussian 16, Revision B.01,
 M. J. Frisch, G. W. Trucks, H. B. Schlegel, G. E. Scuseria, 
 M. A. Robb, J. R. Cheeseman, G. Scalmani, V. Barone, 
 G. A. Petersson, H. Nakatsuji, X. Li, M. Caricato, A. V. Marenich, 
 J. Bloino, B. G. Janesko, R. Gomperts, B. Mennucci, H. P. Hratchian, 
 J. V. Ortiz, A. F. Izmaylov, J. L. Sonnenberg, D. Williams-Young, 
 F. Ding, F. Lipparini, F. Egidi, J. Goings, B. Peng, A. Petrone, 
 T. Henderson, D. Ranasinghe, V. G. Zakrzewski, J. Gao, N. Rega, 
 G. Zheng, W. Liang, M. Hada, M. Ehara, K. Toyota, R. Fukuda, 
 J. Hasegawa, M. Ishida, T. Nakajima, Y. Honda, O. Kitao, H. Nakai, 
 T. Vreven, K. Throssell, J. A. Montgomery, Jr., J. E. Peralta, 
 F. Ogliaro, M. J. Bearpark, J. J. Heyd, E. N. Brothers, K. N. Kudin, 
 V. N. Staroverov, T. A. Keith, R. Kobayashi, J. Normand, 
 K. Raghavachari, A. P. Rendell, J. C. Burant, S. S. Iyengar, 
 J. Tomasi, M. Cossi, J. M. Millam, M. Klene, C. Adamo, R. Cammi, 
 J. W. Ochterski, R. L. Martin, K. Morokuma, O. Farkas, 
 J. B. Foresman, and D. J. Fox, Gaussian, Inc., Wallingford CT, 2016.
 
 ******************************************
 Gaussian 16:  ES64L-G16RevB.01 20-Dec-2017
                28-Feb-2022 
 ******************************************
 %nprocshared=24
 Will use up to   24 processors via shared memory.
 %lindaworkers=cnode0093.cm.cluster,cnode0098.cm.cluster
 %mem=5GB
 %chk=RetO2-H-Transfer-TS2-B3LYP-A.chk
 SetLPE:    new flags="-opt 'Tsnet.Node.lindarsharg: ssh'  -nodelist 'cnode0093.cm.cluster cnode0098.cm.cluster' -env GAUSS_MDEF=671088640 -env GAUSS_EXEDIR="/apps/chpc/chem/gaussian16/B01/g16/bsd:/apps/chpc/chem/gaussian16/B01/g16""
 Will use up to    2 processors via Linda.
 ---------------------------------------------------
 # opt=(calcfc,ts,noeigentest) freq ub3lyp cc-pvtz+d
 ---------------------------------------------------
 1/5=1,10=4,11=1,18=20,26=3,38=1/1,3;
 2/9=110,12=2,17=6,18=5,40=1/2;
 3/5=16,6=1,7=9,11=2,25=1,30=1,71=2,74=-5,116=2,140=1/1,2,3;
 4//1;
 5/5=2,38=5/2;
 8/6=4,10=90,11=11/1;
 11/6=1,8=1,9=11,15=111,16=1/1,2,10;
 10/6=1,13=1/2;
 6/7=2,8=2,9=2,10=2,28=1/1;
 7/10=1,18=20,25=1/1,2,3,16;
 1/5=1,10=4,11=1,18=20,26=3/3(2);
 2/9=110/2;
 99//99;
 2/9=110/2;
 3/5=16,6=1,7=9,11=2,25=1,30=1,71=1,74=-5,116=2/1,2,3;
 4/5=5,16=3,69=1/1;
 5/5=2,38=5/2;
 7//1,2,3,16;
 1/5=1,11=1,18=20,26=3/3(-5);
 2/9=110/2;
 6/7=2,8=2,9=2,10=2,19=2,28=1/1;
 99/9=1/99;
 ----------------------------
 RetO2-H-Transfer-TS2-B3LYP-A
 ----------------------------
 Symbolic Z-matrix:
 Charge =  0 Multiplicity = 2
 C                     1.22568  -0.56822   0.1211 
 H                     1.95483  -0.96713  -0.58152 
 H                    -0.03817  -1.13679  -0.0599 
 H                     1.46898  -0.73545   1.17058 
 C                     0.54027   0.75271  -0.21513 
 H                     0.96466   1.6303    0.2855 
 H                     0.52653   0.91115  -1.30065 
 O                    -0.79095   0.59952   0.29518 
 O                    -1.14312  -0.70065  -0.16391 
 
 Add virtual bond connecting atoms O9         and H3         Dist= 2.25D+00.

 GradGradGradGradGradGradGradGradGradGradGradGradGradGradGradGradGradGrad
 Berny optimization.
 Initialization pass.
                           ----------------------------
                           !    Initial Parameters    !
                           ! (Angstroms and Degrees)  !
 --------------------------                            --------------------------
 ! Name  Definition              Value          Derivative Info.                !
 --------------------------------------------------------------------------------
 ! R1    R(1,2)                  1.0883         calculate D2E/DX2 analytically  !
 ! R2    R(1,4)                  1.0902         calculate D2E/DX2 analytically  !
 ! R3    R(1,5)                  1.5257         calculate D2E/DX2 analytically  !
 ! R4    R(3,9)                  1.1925         calculate D2E/DX2 analytically  !
 ! R5    R(5,6)                  1.0959         calculate D2E/DX2 analytically  !
 ! R6    R(5,7)                  1.0971         calculate D2E/DX2 analytically  !
 ! R7    R(5,8)                  1.4339         calculate D2E/DX2 analytically  !
 ! R8    R(8,9)                  1.4231         calculate D2E/DX2 analytically  !
 ! A1    A(2,1,4)              114.5651         calculate D2E/DX2 analytically  !
 ! A2    A(2,1,5)              118.4283         calculate D2E/DX2 analytically  !
 ! A3    A(4,1,5)              116.4364         calculate D2E/DX2 analytically  !
 ! A4    A(1,5,6)              114.7528         calculate D2E/DX2 analytically  !
 ! A5    A(1,5,7)              110.4088         calculate D2E/DX2 analytically  !
 ! A6    A(1,5,8)              104.2503         calculate D2E/DX2 analytically  !
 ! A7    A(6,5,7)              109.9498         calculate D2E/DX2 analytically  !
 ! A8    A(6,5,8)              106.4101         calculate D2E/DX2 analytically  !
 ! A9    A(7,5,8)              110.8508         calculate D2E/DX2 analytically  !
 ! A10   A(5,8,9)              102.2714         calculate D2E/DX2 analytically  !
 ! A11   A(3,9,8)               94.3992         calculate D2E/DX2 analytically  !
 ! D1    D(2,1,5,6)            -99.3441         calculate D2E/DX2 analytically  !
 ! D2    D(2,1,5,7)             25.5758         calculate D2E/DX2 analytically  !
 ! D3    D(2,1,5,8)            144.6752         calculate D2E/DX2 analytically  !
 ! D4    D(4,1,5,6)             43.5089         calculate D2E/DX2 analytically  !
 ! D5    D(4,1,5,7)            168.4288         calculate D2E/DX2 analytically  !
 ! D6    D(4,1,5,8)            -72.4717         calculate D2E/DX2 analytically  !
 ! D7    D(1,5,8,9)            -45.7338         calculate D2E/DX2 analytically  !
 ! D8    D(6,5,8,9)           -167.4114         calculate D2E/DX2 analytically  !
 ! D9    D(7,5,8,9)             73.0649         calculate D2E/DX2 analytically  !
 ! D10   D(5,8,9,3)             34.1312         calculate D2E/DX2 analytically  !
 --------------------------------------------------------------------------------
 Trust Radius=3.00D-01 FncErr=1.00D-07 GrdErr=1.00D-06 EigMax=2.50D+02 EigMin=1.00D-04
 Number of steps in this run=     39 maximum allowed number of steps=    100.
 Search for a saddle point of order  1.
 GradGradGradGradGradGradGradGradGradGradGradGradGradGradGradGradGradGrad

                          Input orientation:                          
 ---------------------------------------------------------------------
 Center     Atomic      Atomic             Coordinates (Angstroms)
 Number     Number       Type             X           Y           Z
 ---------------------------------------------------------------------
      1          6           0        1.225679   -0.568224    0.121095
      2          1           0        1.954833   -0.967130   -0.581515
      3          1           0       -0.038170   -1.136785   -0.059896
      4          1           0        1.468980   -0.735453    1.170581
      5          6           0        0.540272    0.752706   -0.215127
      6          1           0        0.964664    1.630304    0.285497
      7          1           0        0.526533    0.911154   -1.300646
      8          8           0       -0.790947    0.599523    0.295181
      9          8           0       -1.143122   -0.700646   -0.163909
 ---------------------------------------------------------------------
                    Distance matrix (angstroms):
                    1          2          3          4          5
     1  C    0.000000
     2  H    1.088325   0.000000
     3  H    1.397617   2.067107   0.000000
     4  H    1.090221   1.832912   1.986616   0.000000
     5  C    1.525675   2.256781   1.982137   2.235465   0.000000
     6  H    2.220064   2.911839   2.963402   2.575755   1.095861
     7  H    2.167651   2.466808   2.460163   3.115523   1.097108
     8  O    2.336818   3.280595   1.925492   2.766904   1.433884
     9  O    2.389557   3.137313   1.192457   2.933454   2.224561
                    6          7          8          9
     6  H    0.000000
     7  H    1.795824   0.000000
     8  O    2.035872   2.092733   0.000000
     9  O    3.174595   2.584147   1.423106   0.000000
 Stoichiometry    C2H5O2(2)
 Framework group  C1[X(C2H5O2)]
 Deg. of freedom    21
 Full point group                 C1      NOp   1
 Largest Abelian subgroup         C1      NOp   1
 Largest concise Abelian subgroup C1      NOp   1
                         Standard orientation:                         
 ---------------------------------------------------------------------
 Center     Atomic      Atomic             Coordinates (Angstroms)
 Number     Number       Type             X           Y           Z
 ---------------------------------------------------------------------
      1          6           0       -1.225679   -0.568223   -0.121095
      2          1           0       -1.954834   -0.967129    0.581515
      3          1           0        0.038169   -1.136785    0.059896
      4          1           0       -1.468980   -0.735452   -1.170581
      5          6           0       -0.540272    0.752706    0.215127
      6          1           0       -0.964664    1.630304   -0.285497
      7          1           0       -0.526533    0.911154    1.300646
      8          8           0        0.790947    0.599523   -0.295181
      9          8           0        1.143122   -0.700646    0.163909
 ---------------------------------------------------------------------
 Rotational constants (GHZ):          13.8028616           7.7328296           5.6206189
 Standard basis: CC-pVTZ+d (5D, 7F)
 There are   215 symmetry adapted cartesian basis functions of A   symmetry.
 There are   190 symmetry adapted basis functions of A   symmetry.
   190 basis functions,   293 primitive gaussians,   215 cartesian basis functions
    17 alpha electrons       16 beta electrons
       nuclear repulsion energy       128.8405040602 Hartrees.
 NAtoms=    9 NActive=    9 NUniq=    9 SFac= 1.00D+00 NAtFMM=   60 NAOKFM=F Big=F
 Integral buffers will be    131072 words long.
 Raffenetti 2 integral format.
 Two-electron integral symmetry is turned on.
 One-electron integrals computed using PRISM.
 NBasis=   190 RedAO= T EigKep=  8.93D-04  NBF=   190
 NBsUse=   190 1.00D-06 EigRej= -1.00D+00 NBFU=   190
 ExpMin= 1.03D-01 ExpMax= 1.53D+04 ExpMxC= 5.22D+02 IAcc=3 IRadAn=         5 AccDes= 0.00D+00
 Harris functional with IExCor=  402 and IRadAn=       5 diagonalized for initial guess.
 HarFok:  IExCor=  402 AccDes= 0.00D+00 IRadAn=         5 IDoV= 1 UseB2=F ITyADJ=14
 ICtDFT=  3500011 ScaDFX=  1.000000  1.000000  1.000000  1.000000
 FoFCou: FMM=F IPFlag=           0 FMFlag=      100000 FMFlg1=           0
         NFxFlg=           0 DoJE=T BraDBF=F KetDBF=T FulRan=T
         wScrn=  0.000000 ICntrl=       500 IOpCl=  0 I1Cent=   200000004 NGrid=           0
         NMat0=    1 NMatS0=      1 NMatT0=    0 NMatD0=    1 NMtDS0=    0 NMtDT0=    0
 Petite list used in FoFCou.
 Initial guess <Sx>= 0.0000 <Sy>= 0.0000 <Sz>= 0.5000 <S**2>= 0.7500 S= 0.5000
 Keep R1 and R2 ints in memory in canonical form, NReq=354287669.
 Requested convergence on RMS density matrix=1.00D-08 within 128 cycles.
 Requested convergence on MAX density matrix=1.00D-06.
 Requested convergence on             energy=1.00D-06.
 No special actions if energy rises.
 Integral accuracy reduced to 1.0D-05 until final iterations.
 Initial convergence to 1.0D-05 achieved.  Increase integral accuracy.
 SCF Done:  E(UB3LYP) =  -229.561962282     A.U. after   21 cycles
            NFock= 21  Conv=0.67D-08     -V/T= 2.0064
 <Sx>= 0.0000 <Sy>= 0.0000 <Sz>= 0.5000 <S**2>= 0.7588 S= 0.5044
 <L.S>= 0.000000000000E+00
 Annihilation of the first spin contaminant:
 S**2 before annihilation     0.7588,   after     0.7500
 DoSCS=F DFT=T ScalE2(SS,OS)=  1.000000  1.000000
 Range of M.O.s used for correlation:     1   190
 NBasis=   190 NAE=    17 NBE=    16 NFC=     0 NFV=     0
 NROrb=    190 NOA=    17 NOB=    16 NVA=   173 NVB=   174
 Symmetrizing basis deriv contribution to polar:
 IMax=3 JMax=2 DiffMx= 0.00D+00
 G2DrvN: will do    10 centers at a time, making    1 passes.
 Calling FoFCou, ICntrl=  3107 FMM=F I1Cent=   0 AccDes= 0.00D+00.
 End of G2Drv F.D. properties file   721 does not exist.
 End of G2Drv F.D. properties file   722 does not exist.
 End of G2Drv F.D. properties file   788 does not exist.
          IDoAtm=111111111
          Differentiating once with respect to nuclear coordinates.
 Keep R1 and R2 ints in memory in canonical form, NReq=354212570.
          There are    30 degrees of freedom in the 1st order CPHF.  IDoFFX=6 NUNeed=     0.
     24 vectors produced by pass  0 Test12= 1.91D-14 3.33D-09 XBig12= 1.92D-01 1.39D-01.
 AX will form    24 AO Fock derivatives at one time.
     24 vectors produced by pass  1 Test12= 1.91D-14 3.33D-09 XBig12= 2.71D-02 4.13D-02.
     24 vectors produced by pass  2 Test12= 1.91D-14 3.33D-09 XBig12= 1.69D-03 1.03D-02.
     24 vectors produced by pass  3 Test12= 1.91D-14 3.33D-09 XBig12= 1.77D-05 7.13D-04.
     24 vectors produced by pass  4 Test12= 1.91D-14 3.33D-09 XBig12= 2.11D-07 5.92D-05.
     24 vectors produced by pass  5 Test12= 1.91D-14 3.33D-09 XBig12= 2.03D-09 5.97D-06.
     23 vectors produced by pass  6 Test12= 1.91D-14 3.33D-09 XBig12= 1.43D-11 4.25D-07.
      7 vectors produced by pass  7 Test12= 1.91D-14 3.33D-09 XBig12= 7.32D-14 3.41D-08.
 InvSVY:  IOpt=1 It=  1 EMax= 2.22D-15
 Solved reduced A of dimension   174 with    24 vectors.
 End of Minotr F.D. properties file   721 does not exist.
 End of Minotr F.D. properties file   722 does not exist.
 End of Minotr F.D. properties file   788 does not exist.

 **********************************************************************

            Population analysis using the SCF Density.

 **********************************************************************

 Orbital symmetries:
 Alpha Orbitals:
       Occupied  (A) (A) (A) (A) (A) (A) (A) (A) (A) (A) (A) (A)
                 (A) (A) (A) (A) (A)
       Virtual   (A) (A) (A) (A) (A) (A) (A) (A) (A) (A) (A) (A)
                 (A) (A) (A) (A) (A) (A) (A) (A) (A) (A) (A) (A)
                 (A) (A) (A) (A) (A) (A) (A) (A) (A) (A) (A) (A)
                 (A) (A) (A) (A) (A) (A) (A) (A) (A) (A) (A) (A)
                 (A) (A) (A) (A) (A) (A) (A) (A) (A) (A) (A) (A)
                 (A) (A) (A) (A) (A) (A) (A) (A) (A) (A) (A) (A)
                 (A) (A) (A) (A) (A) (A) (A) (A) (A) (A) (A) (A)
                 (A) (A) (A) (A) (A) (A) (A) (A) (A) (A) (A) (A)
                 (A) (A) (A) (A) (A) (A) (A) (A) (A) (A) (A) (A)
                 (A) (A) (A) (A) (A) (A) (A) (A) (A) (A) (A) (A)
                 (A) (A) (A) (A) (A) (A) (A) (A) (A) (A) (A) (A)
                 (A) (A) (A) (A) (A) (A) (A) (A) (A) (A) (A) (A)
                 (A) (A) (A) (A) (A) (A) (A) (A) (A) (A) (A) (A)
                 (A) (A) (A) (A) (A) (A) (A) (A) (A) (A) (A) (A)
                 (A) (A) (A) (A) (A)
 Beta  Orbitals:
       Occupied  (A) (A) (A) (A) (A) (A) (A) (A) (A) (A) (A) (A)
                 (A) (A) (A) (A)
       Virtual   (A) (A) (A) (A) (A) (A) (A) (A) (A) (A) (A) (A)
                 (A) (A) (A) (A) (A) (A) (A) (A) (A) (A) (A) (A)
                 (A) (A) (A) (A) (A) (A) (A) (A) (A) (A) (A) (A)
                 (A) (A) (A) (A) (A) (A) (A) (A) (A) (A) (A) (A)
                 (A) (A) (A) (A) (A) (A) (A) (A) (A) (A) (A) (A)
                 (A) (A) (A) (A) (A) (A) (A) (A) (A) (A) (A) (A)
                 (A) (A) (A) (A) (A) (A) (A) (A) (A) (A) (A) (A)
                 (A) (A) (A) (A) (A) (A) (A) (A) (A) (A) (A) (A)
                 (A) (A) (A) (A) (A) (A) (A) (A) (A) (A) (A) (A)
                 (A) (A) (A) (A) (A) (A) (A) (A) (A) (A) (A) (A)
                 (A) (A) (A) (A) (A) (A) (A) (A) (A) (A) (A) (A)
                 (A) (A) (A) (A) (A) (A) (A) (A) (A) (A) (A) (A)
                 (A) (A) (A) (A) (A) (A) (A) (A) (A) (A) (A) (A)
                 (A) (A) (A) (A) (A) (A) (A) (A) (A) (A) (A) (A)
                 (A) (A) (A) (A) (A) (A)
 The electronic state is 2-A.
 Alpha  occ. eigenvalues --  -19.19726 -19.19404 -10.24776 -10.21760  -1.13783
 Alpha  occ. eigenvalues --   -0.88925  -0.77656  -0.62755  -0.54415  -0.50748
 Alpha  occ. eigenvalues --   -0.47811  -0.43628  -0.40497  -0.38486  -0.34762
 Alpha  occ. eigenvalues --   -0.27645  -0.25938
 Alpha virt. eigenvalues --    0.02417   0.03823   0.06865   0.07112   0.11594
 Alpha virt. eigenvalues --    0.12418   0.14441   0.17937   0.22789   0.24289
 Alpha virt. eigenvalues --    0.27247   0.33688   0.35106   0.38551   0.39036
 Alpha virt. eigenvalues --    0.41141   0.42260   0.45147   0.45564   0.48971
 Alpha virt. eigenvalues --    0.49300   0.50274   0.58429   0.62931   0.65023
 Alpha virt. eigenvalues --    0.69085   0.72202   0.75740   0.77768   0.79448
 Alpha virt. eigenvalues --    0.81816   0.88305   0.90865   0.95605   0.98691
 Alpha virt. eigenvalues --    1.00306   1.01548   1.03628   1.05059   1.09353
 Alpha virt. eigenvalues --    1.11468   1.14354   1.19041   1.23724   1.26300
 Alpha virt. eigenvalues --    1.26817   1.30638   1.32577   1.34973   1.38264
 Alpha virt. eigenvalues --    1.45086   1.46630   1.50726   1.51000   1.57975
 Alpha virt. eigenvalues --    1.67237   1.82682   1.87621   1.90210   2.00437
 Alpha virt. eigenvalues --    2.05282   2.08043   2.11614   2.24325   2.27094
 Alpha virt. eigenvalues --    2.28867   2.30458   2.39884   2.40383   2.41375
 Alpha virt. eigenvalues --    2.49105   2.54045   2.61642   2.67254   2.68183
 Alpha virt. eigenvalues --    2.75255   2.81193   2.86276   2.88367   2.88906
 Alpha virt. eigenvalues --    2.91991   2.95553   2.97088   2.98299   3.02096
 Alpha virt. eigenvalues --    3.03964   3.07506   3.10394   3.13477   3.18226
 Alpha virt. eigenvalues --    3.23232   3.26986   3.29411   3.35224   3.37568
 Alpha virt. eigenvalues --    3.40046   3.42430   3.47114   3.48394   3.57066
 Alpha virt. eigenvalues --    3.60418   3.60783   3.68379   3.69954   3.72426
 Alpha virt. eigenvalues --    3.74267   3.77602   3.82124   3.82809   3.86448
 Alpha virt. eigenvalues --    3.89019   3.95930   3.97827   4.03226   4.04931
 Alpha virt. eigenvalues --    4.06722   4.09108   4.12878   4.16991   4.19178
 Alpha virt. eigenvalues --    4.21640   4.28803   4.31705   4.37350   4.44694
 Alpha virt. eigenvalues --    4.47560   4.55377   4.61070   4.71004   4.74382
 Alpha virt. eigenvalues --    4.78654   4.83997   4.84775   4.87092   4.88978
 Alpha virt. eigenvalues --    4.93669   4.95827   5.04493   5.05663   5.10307
 Alpha virt. eigenvalues --    5.21584   5.23626   5.24925   5.29717   5.35052
 Alpha virt. eigenvalues --    5.39976   5.47711   5.53455   5.64139   5.73404
 Alpha virt. eigenvalues --    5.76535   5.82546   5.88003   5.91447   5.97861
 Alpha virt. eigenvalues --    6.05006   6.13120   6.32528   6.41423   6.50610
 Alpha virt. eigenvalues --    6.55290   6.73237   6.76737   6.84122   6.90561
 Alpha virt. eigenvalues --    6.99370   7.23914   7.25848   7.53915   9.76658
 Alpha virt. eigenvalues --   10.13112  11.48435  12.49779
  Beta  occ. eigenvalues --  -19.19578 -19.18207 -10.24794 -10.20820  -1.12550
  Beta  occ. eigenvalues --   -0.87008  -0.75846  -0.61551  -0.52294  -0.50074
  Beta  occ. eigenvalues --   -0.47019  -0.42533  -0.38572  -0.37498  -0.33788
  Beta  occ. eigenvalues --   -0.25009
  Beta virt. eigenvalues --   -0.14469   0.03092   0.04111   0.07186   0.07251
  Beta virt. eigenvalues --    0.11858   0.12986   0.16059   0.18507   0.23049
  Beta virt. eigenvalues --    0.25021   0.27535   0.33891   0.36165   0.39644
  Beta virt. eigenvalues --    0.40279   0.41289   0.42619   0.45703   0.45982
  Beta virt. eigenvalues --    0.49481   0.50025   0.50859   0.59472   0.63318
  Beta virt. eigenvalues --    0.65565   0.69641   0.72666   0.76225   0.78119
  Beta virt. eigenvalues --    0.80189   0.81979   0.88714   0.91136   0.96291
  Beta virt. eigenvalues --    0.99455   1.00675   1.01962   1.03922   1.05231
  Beta virt. eigenvalues --    1.09800   1.12332   1.15257   1.19817   1.23998
  Beta virt. eigenvalues --    1.26567   1.27351   1.31456   1.33086   1.35516
  Beta virt. eigenvalues --    1.39198   1.45511   1.47749   1.51368   1.51868
  Beta virt. eigenvalues --    1.58419   1.68163   1.83796   1.88188   1.90581
  Beta virt. eigenvalues --    2.01290   2.06804   2.08577   2.12746   2.25219
  Beta virt. eigenvalues --    2.27528   2.30268   2.31407   2.40580   2.40954
  Beta virt. eigenvalues --    2.41874   2.49914   2.55220   2.62129   2.68410
  Beta virt. eigenvalues --    2.69534   2.75851   2.82015   2.87653   2.88820
  Beta virt. eigenvalues --    2.90067   2.93099   2.96200   2.97463   2.99198
  Beta virt. eigenvalues --    3.02783   3.05077   3.08196   3.11345   3.15125
  Beta virt. eigenvalues --    3.19399   3.23909   3.27926   3.29837   3.35972
  Beta virt. eigenvalues --    3.38574   3.40448   3.42938   3.47341   3.48990
  Beta virt. eigenvalues --    3.57167   3.60763   3.61281   3.68609   3.70171
  Beta virt. eigenvalues --    3.72654   3.74859   3.78171   3.81959   3.83260
  Beta virt. eigenvalues --    3.86529   3.89367   3.96415   3.98206   4.03449
  Beta virt. eigenvalues --    4.05312   4.06931   4.09443   4.13116   4.17301
  Beta virt. eigenvalues --    4.19386   4.22813   4.29160   4.32427   4.38091
  Beta virt. eigenvalues --    4.45423   4.47960   4.55945   4.61362   4.71460
  Beta virt. eigenvalues --    4.74902   4.79224   4.84977   4.85335   4.87595
  Beta virt. eigenvalues --    4.89533   4.94008   4.96956   5.05734   5.06488
  Beta virt. eigenvalues --    5.10897   5.22491   5.24058   5.25838   5.30916
  Beta virt. eigenvalues --    5.35485   5.40696   5.48312   5.53818   5.64716
  Beta virt. eigenvalues --    5.74001   5.77232   5.83208   5.88902   5.93339
  Beta virt. eigenvalues --    5.98949   6.05856   6.14114   6.34459   6.42310
  Beta virt. eigenvalues --    6.52996   6.58874   6.74621   6.77412   6.84898
  Beta virt. eigenvalues --    6.92839   7.00557   7.25266   7.26790   7.54787
  Beta virt. eigenvalues --    9.78158  10.13562  11.49118  12.50373
          Condensed to atoms (all electrons):
               1          2          3          4          5          6
     1  C    5.210724   0.384347   0.247432   0.365927   0.306452  -0.025075
     2  H    0.384347   0.561854  -0.011248  -0.029254  -0.024152   0.000208
     3  H    0.247432  -0.011248   0.465115  -0.010435  -0.034049   0.002433
     4  H    0.365927  -0.029254  -0.010435   0.561248  -0.019327  -0.005715
     5  C    0.306452  -0.024152  -0.034049  -0.019327   4.677496   0.396574
     6  H   -0.025075   0.000208   0.002433  -0.005715   0.396574   0.603389
     7  H   -0.063203  -0.001474  -0.005952   0.009292   0.402404  -0.043211
     8  O   -0.060971   0.004761  -0.047958   0.008872   0.311674  -0.024339
     9  O   -0.086683  -0.000049   0.201912  -0.000220  -0.062812   0.005258
               7          8          9
     1  C   -0.063203  -0.060971  -0.086683
     2  H   -0.001474   0.004761  -0.000049
     3  H   -0.005952  -0.047958   0.201912
     4  H    0.009292   0.008872  -0.000220
     5  C    0.402404   0.311674  -0.062812
     6  H   -0.043211  -0.024339   0.005258
     7  H    0.648961  -0.040983   0.014658
     8  O   -0.040983   7.899737   0.105229
     9  O    0.014658   0.105229   8.030832
          Atomic-Atomic Spin Densities.
               1          2          3          4          5          6
     1  C    0.646837   0.007169   0.025483   0.010724   0.008133  -0.009639
     2  H    0.007169  -0.024463   0.000876   0.002565  -0.000015  -0.000513
     3  H    0.025483   0.000876  -0.081830   0.003201   0.014655  -0.000025
     4  H    0.010724   0.002565   0.003201  -0.024638  -0.003340  -0.000214
     5  C    0.008133  -0.000015   0.014655  -0.003340  -0.017721   0.008951
     6  H   -0.009639  -0.000513  -0.000025  -0.000214   0.008951   0.013309
     7  H   -0.000148  -0.000310   0.002046  -0.000565   0.002376   0.002289
     8  O    0.004246  -0.000156   0.005326  -0.000717  -0.006168  -0.002416
     9  O   -0.064790   0.000774  -0.018450   0.001154  -0.005073  -0.000975
               7          8          9
     1  C   -0.000148   0.004246  -0.064790
     2  H   -0.000310  -0.000156   0.000774
     3  H    0.002046   0.005326  -0.018450
     4  H   -0.000565  -0.000717   0.001154
     5  C    0.002376  -0.006168  -0.005073
     6  H    0.002289  -0.002416  -0.000975
     7  H   -0.001481  -0.002465  -0.001899
     8  O   -0.002465   0.067374  -0.025495
     9  O   -0.001899  -0.025495   0.509425
 Mulliken charges and spin densities:
               1          2
     1  C   -0.278950   0.628015
     2  H    0.115007  -0.014073
     3  H    0.192752  -0.048720
     4  H    0.119613  -0.011829
     5  C    0.045739   0.001798
     6  H    0.090478   0.010766
     7  H    0.079507  -0.000157
     8  O   -0.156022   0.039531
     9  O   -0.208125   0.394671
 Sum of Mulliken charges =  -0.00000   1.00000
 Mulliken charges and spin densities with hydrogens summed into heavy atoms:
               1          2
     1  C   -0.044330   0.602112
     5  C    0.215725   0.012406
     8  O   -0.156022   0.039531
     9  O   -0.015373   0.345951
 APT charges:
               1
     1  C   -0.768039
     2  H    0.424818
     3  H    0.163373
     4  H    0.357027
     5  C   -0.581667
     6  H    0.373471
     7  H    0.297159
     8  O   -0.075078
     9  O   -0.191064
 Sum of APT charges =  -0.00000
 APT charges with hydrogens summed into heavy atoms:
               1
     1  C    0.013806
     5  C    0.088963
     8  O   -0.075078
     9  O   -0.027691
 Electronic spatial extent (au):  <R**2>=            257.0542
 Charge=             -0.0000 electrons
 Dipole moment (field-independent basis, Debye):
    X=             -3.0846    Y=              0.2144    Z=              0.3347  Tot=              3.1101
 Quadrupole moment (field-independent basis, Debye-Ang):
   XX=            -25.9818   YY=            -23.6717   ZZ=            -24.3710
   XY=              0.2324   XZ=              0.2414   YZ=              0.3475
 Traceless Quadrupole moment (field-independent basis, Debye-Ang):
   XX=             -1.3070   YY=              1.0031   ZZ=              0.3039
   XY=              0.2324   XZ=              0.2414   YZ=              0.3475
 Octapole moment (field-independent basis, Debye-Ang**2):
  XXX=              3.7206  YYY=              1.1186  ZZZ=             -0.5014  XYY=             -0.0613
  XXY=              0.0618  XXZ=              0.2992  XZZ=              0.5272  YZZ=              0.0755
  YYZ=             -0.1022  XYZ=              0.5942
 Hexadecapole moment (field-independent basis, Debye-Ang**3):
 XXXX=           -174.7576 YYYY=           -102.0992 ZZZZ=            -42.3930 XXXY=              2.1512
 XXXZ=             -1.7425 YYYX=             -4.0891 YYYZ=             -3.3294 ZZZX=              0.6456
 ZZZY=              0.4862 XXYY=            -46.8785 XXZZ=            -35.0489 YYZZ=            -24.5341
 XXYZ=             -1.2829 YYXZ=              0.5722 ZZXY=              0.4617
 N-N= 1.288405040602D+02 E-N=-7.961970275336D+02  KE= 2.280972670501D+02
  Exact polarizability:   0.000   0.000   0.000   0.000   0.000   0.000
 Approx polarizability:  73.291   0.628  55.047   1.941  -2.910  41.294
                          Isotropic Fermi Contact Couplings
        Atom                 a.u.       MegaHertz       Gauss      10(-4) cm-1
     1  C(13)              0.05820      65.43303      23.34813      21.82611
     2  H(1)              -0.00684     -30.56551     -10.90654     -10.19556
     3  H(1)              -0.02805    -125.38471     -44.74038     -41.82384
     4  H(1)              -0.00478     -21.36854      -7.62483      -7.12778
     5  C(13)             -0.01455     -16.35197      -5.83479      -5.45443
     6  H(1)               0.00697      31.15349      11.11634      10.39169
     7  H(1)              -0.00004      -0.19540      -0.06972      -0.06518
     8  O(17)              0.05843     -35.42047     -12.63891     -11.81500
     9  O(17)              0.01613      -9.77738      -3.48881      -3.26138
 --------------------------------------------------------
       Center         ----  Spin Dipole Couplings  ----
                      3XX-RR        3YY-RR        3ZZ-RR
 --------------------------------------------------------
     1   Atom        0.239632      0.125299     -0.364931
     2   Atom        0.016429     -0.009992     -0.006438
     3   Atom        0.186975     -0.081787     -0.105188
     4   Atom       -0.018150     -0.023476      0.041626
     5   Atom        0.013773      0.009440     -0.023213
     6   Atom       -0.000812      0.010348     -0.009536
     7   Atom       -0.003150      0.002283      0.000867
     8   Atom       -0.116565     -0.050259      0.166823
     9   Atom        1.012926     -0.380205     -0.632721
 --------------------------------------------------------
                        XY            XZ            YZ
 --------------------------------------------------------
     1   Atom       -0.561266      0.108633     -0.099748
     2   Atom        0.002501     -0.034938     -0.030625
     3   Atom        0.007694      0.022003     -0.003769
     4   Atom       -0.017851      0.017290      0.018513
     5   Atom        0.020135     -0.008111     -0.007673
     6   Atom       -0.002362      0.002119     -0.002131
     7   Atom        0.000392      0.001057      0.010108
     8   Atom        0.050507      0.054151      0.207611
     9   Atom        1.021696      0.792853      0.417392
 --------------------------------------------------------


 ---------------------------------------------------------------------------------
              Anisotropic Spin Dipole Couplings in Principal Axis System
 ---------------------------------------------------------------------------------

       Atom             a.u.   MegaHertz   Gauss  10(-4) cm-1        Axes

              Baa    -0.3846   -51.616   -18.418   -17.217  0.1625  0.3587  0.9192
     1 C(13)  Bbb    -0.3812   -51.156   -18.254   -17.064  0.6575  0.6553 -0.3720
              Bcc     0.7659   102.772    36.672    34.281  0.7357 -0.6648  0.1293
 
              Baa    -0.0480   -25.605    -9.137    -8.541  0.3758  0.5664  0.7335
     2 H(1)   Bbb    -0.0014    -0.729    -0.260    -0.243 -0.6149  0.7445 -0.2599
              Bcc     0.0494    26.334     9.397     8.784  0.6933  0.3533 -0.6281
 
              Baa    -0.1076   -57.394   -20.479   -19.144 -0.0778  0.1669  0.9829
     3 H(1)   Bbb    -0.0813   -43.354   -15.470   -14.461 -0.0144  0.9856 -0.1685
              Bcc     0.1888   100.748    35.949    33.606  0.9969  0.0273  0.0743
 
              Baa    -0.0462   -24.629    -8.788    -8.215  0.6322  0.7236 -0.2771
     4 H(1)   Bbb    -0.0028    -1.484    -0.529    -0.495  0.7499 -0.6614 -0.0163
              Bcc     0.0489    26.113     9.318     8.710  0.1950  0.1975  0.9607
 
              Baa    -0.0254    -3.408    -1.216    -1.137  0.1311  0.1404  0.9814
     5 C(13)  Bbb    -0.0086    -1.159    -0.414    -0.387 -0.6715  0.7409 -0.0163
              Bcc     0.0340     4.567     1.630     1.523  0.7294  0.6568 -0.1914
 
              Baa    -0.0101    -5.413    -1.932    -1.806 -0.2019  0.0783  0.9763
     6 H(1)   Bbb    -0.0010    -0.528    -0.189    -0.176  0.9559  0.2328  0.1790
              Bcc     0.0111     5.942     2.120     1.982 -0.2133  0.9694 -0.1218
 
              Baa    -0.0086    -4.592    -1.638    -1.532 -0.0932 -0.6756  0.7314
     7 H(1)   Bbb    -0.0032    -1.692    -0.604    -0.564  0.9934 -0.1129  0.0224
              Bcc     0.0118     6.283     2.242     2.096  0.0674  0.7286  0.6816
 
              Baa    -0.1803    13.050     4.657     4.353 -0.2762  0.8432 -0.4612
     8 O(17)  Bbb    -0.1247     9.022     3.219     3.009  0.9460  0.1538 -0.2853
              Bcc     0.3050   -22.072    -7.876    -7.362  0.1696  0.5151  0.8402
 
              Baa    -0.9531    68.969    24.610    23.005 -0.3168 -0.1204  0.9408
     9 O(17)  Bbb    -0.9201    66.580    23.758    22.209 -0.4543  0.8900 -0.0391
              Bcc     1.8733  -135.549   -48.367   -45.214  0.8326  0.4398  0.3367
 

 ---------------------------------------------------------------------------------

 Calling FoFJK, ICntrl=    100147 FMM=F ISym2X=0 I1Cent= 0 IOpClX= 1 NMat=1 NMatS=1 NMatT=0.
 ***** Axes restored to original set *****
 -------------------------------------------------------------------
 Center     Atomic                   Forces (Hartrees/Bohr)
 Number     Number              X              Y              Z
 -------------------------------------------------------------------
      1        6           0.004109655    0.002900776    0.000739731
      2        1          -0.002318323    0.000685613    0.001606634
      3        1          -0.005262857    0.000153156   -0.000679338
      4        1          -0.001144032   -0.000065572   -0.002630393
      5        6          -0.000482916    0.000067708    0.000418631
      6        1          -0.000777299   -0.002414022   -0.001038055
      7        1          -0.000426640   -0.000400072    0.002636093
      8        8           0.002463441    0.000417021   -0.001898690
      9        8           0.003838972   -0.001344608    0.000845388
 -------------------------------------------------------------------
 Cartesian Forces:  Max     0.005262857 RMS     0.002045888
 FormGI is forming the generalized inverse of G from B-inverse, IUseBI=4.

 GradGradGradGradGradGradGradGradGradGradGradGradGradGradGradGradGradGrad
 Berny optimization.
 Internal  Forces:  Max     0.006675773 RMS     0.002251188
 Search for a saddle point.
 Step number   1 out of a maximum of   39
 All quantities printed in internal units (Hartrees-Bohrs-Radians)
 Swapping is turned off.
 Second derivative matrix not updated -- analytic derivatives used.
 ITU=  0
     Eigenvalues ---   -0.34065   0.00447   0.02905   0.03419   0.05829
     Eigenvalues ---    0.07054   0.08912   0.10784   0.11427   0.12991
     Eigenvalues ---    0.19811   0.22876   0.26251   0.28528   0.31546
     Eigenvalues ---    0.33201   0.33559   0.34386   0.35243   0.54908
     Eigenvalues ---    1.05565
 Eigenvectors required to have negative eigenvalues:
                          R4        R8        A6        A11       A10
   1                    0.88773  -0.21545  -0.20490  -0.17812  -0.17583
                          A4        D4        D2        D6        D7
   1                    0.10772  -0.09016   0.08872  -0.08739   0.08362
 RFO step:  Lambda0=1.902592319D-04 Lambda=-1.94704263D-04.
 Linear search not attempted -- option 19 set.
 Iteration  1 RMS(Cart)=  0.00893057 RMS(Int)=  0.00003876
 Iteration  2 RMS(Cart)=  0.00003928 RMS(Int)=  0.00000074
 Iteration  3 RMS(Cart)=  0.00000000 RMS(Int)=  0.00000074
 Variable       Old X    -DE/DX   Delta X   Delta X   Delta X     New X
                                 (Linear)    (Quad)   (Total)
    R1        2.05664  -0.00284   0.00000  -0.00816  -0.00816   2.04848
    R2        2.06022  -0.00278   0.00000  -0.00810  -0.00810   2.05211
    R3        2.88311  -0.00282   0.00000  -0.00795  -0.00795   2.87515
    R4        2.25342  -0.00499   0.00000   0.02321   0.02321   2.27663
    R5        2.07088  -0.00271   0.00000  -0.00847  -0.00847   2.06240
    R6        2.07323  -0.00266   0.00000  -0.00792  -0.00792   2.06532
    R7        2.70965  -0.00150   0.00000  -0.00507  -0.00507   2.70457
    R8        2.68928   0.00139   0.00000  -0.00946  -0.00946   2.67982
    A1        1.99954  -0.00004   0.00000   0.00049   0.00049   2.00003
    A2        2.06696   0.00013   0.00000  -0.00069  -0.00069   2.06628
    A3        2.03220   0.00043   0.00000   0.00234   0.00234   2.03454
    A4        2.00281  -0.00156   0.00000  -0.00035  -0.00035   2.00246
    A5        1.92700   0.00005   0.00000   0.00096   0.00096   1.92796
    A6        1.81951   0.00322   0.00000   0.00110   0.00110   1.82061
    A7        1.91899   0.00040   0.00000   0.00154   0.00154   1.92053
    A8        1.85721  -0.00079   0.00000   0.00039   0.00039   1.85760
    A9        1.93471  -0.00129   0.00000  -0.00398  -0.00398   1.93073
   A10        1.78497   0.00668   0.00000   0.00422   0.00422   1.78919
   A11        1.64758   0.00399   0.00000   0.00039   0.00039   1.64796
    D1       -1.73388  -0.00005   0.00000  -0.01458  -0.01458  -1.74846
    D2        0.44638  -0.00068   0.00000  -0.01198  -0.01198   0.43440
    D3        2.52506  -0.00035   0.00000  -0.01557  -0.01557   2.50949
    D4        0.75937   0.00073   0.00000  -0.01105  -0.01105   0.74833
    D5        2.93964   0.00011   0.00000  -0.00846  -0.00846   2.93118
    D6       -1.26487   0.00044   0.00000  -0.01204  -0.01204  -1.27691
    D7       -0.79821  -0.00118   0.00000   0.01087   0.01087  -0.78734
    D8       -2.92188  -0.00063   0.00000   0.01053   0.01053  -2.91135
    D9        1.27522   0.00008   0.00000   0.01064   0.01064   1.28586
   D10        0.59570   0.00081   0.00000  -0.00968  -0.00968   0.58603
         Item               Value     Threshold  Converged?
 Maximum Force            0.006676     0.000450     NO 
 RMS     Force            0.002251     0.000300     NO 
 Maximum Displacement     0.027293     0.001800     NO 
 RMS     Displacement     0.008923     0.001200     NO 
 Predicted change in Energy=-2.349241D-06
 GradGradGradGradGradGradGradGradGradGradGradGradGradGradGradGradGradGrad

                          Input orientation:                          
 ---------------------------------------------------------------------
 Center     Atomic      Atomic             Coordinates (Angstroms)
 Number     Number       Type             X           Y           Z
 ---------------------------------------------------------------------
      1          6           0        1.221775   -0.566082    0.121569
      2          1           0        1.941062   -0.968824   -0.582345
      3          1           0       -0.023727   -1.137350   -0.056445
      4          1           0        1.469280   -0.732606    1.165724
      5          6           0        0.540876    0.752350   -0.214545
      6          1           0        0.961853    1.624837    0.288098
      7          1           0        0.529953    0.912034   -1.295680
      8          8           0       -0.791276    0.600289    0.286036
      9          8           0       -1.141074   -0.699199   -0.161150
 ---------------------------------------------------------------------
                    Distance matrix (angstroms):
                    1          2          3          4          5
     1  C    0.000000
     2  H    1.084007   0.000000
     3  H    1.381779   2.040923   0.000000
     4  H    1.085932   1.825958   1.971443   0.000000
     5  C    1.521466   2.249053   1.978570   2.229837   0.000000
     6  H    2.212559   2.905787   2.952923   2.566173   1.091378
     7  H    2.161490   2.457174   2.458096   3.105750   1.092919
     8  O    2.332347   3.268314   1.930237   2.767774   1.431199
     9  O    2.383423   3.122446   1.204742   2.928423   2.222342
                    6          7          8          9
     6  H    0.000000
     7  H    1.789687   0.000000
     8  O    2.030557   2.084383   0.000000
     9  O    3.166271   2.583711   1.418099   0.000000
 Stoichiometry    C2H5O2(2)
 Framework group  C1[X(C2H5O2)]
 Deg. of freedom    21
 Full point group                 C1      NOp   1
 Largest Abelian subgroup         C1      NOp   1
 Largest concise Abelian subgroup C1      NOp   1
                         Standard orientation:                         
 ---------------------------------------------------------------------
 Center     Atomic      Atomic             Coordinates (Angstroms)
 Number     Number       Type             X           Y           Z
 ---------------------------------------------------------------------
      1          6           0       -1.222388   -0.566466   -0.119613
      2          1           0       -1.941196   -0.966413    0.586382
      3          1           0        0.022943   -1.137914    0.059018
      4          1           0       -1.471076   -0.736313   -1.162951
      5          6           0       -0.540324    0.752654    0.211403
      6          1           0       -0.961280    1.623724   -0.293709
      7          1           0       -0.528184    0.915931    1.291989
      8          8           0        0.791214    0.598096   -0.290043
      9          8           0        1.140669   -0.700114    0.161109
 ---------------------------------------------------------------------
 Rotational constants (GHZ):          13.8754499           7.7739441           5.6399610
 Standard basis: CC-pVTZ+d (5D, 7F)
 There are   215 symmetry adapted cartesian basis functions of A   symmetry.
 There are   190 symmetry adapted basis functions of A   symmetry.
   190 basis functions,   293 primitive gaussians,   215 cartesian basis functions
    17 alpha electrons       16 beta electrons
       nuclear repulsion energy       129.1441604565 Hartrees.
 NAtoms=    9 NActive=    9 NUniq=    9 SFac= 1.00D+00 NAtFMM=   60 NAOKFM=F Big=F
 Integral buffers will be    131072 words long.
 Raffenetti 2 integral format.
 Two-electron integral symmetry is turned on.
 One-electron integrals computed using PRISM.
 NBasis=   190 RedAO= T EigKep=  8.78D-04  NBF=   190
 NBsUse=   190 1.00D-06 EigRej= -1.00D+00 NBFU=   190
 Initial guess from the checkpoint file:  "RetO2-H-Transfer-TS2-B3LYP-A.chk"
 B after Tr=     0.000000    0.000000   -0.000000
         Rot=    1.000000    0.000526   -0.000003    0.000256 Ang=   0.07 deg.
 Initial guess <Sx>= 0.0000 <Sy>= 0.0000 <Sz>= 0.5000 <S**2>= 0.7588 S= 0.5044
 ExpMin= 1.03D-01 ExpMax= 1.53D+04 ExpMxC= 5.22D+02 IAcc=3 IRadAn=         5 AccDes= 0.00D+00
 Harris functional with IExCor=  402 and IRadAn=       5 diagonalized for initial guess.
 HarFok:  IExCor=  402 AccDes= 0.00D+00 IRadAn=         5 IDoV= 1 UseB2=F ITyADJ=14
 ICtDFT=  3500011 ScaDFX=  1.000000  1.000000  1.000000  1.000000
 FoFCou: FMM=F IPFlag=           0 FMFlag=      100000 FMFlg1=           0
         NFxFlg=           0 DoJE=T BraDBF=F KetDBF=T FulRan=T
         wScrn=  0.000000 ICntrl=       500 IOpCl=  0 I1Cent=   200000004 NGrid=           0
         NMat0=    1 NMatS0=      1 NMatT0=    0 NMatD0=    1 NMtDS0=    0 NMtDT0=    0
 Petite list used in FoFCou.
 Keep R1 and R2 ints in memory in canonical form, NReq=354287669.
 Requested convergence on RMS density matrix=1.00D-08 within 128 cycles.
 Requested convergence on MAX density matrix=1.00D-06.
 Requested convergence on             energy=1.00D-06.
 No special actions if energy rises.
 Integral accuracy reduced to 1.0D-05 until final iterations.
 Initial convergence to 1.0D-05 achieved.  Increase integral accuracy.
 SCF Done:  E(UB3LYP) =  -229.561965013     A.U. after   16 cycles
            NFock= 16  Conv=0.38D-08     -V/T= 2.0062
 <Sx>= 0.0000 <Sy>= 0.0000 <Sz>= 0.5000 <S**2>= 0.7589 S= 0.5044
 <L.S>= 0.000000000000E+00
 Annihilation of the first spin contaminant:
 S**2 before annihilation     0.7589,   after     0.7500
 Calling FoFJK, ICntrl=      2127 FMM=F ISym2X=0 I1Cent= 0 IOpClX= 1 NMat=1 NMatS=1 NMatT=0.
 ***** Axes restored to original set *****
 -------------------------------------------------------------------
 Center     Atomic                   Forces (Hartrees/Bohr)
 Number     Number              X              Y              Z
 -------------------------------------------------------------------
      1        6           0.000016494   -0.000031451   -0.000002184
      2        1           0.000037363    0.000001847   -0.000018990
      3        1           0.000113238    0.000008506    0.000033349
      4        1           0.000027004    0.000013126    0.000029325
      5        6           0.000070243   -0.000037906   -0.000024096
      6        1           0.000002169    0.000027268    0.000018362
      7        1          -0.000003254    0.000014476   -0.000023968
      8        8          -0.000076464   -0.000140741   -0.000011598
      9        8          -0.000186794    0.000144875   -0.000000200
 -------------------------------------------------------------------
 Cartesian Forces:  Max     0.000186794 RMS     0.000063624

 GradGradGradGradGradGradGradGradGradGradGradGradGradGradGradGradGradGrad
 Berny optimization.
 FormGI is forming the generalized inverse of G from B-inverse, IUseBI=4.
 Internal  Forces:  Max     0.000163425 RMS     0.000069077
 Search for a saddle point.
 Step number   2 out of a maximum of   39
 All quantities printed in internal units (Hartrees-Bohrs-Radians)
 Swapping is turned off.
 Update second derivatives using D2CorX and points    1    2
 ITU=  0  0
     Eigenvalues ---   -0.34212   0.00467   0.02914   0.03450   0.05828
     Eigenvalues ---    0.07061   0.08914   0.10785   0.11432   0.12989
     Eigenvalues ---    0.19805   0.22870   0.26201   0.28532   0.31548
     Eigenvalues ---    0.33231   0.33589   0.34397   0.35256   0.54973
     Eigenvalues ---    1.05461
 Eigenvectors required to have negative eigenvalues:
                          R4        R8        A6        A11       A10
   1                    0.88779  -0.21761  -0.20301  -0.17946  -0.17424
                          A4        D4        D6        D2        D7
   1                    0.10688  -0.09115  -0.08833   0.08757   0.08316
 RFO step:  Lambda0=1.644923484D-08 Lambda=-2.78660027D-07.
 Linear search not attempted -- option 19 set.
 Iteration  1 RMS(Cart)=  0.00055741 RMS(Int)=  0.00000012
 Iteration  2 RMS(Cart)=  0.00000013 RMS(Int)=  0.00000001
 Variable       Old X    -DE/DX   Delta X   Delta X   Delta X     New X
                                 (Linear)    (Quad)   (Total)
    R1        2.04848   0.00004   0.00000   0.00009   0.00009   2.04857
    R2        2.05211   0.00003   0.00000   0.00008   0.00008   2.05220
    R3        2.87515   0.00005   0.00000   0.00004   0.00004   2.87520
    R4        2.27663   0.00010   0.00000  -0.00032  -0.00032   2.27631
    R5        2.06240   0.00003   0.00000   0.00010   0.00010   2.06250
    R6        2.06532   0.00003   0.00000   0.00006   0.00006   2.06537
    R7        2.70457   0.00015   0.00000   0.00030   0.00030   2.70487
    R8        2.67982  -0.00013   0.00000  -0.00044  -0.00044   2.67938
    A1        2.00003   0.00000   0.00000  -0.00004  -0.00004   1.99999
    A2        2.06628  -0.00001   0.00000  -0.00014  -0.00014   2.06614
    A3        2.03454  -0.00001   0.00000   0.00003   0.00003   2.03457
    A4        2.00246  -0.00005   0.00000  -0.00009  -0.00009   2.00237
    A5        1.92796  -0.00001   0.00000   0.00011   0.00011   1.92807
    A6        1.82061   0.00016   0.00000   0.00028   0.00028   1.82089
    A7        1.92053   0.00001   0.00000   0.00001   0.00001   1.92053
    A8        1.85760  -0.00006   0.00000  -0.00025  -0.00025   1.85735
    A9        1.93073  -0.00005   0.00000  -0.00007  -0.00007   1.93066
   A10        1.78919   0.00015   0.00000   0.00021   0.00021   1.78940
   A11        1.64796  -0.00012   0.00000  -0.00025  -0.00025   1.64771
    D1       -1.74846   0.00003   0.00000  -0.00070  -0.00070  -1.74916
    D2        0.43440  -0.00001   0.00000  -0.00067  -0.00067   0.43373
    D3        2.50949   0.00002   0.00000  -0.00054  -0.00054   2.50895
    D4        0.74833  -0.00000   0.00000  -0.00094  -0.00094   0.74739
    D5        2.93118  -0.00004   0.00000  -0.00091  -0.00091   2.93027
    D6       -1.27691  -0.00001   0.00000  -0.00077  -0.00077  -1.27769
    D7       -0.78734  -0.00005   0.00000  -0.00027  -0.00027  -0.78761
    D8       -2.91135  -0.00004   0.00000  -0.00019  -0.00019  -2.91154
    D9        1.28586   0.00001   0.00000  -0.00001  -0.00001   1.28586
   D10        0.58603   0.00002   0.00000   0.00040   0.00040   0.58643
         Item               Value     Threshold  Converged?
 Maximum Force            0.000163     0.000450     YES
 RMS     Force            0.000069     0.000300     YES
 Maximum Displacement     0.001743     0.001800     YES
 RMS     Displacement     0.000557     0.001200     YES
 Predicted change in Energy=-1.311054D-07
 Optimization completed.
    -- Stationary point found.
                           ----------------------------
                           !   Optimized Parameters   !
                           ! (Angstroms and Degrees)  !
 --------------------------                            --------------------------
 ! Name  Definition              Value          Derivative Info.                !
 --------------------------------------------------------------------------------
 ! R1    R(1,2)                  1.084          -DE/DX =    0.0                 !
 ! R2    R(1,4)                  1.0859         -DE/DX =    0.0                 !
 ! R3    R(1,5)                  1.5215         -DE/DX =    0.0001              !
 ! R4    R(3,9)                  1.2047         -DE/DX =    0.0001              !
 ! R5    R(5,6)                  1.0914         -DE/DX =    0.0                 !
 ! R6    R(5,7)                  1.0929         -DE/DX =    0.0                 !
 ! R7    R(5,8)                  1.4312         -DE/DX =    0.0001              !
 ! R8    R(8,9)                  1.4181         -DE/DX =   -0.0001              !
 ! A1    A(2,1,4)              114.5932         -DE/DX =    0.0                 !
 ! A2    A(2,1,5)              118.3889         -DE/DX =    0.0                 !
 ! A3    A(4,1,5)              116.5705         -DE/DX =    0.0                 !
 ! A4    A(1,5,6)              114.7327         -DE/DX =   -0.0001              !
 ! A5    A(1,5,7)              110.4638         -DE/DX =    0.0                 !
 ! A6    A(1,5,8)              104.3131         -DE/DX =    0.0002              !
 ! A7    A(6,5,7)              110.0381         -DE/DX =    0.0                 !
 ! A8    A(6,5,8)              106.4326         -DE/DX =   -0.0001              !
 ! A9    A(7,5,8)              110.6227         -DE/DX =   -0.0001              !
 ! A10   A(5,8,9)              102.5131         -DE/DX =    0.0002              !
 ! A11   A(3,9,8)               94.4213         -DE/DX =   -0.0001              !
 ! D1    D(2,1,5,6)           -100.1793         -DE/DX =    0.0                 !
 ! D2    D(2,1,5,7)             24.8892         -DE/DX =    0.0                 !
 ! D3    D(2,1,5,8)            143.7831         -DE/DX =    0.0                 !
 ! D4    D(4,1,5,6)             42.8759         -DE/DX =    0.0                 !
 ! D5    D(4,1,5,7)            167.9444         -DE/DX =    0.0                 !
 ! D6    D(4,1,5,8)            -73.1617         -DE/DX =    0.0                 !
 ! D7    D(1,5,8,9)            -45.1112         -DE/DX =    0.0                 !
 ! D8    D(6,5,8,9)           -166.8081         -DE/DX =    0.0                 !
 ! D9    D(7,5,8,9)             73.6746         -DE/DX =    0.0                 !
 ! D10   D(5,8,9,3)             33.5768         -DE/DX =    0.0                 !
 --------------------------------------------------------------------------------
 GradGradGradGradGradGradGradGradGradGradGradGradGradGradGradGradGradGrad

                          Input orientation:                          
 ---------------------------------------------------------------------
 Center     Atomic      Atomic             Coordinates (Angstroms)
 Number     Number       Type             X           Y           Z
 ---------------------------------------------------------------------
      1          6           0        1.221775   -0.566082    0.121569
      2          1           0        1.941062   -0.968824   -0.582345
      3          1           0       -0.023727   -1.137350   -0.056445
      4          1           0        1.469280   -0.732606    1.165724
      5          6           0        0.540876    0.752350   -0.214545
      6          1           0        0.961853    1.624837    0.288098
      7          1           0        0.529953    0.912034   -1.295680
      8          8           0       -0.791276    0.600289    0.286036
      9          8           0       -1.141074   -0.699199   -0.161150
 ---------------------------------------------------------------------
                    Distance matrix (angstroms):
                    1          2          3          4          5
     1  C    0.000000
     2  H    1.084007   0.000000
     3  H    1.381779   2.040923   0.000000
     4  H    1.085932   1.825958   1.971443   0.000000
     5  C    1.521466   2.249053   1.978570   2.229837   0.000000
     6  H    2.212559   2.905787   2.952923   2.566173   1.091378
     7  H    2.161490   2.457174   2.458096   3.105750   1.092919
     8  O    2.332347   3.268314   1.930237   2.767774   1.431199
     9  O    2.383423   3.122446   1.204742   2.928423   2.222342
                    6          7          8          9
     6  H    0.000000
     7  H    1.789687   0.000000
     8  O    2.030557   2.084383   0.000000
     9  O    3.166271   2.583711   1.418099   0.000000
 Stoichiometry    C2H5O2(2)
 Framework group  C1[X(C2H5O2)]
 Deg. of freedom    21
 Full point group                 C1      NOp   1
 Largest Abelian subgroup         C1      NOp   1
 Largest concise Abelian subgroup C1      NOp   1
                         Standard orientation:                         
 ---------------------------------------------------------------------
 Center     Atomic      Atomic             Coordinates (Angstroms)
 Number     Number       Type             X           Y           Z
 ---------------------------------------------------------------------
      1          6           0       -1.222388   -0.566466   -0.119613
      2          1           0       -1.941196   -0.966413    0.586382
      3          1           0        0.022943   -1.137914    0.059018
      4          1           0       -1.471076   -0.736313   -1.162951
      5          6           0       -0.540324    0.752654    0.211403
      6          1           0       -0.961280    1.623724   -0.293709
      7          1           0       -0.528184    0.915931    1.291989
      8          8           0        0.791214    0.598096   -0.290043
      9          8           0        1.140669   -0.700114    0.161109
 ---------------------------------------------------------------------
 Rotational constants (GHZ):          13.8754499           7.7739441           5.6399610

 **********************************************************************

            Population analysis using the SCF Density.

 **********************************************************************

 Orbital symmetries:
 Alpha Orbitals:
       Occupied  (A) (A) (A) (A) (A) (A) (A) (A) (A) (A) (A) (A)
                 (A) (A) (A) (A) (A)
       Virtual   (A) (A) (A) (A) (A) (A) (A) (A) (A) (A) (A) (A)
                 (A) (A) (A) (A) (A) (A) (A) (A) (A) (A) (A) (A)
                 (A) (A) (A) (A) (A) (A) (A) (A) (A) (A) (A) (A)
                 (A) (A) (A) (A) (A) (A) (A) (A) (A) (A) (A) (A)
                 (A) (A) (A) (A) (A) (A) (A) (A) (A) (A) (A) (A)
                 (A) (A) (A) (A) (A) (A) (A) (A) (A) (A) (A) (A)
                 (A) (A) (A) (A) (A) (A) (A) (A) (A) (A) (A) (A)
                 (A) (A) (A) (A) (A) (A) (A) (A) (A) (A) (A) (A)
                 (A) (A) (A) (A) (A) (A) (A) (A) (A) (A) (A) (A)
                 (A) (A) (A) (A) (A) (A) (A) (A) (A) (A) (A) (A)
                 (A) (A) (A) (A) (A) (A) (A) (A) (A) (A) (A) (A)
                 (A) (A) (A) (A) (A) (A) (A) (A) (A) (A) (A) (A)
                 (A) (A) (A) (A) (A) (A) (A) (A) (A) (A) (A) (A)
                 (A) (A) (A) (A) (A) (A) (A) (A) (A) (A) (A) (A)
                 (A) (A) (A) (A) (A)
 Beta  Orbitals:
       Occupied  (A) (A) (A) (A) (A) (A) (A) (A) (A) (A) (A) (A)
                 (A) (A) (A) (A)
       Virtual   (A) (A) (A) (A) (A) (A) (A) (A) (A) (A) (A) (A)
                 (A) (A) (A) (A) (A) (A) (A) (A) (A) (A) (A) (A)
                 (A) (A) (A) (A) (A) (A) (A) (A) (A) (A) (A) (A)
                 (A) (A) (A) (A) (A) (A) (A) (A) (A) (A) (A) (A)
                 (A) (A) (A) (A) (A) (A) (A) (A) (A) (A) (A) (A)
                 (A) (A) (A) (A) (A) (A) (A) (A) (A) (A) (A) (A)
                 (A) (A) (A) (A) (A) (A) (A) (A) (A) (A) (A) (A)
                 (A) (A) (A) (A) (A) (A) (A) (A) (A) (A) (A) (A)
                 (A) (A) (A) (A) (A) (A) (A) (A) (A) (A) (A) (A)
                 (A) (A) (A) (A) (A) (A) (A) (A) (A) (A) (A) (A)
                 (A) (A) (A) (A) (A) (A) (A) (A) (A) (A) (A) (A)
                 (A) (A) (A) (A) (A) (A) (A) (A) (A) (A) (A) (A)
                 (A) (A) (A) (A) (A) (A) (A) (A) (A) (A) (A) (A)
                 (A) (A) (A) (A) (A) (A) (A) (A) (A) (A) (A) (A)
                 (A) (A) (A) (A) (A) (A)
 The electronic state is 2-A.
 Alpha  occ. eigenvalues --  -19.19919 -19.19585 -10.24614 -10.21419  -1.14154
 Alpha  occ. eigenvalues --   -0.89016  -0.77722  -0.62783  -0.54537  -0.50902
 Alpha  occ. eigenvalues --   -0.47988  -0.43713  -0.40538  -0.38548  -0.34939
 Alpha  occ. eigenvalues --   -0.27616  -0.26054
 Alpha virt. eigenvalues --    0.02548   0.03914   0.06988   0.07189   0.11749
 Alpha virt. eigenvalues --    0.12483   0.14561   0.18133   0.22806   0.24254
 Alpha virt. eigenvalues --    0.27291   0.33750   0.35265   0.38789   0.39372
 Alpha virt. eigenvalues --    0.41239   0.42453   0.45409   0.45841   0.48969
 Alpha virt. eigenvalues --    0.49304   0.50356   0.58513   0.62917   0.65111
 Alpha virt. eigenvalues --    0.69012   0.72246   0.75751   0.77826   0.79480
 Alpha virt. eigenvalues --    0.82204   0.88544   0.91132   0.95855   0.98873
 Alpha virt. eigenvalues --    1.00382   1.01579   1.03721   1.05333   1.09405
 Alpha virt. eigenvalues --    1.11633   1.14649   1.19371   1.24022   1.26392
 Alpha virt. eigenvalues --    1.27073   1.30922   1.32731   1.35324   1.38218
 Alpha virt. eigenvalues --    1.45014   1.47047   1.50977   1.51214   1.58058
 Alpha virt. eigenvalues --    1.67267   1.82504   1.88280   1.90324   2.00279
 Alpha virt. eigenvalues --    2.05493   2.08306   2.11824   2.24334   2.27234
 Alpha virt. eigenvalues --    2.29401   2.30449   2.39854   2.40390   2.41514
 Alpha virt. eigenvalues --    2.49497   2.54334   2.61997   2.67625   2.68718
 Alpha virt. eigenvalues --    2.75677   2.81548   2.86461   2.88505   2.89219
 Alpha virt. eigenvalues --    2.92338   2.95886   2.97410   2.98510   3.02541
 Alpha virt. eigenvalues --    3.04035   3.07632   3.10837   3.13759   3.18776
 Alpha virt. eigenvalues --    3.23622   3.27702   3.29812   3.35645   3.38125
 Alpha virt. eigenvalues --    3.40568   3.42892   3.47609   3.48541   3.57543
 Alpha virt. eigenvalues --    3.60696   3.61294   3.68612   3.70450   3.73011
 Alpha virt. eigenvalues --    3.74839   3.78208   3.83168   3.83308   3.86881
 Alpha virt. eigenvalues --    3.89881   3.96554   3.98380   4.03888   4.05479
 Alpha virt. eigenvalues --    4.07386   4.10036   4.13740   4.17641   4.19912
 Alpha virt. eigenvalues --    4.22578   4.30023   4.32699   4.38581   4.46012
 Alpha virt. eigenvalues --    4.49025   4.56422   4.62017   4.71580   4.74640
 Alpha virt. eigenvalues --    4.79230   4.84525   4.85873   4.88135   4.89638
 Alpha virt. eigenvalues --    4.95019   4.96907   5.05128   5.06830   5.11749
 Alpha virt. eigenvalues --    5.22850   5.24337   5.25855   5.30855   5.36018
 Alpha virt. eigenvalues --    5.41350   5.49114   5.54826   5.64461   5.73245
 Alpha virt. eigenvalues --    5.76578   5.82582   5.88296   5.91527   5.97817
 Alpha virt. eigenvalues --    6.05489   6.13869   6.32305   6.41343   6.49511
 Alpha virt. eigenvalues --    6.54472   6.72978   6.76758   6.84235   6.90887
 Alpha virt. eigenvalues --    6.99683   7.24764   7.26256   7.52555   9.72944
 Alpha virt. eigenvalues --   10.16449  11.56899  12.60913
  Beta  occ. eigenvalues --  -19.19742 -19.18324 -10.24632 -10.20525  -1.12844
  Beta  occ. eigenvalues --   -0.86985  -0.75971  -0.61610  -0.52383  -0.50238
  Beta  occ. eigenvalues --   -0.47161  -0.42560  -0.38545  -0.37516  -0.33914
  Beta  occ. eigenvalues --   -0.24976
  Beta virt. eigenvalues --   -0.14507   0.03240   0.04208   0.07283   0.07339
  Beta virt. eigenvalues --    0.12005   0.13077   0.16132   0.18698   0.23050
  Beta virt. eigenvalues --    0.24928   0.27569   0.33947   0.36278   0.39865
  Beta virt. eigenvalues --    0.40536   0.41369   0.42809   0.45931   0.46259
  Beta virt. eigenvalues --    0.49478   0.50018   0.50935   0.59594   0.63317
  Beta virt. eigenvalues --    0.65642   0.69607   0.72736   0.76235   0.78166
  Beta virt. eigenvalues --    0.80223   0.82361   0.88936   0.91397   0.96521
  Beta virt. eigenvalues --    0.99569   1.00780   1.01977   1.04016   1.05511
  Beta virt. eigenvalues --    1.09888   1.12432   1.15520   1.20113   1.24268
  Beta virt. eigenvalues --    1.26691   1.27567   1.31760   1.33246   1.35864
  Beta virt. eigenvalues --    1.39151   1.45432   1.48158   1.51543   1.52081
  Beta virt. eigenvalues --    1.58521   1.68196   1.83677   1.88839   1.90717
  Beta virt. eigenvalues --    2.01153   2.07061   2.08894   2.12994   2.25198
  Beta virt. eigenvalues --    2.27669   2.30728   2.31382   2.40433   2.41018
  Beta virt. eigenvalues --    2.42076   2.50258   2.55438   2.62476   2.68744
  Beta virt. eigenvalues --    2.70016   2.76222   2.82357   2.87684   2.89008
  Beta virt. eigenvalues --    2.90346   2.93404   2.96506   2.97757   2.99366
  Beta virt. eigenvalues --    3.03229   3.05103   3.08393   3.11739   3.15235
  Beta virt. eigenvalues --    3.19888   3.24262   3.28579   3.30229   3.36381
  Beta virt. eigenvalues --    3.39081   3.41064   3.43398   3.47792   3.49167
  Beta virt. eigenvalues --    3.57642   3.61015   3.61872   3.68829   3.70670
  Beta virt. eigenvalues --    3.73238   3.75388   3.78753   3.82995   3.83806
  Beta virt. eigenvalues --    3.86963   3.90210   3.97051   3.98780   4.04099
  Beta virt. eigenvalues --    4.05832   4.07606   4.10361   4.13979   4.17958
  Beta virt. eigenvalues --    4.20131   4.23729   4.30350   4.33440   4.39259
  Beta virt. eigenvalues --    4.46727   4.49440   4.57017   4.62311   4.72071
  Beta virt. eigenvalues --    4.75191   4.79809   4.85531   4.86424   4.88694
  Beta virt. eigenvalues --    4.90197   4.95359   4.98027   5.06329   5.07701
  Beta virt. eigenvalues --    5.12368   5.23714   5.25055   5.26570   5.32042
  Beta virt. eigenvalues --    5.36448   5.42064   5.49754   5.55189   5.65102
  Beta virt. eigenvalues --    5.74080   5.77279   5.83365   5.89228   5.93343
  Beta virt. eigenvalues --    5.98975   6.06319   6.14860   6.34420   6.42366
  Beta virt. eigenvalues --    6.51950   6.58285   6.74348   6.77489   6.85081
  Beta virt. eigenvalues --    6.93323   7.00958   7.26122   7.27229   7.53537
  Beta virt. eigenvalues --    9.74551  10.16932  11.57529  12.61494
          Condensed to atoms (all electrons):
               1          2          3          4          5          6
     1  C    5.203820   0.385699   0.259687   0.366557   0.306743  -0.025058
     2  H    0.385699   0.561416  -0.011969  -0.029232  -0.024255   0.000218
     3  H    0.259687  -0.011969   0.469214  -0.011201  -0.034291   0.002626
     4  H    0.366557  -0.029232  -0.011201   0.561490  -0.019391  -0.005939
     5  C    0.306743  -0.024255  -0.034291  -0.019391   4.678591   0.397973
     6  H   -0.025058   0.000218   0.002626  -0.005939   0.397973   0.602597
     7  H   -0.062913  -0.001638  -0.005990   0.009385   0.403137  -0.043790
     8  O   -0.060565   0.004788  -0.048326   0.008843   0.309894  -0.024500
     9  O   -0.089668  -0.000058   0.191056   0.000062  -0.062628   0.005202
               7          8          9
     1  C   -0.062913  -0.060565  -0.089668
     2  H   -0.001638   0.004788  -0.000058
     3  H   -0.005990  -0.048326   0.191056
     4  H    0.009385   0.008843   0.000062
     5  C    0.403137   0.309894  -0.062628
     6  H   -0.043790  -0.024500   0.005202
     7  H    0.648199  -0.041375   0.014710
     8  O   -0.041375   7.896281   0.106264
     9  O    0.014710   0.106264   8.038277
          Atomic-Atomic Spin Densities.
               1          2          3          4          5          6
     1  C    0.614360   0.007229   0.024308   0.010923   0.009233  -0.009164
     2  H    0.007229  -0.023530   0.000967   0.002341  -0.000147  -0.000469
     3  H    0.024308   0.000967  -0.082164   0.003539   0.015292  -0.000056
     4  H    0.010923   0.002341   0.003539  -0.024505  -0.003560  -0.000112
     5  C    0.009233  -0.000147   0.015292  -0.003560  -0.018383   0.008398
     6  H   -0.009164  -0.000469  -0.000056  -0.000112   0.008398   0.011348
     7  H   -0.000284  -0.000422   0.002196  -0.000598   0.002734   0.002548
     8  O    0.004635  -0.000178   0.005461  -0.000765  -0.005962  -0.002161
     9  O   -0.063752   0.000764  -0.019146   0.001022  -0.005507  -0.000938
               7          8          9
     1  C   -0.000284   0.004635  -0.063752
     2  H   -0.000422  -0.000178   0.000764
     3  H    0.002196   0.005461  -0.019146
     4  H   -0.000598  -0.000765   0.001022
     5  C    0.002734  -0.005962  -0.005507
     6  H    0.002548  -0.002161  -0.000938
     7  H   -0.000808  -0.002948  -0.002046
     8  O   -0.002948   0.079542  -0.029222
     9  O   -0.002046  -0.029222   0.535842
 Mulliken charges and spin densities:
               1          2
     1  C   -0.284302   0.597488
     2  H    0.115030  -0.013446
     3  H    0.189194  -0.049603
     4  H    0.119426  -0.011717
     5  C    0.044228   0.002098
     6  H    0.090670   0.009392
     7  H    0.080275   0.000371
     8  O   -0.151305   0.048401
     9  O   -0.203216   0.417016
 Sum of Mulliken charges =  -0.00000   1.00000
 Mulliken charges and spin densities with hydrogens summed into heavy atoms:
               1          2
     1  C   -0.049846   0.572325
     5  C    0.215173   0.011861
     8  O   -0.151305   0.048401
     9  O   -0.014022   0.367413
 Electronic spatial extent (au):  <R**2>=            256.1220
 Charge=             -0.0000 electrons
 Dipole moment (field-independent basis, Debye):
    X=             -3.0082    Y=              0.2413    Z=              0.3397  Tot=              3.0370
 Quadrupole moment (field-independent basis, Debye-Ang):
   XX=            -25.9827   YY=            -23.6826   ZZ=            -24.3415
   XY=              0.2115   XZ=              0.2536   YZ=              0.3318
 Traceless Quadrupole moment (field-independent basis, Debye-Ang):
   XX=             -1.3137   YY=              0.9863   ZZ=              0.3275
   XY=              0.2115   XZ=              0.2536   YZ=              0.3318
 Octapole moment (field-independent basis, Debye-Ang**2):
  XXX=              3.9243  YYY=              1.1254  ZZZ=             -0.4657  XYY=             -0.0157
  XXY=              0.0913  XXZ=              0.3368  XZZ=              0.5677  YZZ=              0.0924
  YYZ=             -0.1016  XYZ=              0.5919
 Hexadecapole moment (field-independent basis, Debye-Ang**3):
 XXXX=           -174.2670 YYYY=           -101.9266 ZZZZ=            -42.0311 XXXY=              1.9838
 XXXZ=             -1.6176 YYYX=             -4.0119 YYYZ=             -3.2810 ZZZX=              0.6184
 ZZZY=              0.4532 XXYY=            -46.6956 XXZZ=            -34.8584 YYZZ=            -24.4063
 XXYZ=             -1.2759 YYXZ=              0.5753 ZZXY=              0.4416
 N-N= 1.291441604565D+02 E-N=-7.968204071384D+02  KE= 2.281401432542D+02
                          Isotropic Fermi Contact Couplings
        Atom                 a.u.       MegaHertz       Gauss      10(-4) cm-1
     1  C(13)              0.05242      58.93473      21.02938      19.65851
     2  H(1)              -0.00658     -29.42967     -10.50124      -9.81668
     3  H(1)              -0.02770    -123.80906     -44.17815     -41.29826
     4  H(1)              -0.00478     -21.36676      -7.62419      -7.12718
     5  C(13)             -0.01400     -15.73639      -5.61513      -5.24909
     6  H(1)               0.00617      27.58074       9.84149       9.19994
     7  H(1)               0.00015       0.68025       0.24273       0.22691
     8  O(17)              0.05955     -36.09665     -12.88018     -12.04055
     9  O(17)              0.01796     -10.88773      -3.88501      -3.63175
 --------------------------------------------------------
       Center         ----  Spin Dipole Couplings  ----
                      3XX-RR        3YY-RR        3ZZ-RR
 --------------------------------------------------------
     1   Atom        0.229745      0.121420     -0.351165
     2   Atom        0.015364     -0.009413     -0.005951
     3   Atom        0.185169     -0.080569     -0.104601
     4   Atom       -0.016830     -0.022578      0.039408
     5   Atom        0.015595      0.007756     -0.023351
     6   Atom       -0.000500      0.010036     -0.009536
     7   Atom       -0.002914      0.002114      0.000800
     8   Atom       -0.132731     -0.059844      0.192574
     9   Atom        1.022039     -0.404078     -0.617962
 --------------------------------------------------------
                        XY            XZ            YZ
 --------------------------------------------------------
     1   Atom       -0.537544      0.098165     -0.090324
     2   Atom        0.002212     -0.033677     -0.029713
     3   Atom        0.007546      0.020368     -0.004199
     4   Atom       -0.017036      0.017314      0.018103
     5   Atom        0.019150     -0.007521     -0.007024
     6   Atom       -0.002584      0.002020     -0.002183
     7   Atom       -0.000055      0.000390      0.009852
     8   Atom        0.061374      0.073175      0.235397
     9   Atom        1.061983      0.883667      0.469544
 --------------------------------------------------------


 ---------------------------------------------------------------------------------
              Anisotropic Spin Dipole Couplings in Principal Axis System
 ---------------------------------------------------------------------------------

       Atom             a.u.   MegaHertz   Gauss  10(-4) cm-1        Axes

              Baa    -0.3680   -49.380   -17.620   -16.471  0.1338  0.3201  0.9379
     1 C(13)  Bbb    -0.3643   -48.884   -17.443   -16.306  0.6636  0.6740 -0.3247
              Bcc     0.7323    98.264    35.063    32.777  0.7361 -0.6658  0.1222
 
              Baa    -0.0464   -24.737    -8.827    -8.252  0.3791  0.5660  0.7321
     2 H(1)   Bbb    -0.0011    -0.588    -0.210    -0.196 -0.6191  0.7431 -0.2539
              Bcc     0.0475    25.326     9.037     8.448  0.6877  0.3570 -0.6321
 
              Baa    -0.1069   -57.024   -20.348   -19.021 -0.0730  0.1776  0.9814
     3 H(1)   Bbb    -0.0799   -42.638   -15.214   -14.223 -0.0142  0.9837 -0.1791
              Bcc     0.1868    99.662    35.562    33.244  0.9972  0.0271  0.0693
 
              Baa    -0.0444   -23.712    -8.461    -7.909  0.6266  0.7250 -0.2859
     4 H(1)   Bbb    -0.0025    -1.316    -0.470    -0.439  0.7513 -0.6594 -0.0256
              Bcc     0.0469    25.028     8.931     8.348  0.2071  0.1988  0.9579
 
              Baa    -0.0252    -3.388    -1.209    -1.130  0.1140  0.1431  0.9831
     5 C(13)  Bbb    -0.0078    -1.053    -0.376    -0.351 -0.6394  0.7679 -0.0377
              Bcc     0.0331     4.440     1.584     1.481  0.7603  0.6244 -0.1790
 
              Baa    -0.0101    -5.389    -1.923    -1.797 -0.1839  0.0826  0.9795
     6 H(1)   Bbb    -0.0009    -0.461    -0.165    -0.154  0.9534  0.2575  0.1573
              Bcc     0.0110     5.850     2.087     1.951 -0.2393  0.9627 -0.1261
 
              Baa    -0.0084    -4.501    -1.606    -1.501 -0.0584 -0.6815  0.7295
     7 H(1)   Bbb    -0.0029    -1.547    -0.552    -0.516  0.9982 -0.0515  0.0318
              Bcc     0.0113     6.048     2.158     2.017  0.0159  0.7300  0.6833
 
              Baa    -0.2048    14.821     5.288     4.944 -0.2617  0.8508 -0.4558
     8 O(17)  Bbb    -0.1470    10.637     3.796     3.548  0.9460  0.1325 -0.2957
              Bcc     0.3518   -25.458    -9.084    -8.492  0.1912  0.5086  0.8395
 
              Baa    -1.0043    72.668    25.930    24.240 -0.3347 -0.1372  0.9323
     9 O(17)  Bbb    -0.9701    70.199    25.049    23.416 -0.4584  0.8881 -0.0339
              Bcc     1.9744  -142.867   -50.978   -47.655  0.8233  0.4387  0.3601
 

 ---------------------------------------------------------------------------------

 1\1\GINC-CNODE0093\FTS\UB3LYP\CC-pVTZ+d\C2H5O2(2)\KOTUKILE\28-Feb-2022
 \0\\# opt=(calcfc,ts,noeigentest) freq ub3lyp cc-pvtz+d\\RetO2-H-Trans
 fer-TS2-B3LYP-A\\0,2\C,1.2217751317,-0.5660818126,0.1215687042\H,1.941
 0620226,-0.9688244466,-0.5823454168\H,-0.0237271846,-1.1373498979,-0.0
 564452049\H,1.4692802313,-0.7326060802,1.1657237703\C,0.5408757241,0.7
 523502615,-0.2145447858\H,0.9618532665,1.6248368229,0.2880983514\H,0.5
 299525435,0.9120340048,-1.2956799262\O,-0.7912756242,0.600289494,0.286
 0356041\O,-1.1410741109,-0.699199346,-0.1611500964\\Version=ES64L-G16R
 evB.01\State=2-A\HF=-229.561965\S2=0.75889\S2-1=0.\S2A=0.750037\RMSD=3
 .842e-09\RMSF=6.362e-05\Dipole=1.1837279,0.0937471,-0.1327363\Quadrupo
 le=-0.97732,0.731824,0.2454959,-0.1553253,0.1876222,-0.2486195\PG=C01 
 [X(C2H5O2)]\\@


 THE WORLD IS MADE UP OF THE WILLS, THE WON'TS, AND THE CANT'S:
 THE WILLS DO EVERYTHING,
 THE WON'TS DO NOTHING,
 THE CAN'TS CAN'T DO ANYTHING.

                               -- FROM WALT DISNEY'S "BLACK HOLE"
 Job cpu time:       0 days  0 hours  0 minutes 42.3 seconds.
 Elapsed time:       0 days  0 hours  1 minutes 42.6 seconds.
 File lengths (MBytes):  RWF=     58 Int=      0 D2E=      0 Chk=      5 Scr=      1
 Normal termination of Gaussian 16 at Mon Feb 28 10:16:09 2022.
 Link1:  Proceeding to internal job step number  2.
 ---------------------------------------------------------------------
 #N Geom=AllCheck Guess=TCheck SCRF=Check GenChk UB3LYP/CC-pVTZ+d Freq
 ---------------------------------------------------------------------
 1/5=1,10=4,11=1,29=7,30=1,38=1,40=1/1,3;
 2/12=2,40=1/2;
 3/5=16,6=1,7=9,11=2,14=-4,25=1,30=1,70=2,71=2,74=-5,116=2,140=1/1,2,3;
 4/5=101/1;
 5/5=2,38=6,98=1/2;
 8/6=4,10=90,11=11/1;
 11/6=1,8=1,9=11,15=111,16=1/1,2,10;
 10/6=1/2;
 6/7=2,8=2,9=2,10=2,28=1/1;
 7/8=1,10=1,25=1/1,2,3,16;
 1/5=1,10=4,11=1,30=1/3;
 99//99;
 Structure from the checkpoint file:  "RetO2-H-Transfer-TS2-B3LYP-A.chk"
 ----------------------------
 RetO2-H-Transfer-TS2-B3LYP-A
 ----------------------------
 Charge =  0 Multiplicity = 2
 Redundant internal coordinates found in file.  (old form).
 C,0,1.2217751317,-0.5660818126,0.1215687042
 H,0,1.9410620226,-0.9688244466,-0.5823454168
 H,0,-0.0237271846,-1.1373498979,-0.0564452049
 H,0,1.4692802313,-0.7326060802,1.1657237703
 C,0,0.5408757241,0.7523502615,-0.2145447858
 H,0,0.9618532665,1.6248368229,0.2880983514
 H,0,0.5299525435,0.9120340048,-1.2956799262
 O,0,-0.7912756242,0.600289494,0.2860356041
 O,0,-1.1410741109,-0.699199346,-0.1611500964
 Recover connectivity data from disk.

 GradGradGradGradGradGradGradGradGradGradGradGradGradGradGradGradGradGrad
 Berny optimization.
 Initialization pass.
                           ----------------------------
                           !    Initial Parameters    !
                           ! (Angstroms and Degrees)  !
 --------------------------                            --------------------------
 ! Name  Definition              Value          Derivative Info.                !
 --------------------------------------------------------------------------------
 ! R1    R(1,2)                  1.084          calculate D2E/DX2 analytically  !
 ! R2    R(1,4)                  1.0859         calculate D2E/DX2 analytically  !
 ! R3    R(1,5)                  1.5215         calculate D2E/DX2 analytically  !
 ! R4    R(3,9)                  1.2047         calculate D2E/DX2 analytically  !
 ! R5    R(5,6)                  1.0914         calculate D2E/DX2 analytically  !
 ! R6    R(5,7)                  1.0929         calculate D2E/DX2 analytically  !
 ! R7    R(5,8)                  1.4312         calculate D2E/DX2 analytically  !
 ! R8    R(8,9)                  1.4181         calculate D2E/DX2 analytically  !
 ! A1    A(2,1,4)              114.5932         calculate D2E/DX2 analytically  !
 ! A2    A(2,1,5)              118.3889         calculate D2E/DX2 analytically  !
 ! A3    A(4,1,5)              116.5705         calculate D2E/DX2 analytically  !
 ! A4    A(1,5,6)              114.7327         calculate D2E/DX2 analytically  !
 ! A5    A(1,5,7)              110.4638         calculate D2E/DX2 analytically  !
 ! A6    A(1,5,8)              104.3131         calculate D2E/DX2 analytically  !
 ! A7    A(6,5,7)              110.0381         calculate D2E/DX2 analytically  !
 ! A8    A(6,5,8)              106.4326         calculate D2E/DX2 analytically  !
 ! A9    A(7,5,8)              110.6227         calculate D2E/DX2 analytically  !
 ! A10   A(5,8,9)              102.5131         calculate D2E/DX2 analytically  !
 ! A11   A(3,9,8)               94.4213         calculate D2E/DX2 analytically  !
 ! D1    D(2,1,5,6)           -100.1793         calculate D2E/DX2 analytically  !
[...]
 Thermal correction to Gibbs Free Energy=         0.038192
 Sum of electronic and zero-point Energies=           -229.496842
 Sum of electronic and thermal Energies=              -229.492659
 Sum of electronic and thermal Enthalpies=            -229.491715
 Sum of electronic and thermal Free Energies=         -229.523773
 
                     E (Thermal)             CV                S
                      KCal/Mol        Cal/Mol-Kelvin    Cal/Mol-Kelvin
 Total                   43.490             14.332             67.473
 Electronic               0.000              0.000              1.377
 Translational            0.889              2.981             38.246
 Rotational               0.889              2.981             23.784
 Vibrational             41.713              8.370              4.066
 Vibration     1          0.677              1.720              1.565
 Vibration     2          0.799              1.386              0.831
 Vibration     3          0.910              1.130              0.535
                       Q            Log10(Q)             Ln(Q)
 Total Bot       0.271081D-17        -17.566900        -40.449283
 Total V=0       0.244171D+13         12.387694         28.523720
 Vib (Bot)       0.205554D-29        -29.687074        -68.357014
 Vib (Bot)    1  0.701097D+00         -0.154222         -0.355108
 Vib (Bot)    2  0.394413D+00         -0.404049         -0.930357
 Vib (Bot)    3  0.281815D+00         -0.550036         -1.266505
 Vib (V=0)       0.185149D+01          0.267521          0.615989
 Vib (V=0)    1  0.136113D+01          0.133898          0.308312
 Vib (V=0)    2  0.113684D+01          0.055698          0.128250
 Vib (V=0)    3  0.107395D+01          0.030984          0.071344
 Electronic      0.200000D+01          0.301030          0.693147
 Translational   0.187395D+08          7.272758         16.746144
 Rotational      0.351873D+05          4.546386         10.468440
 ***** Axes restored to original set *****
 -------------------------------------------------------------------
 Center     Atomic                   Forces (Hartrees/Bohr)
 Number     Number              X              Y              Z
 -------------------------------------------------------------------
      1        6           0.000016484   -0.000031453   -0.000002195
      2        1           0.000037378    0.000001843   -0.000018997
      3        1           0.000113211    0.000008508    0.000033344
      4        1           0.000027011    0.000013122    0.000029346
      5        6           0.000070188   -0.000037909   -0.000024111
      6        1           0.000002180    0.000027289    0.000018372
      7        1          -0.000003248    0.000014472   -0.000023959
      8        8          -0.000076447   -0.000140778   -0.000011614
      9        8          -0.000186757    0.000144904   -0.000000187
 -------------------------------------------------------------------
 Cartesian Forces:  Max     0.000186757 RMS     0.000063622
 FormGI is forming the generalized inverse of G from B-inverse, IUseBI=4.

 GradGradGradGradGradGradGradGradGradGradGradGradGradGradGradGradGradGrad
 Berny optimization.
 Internal  Forces:  Max     0.000163429 RMS     0.000069078
 Search for a saddle point.
 Step number   1 out of a maximum of    2
 All quantities printed in internal units (Hartrees-Bohrs-Radians)
 Swapping is turned off.
 Second derivative matrix not updated -- analytic derivatives used.
 ITU=  0
     Eigenvalues ---   -0.33711   0.00454   0.03005   0.03526   0.05845
     Eigenvalues ---    0.07155   0.08976   0.10954   0.11475   0.13155
     Eigenvalues ---    0.19828   0.23418   0.26953   0.29776   0.32348
     Eigenvalues ---    0.34025   0.34272   0.35222   0.36619   0.56725
     Eigenvalues ---    1.14266
 Eigenvectors required to have negative eigenvalues:
                          R4        R8        A6        A11       A10
   1                    0.89304  -0.23234  -0.18607  -0.18060  -0.15324
                          A4        D4        D2        D6        D10
   1                    0.10126  -0.09211   0.08859  -0.08836  -0.07923
 Angle between quadratic step and forces=  66.53 degrees.
 Linear search not attempted -- option 19 set.
 Iteration  1 RMS(Cart)=  0.00048803 RMS(Int)=  0.00000008
 Iteration  2 RMS(Cart)=  0.00000009 RMS(Int)=  0.00000001
 Variable       Old X    -DE/DX   Delta X   Delta X   Delta X     New X
                                 (Linear)    (Quad)   (Total)
    R1        2.04848   0.00004   0.00000   0.00009   0.00009   2.04857
    R2        2.05211   0.00003   0.00000   0.00008   0.00008   2.05220
    R3        2.87515   0.00005   0.00000   0.00003   0.00003   2.87518
    R4        2.27663   0.00010   0.00000  -0.00036  -0.00036   2.27627
    R5        2.06240   0.00003   0.00000   0.00010   0.00010   2.06250
    R6        2.06532   0.00003   0.00000   0.00006   0.00006   2.06537
    R7        2.70457   0.00015   0.00000   0.00028   0.00028   2.70486
    R8        2.67982  -0.00013   0.00000  -0.00041  -0.00041   2.67940
    A1        2.00003   0.00000   0.00000  -0.00002  -0.00002   2.00001
    A2        2.06628  -0.00001   0.00000  -0.00011  -0.00011   2.06617
    A3        2.03454  -0.00001   0.00000   0.00001   0.00001   2.03455
    A4        2.00246  -0.00005   0.00000  -0.00007  -0.00007   2.00239
    A5        1.92796  -0.00001   0.00000   0.00011   0.00011   1.92807
    A6        1.82061   0.00016   0.00000   0.00024   0.00024   1.82085
    A7        1.92053   0.00001   0.00000   0.00000   0.00000   1.92053
    A8        1.85760  -0.00006   0.00000  -0.00022  -0.00022   1.85738
    A9        1.93073  -0.00005   0.00000  -0.00007  -0.00007   1.93066
   A10        1.78919   0.00015   0.00000   0.00019   0.00019   1.78938
   A11        1.64796  -0.00012   0.00000  -0.00025  -0.00025   1.64772
    D1       -1.74846   0.00003   0.00000  -0.00047  -0.00047  -1.74892
    D2        0.43440  -0.00001   0.00000  -0.00042  -0.00042   0.43397
    D3        2.50949   0.00002   0.00000  -0.00032  -0.00032   2.50917
    D4        0.74833  -0.00000   0.00000  -0.00066  -0.00066   0.74767
    D5        2.93118  -0.00004   0.00000  -0.00062  -0.00062   2.93057
    D6       -1.27691  -0.00001   0.00000  -0.00051  -0.00051  -1.27742
    D7       -0.78734  -0.00005   0.00000  -0.00034  -0.00034  -0.78768
    D8       -2.91135  -0.00004   0.00000  -0.00028  -0.00028  -2.91163
    D9        1.28586   0.00001   0.00000  -0.00011  -0.00011   1.28575
   D10        0.58603   0.00002   0.00000   0.00039   0.00039   0.58641
         Item               Value     Threshold  Converged?
 Maximum Force            0.000163     0.000450     YES
 RMS     Force            0.000069     0.000300     YES
 Maximum Displacement     0.001418     0.001800     YES
 RMS     Displacement     0.000488     0.001200     YES
 Predicted change in Energy=-1.189679D-07
 Optimization completed.
    -- Stationary point found.
                           ----------------------------
                           !   Optimized Parameters   !
                           ! (Angstroms and Degrees)  !
 --------------------------                            --------------------------
 ! Name  Definition              Value          Derivative Info.                !
 --------------------------------------------------------------------------------
 ! R1    R(1,2)                  1.084          -DE/DX =    0.0                 !
 ! R2    R(1,4)                  1.0859         -DE/DX =    0.0                 !
 ! R3    R(1,5)                  1.5215         -DE/DX =    0.0001              !
 ! R4    R(3,9)                  1.2047         -DE/DX =    0.0001              !
 ! R5    R(5,6)                  1.0914         -DE/DX =    0.0                 !
 ! R6    R(5,7)                  1.0929         -DE/DX =    0.0                 !
 ! R7    R(5,8)                  1.4312         -DE/DX =    0.0001              !
 ! R8    R(8,9)                  1.4181         -DE/DX =   -0.0001              !
 ! A1    A(2,1,4)              114.5932         -DE/DX =    0.0                 !
 ! A2    A(2,1,5)              118.3889         -DE/DX =    0.0                 !
 ! A3    A(4,1,5)              116.5705         -DE/DX =    0.0                 !
 ! A4    A(1,5,6)              114.7327         -DE/DX =   -0.0001              !
 ! A5    A(1,5,7)              110.4638         -DE/DX =    0.0                 !
 ! A6    A(1,5,8)              104.3131         -DE/DX =    0.0002              !
 ! A7    A(6,5,7)              110.0381         -DE/DX =    0.0                 !
 ! A8    A(6,5,8)              106.4326         -DE/DX =   -0.0001              !
 ! A9    A(7,5,8)              110.6227         -DE/DX =   -0.0001              !
 ! A10   A(5,8,9)              102.5131         -DE/DX =    0.0002              !
 ! A11   A(3,9,8)               94.4213         -DE/DX =   -0.0001              !
 ! D1    D(2,1,5,6)           -100.1793         -DE/DX =    0.0                 !
 ! D2    D(2,1,5,7)             24.8892         -DE/DX =    0.0                 !
 ! D3    D(2,1,5,8)            143.7831         -DE/DX =    0.0                 !
 ! D4    D(4,1,5,6)             42.8759         -DE/DX =    0.0                 !
 ! D5    D(4,1,5,7)            167.9444         -DE/DX =    0.0                 !
 ! D6    D(4,1,5,8)            -73.1617         -DE/DX =    0.0                 !
 ! D7    D(1,5,8,9)            -45.1112         -DE/DX =    0.0                 !
 ! D8    D(6,5,8,9)           -166.8081         -DE/DX =    0.0                 !
 ! D9    D(7,5,8,9)             73.6746         -DE/DX =    0.0                 !
 ! D10   D(5,8,9,3)             33.5768         -DE/DX =    0.0                 !
 --------------------------------------------------------------------------------
 GradGradGradGradGradGradGradGradGradGradGradGradGradGradGradGradGradGrad


 ----------------------------------------------------------------------

 Electric dipole moment (input orientation):
 (Debye = 10**-18 statcoulomb cm , SI units = C m)
                  (au)            (Debye)         (10**-30 SI)
   Tot        0.119483D+01      0.303695D+01      0.101302D+02
   x          0.118373D+01      0.300873D+01      0.100361D+02
   y          0.937469D-01      0.238281D+00      0.794819D+00
   z         -0.132737D+00     -0.337383D+00     -0.112539D+01

 Dipole polarizability, Alpha (input orientation).
 (esu units = cm**3 , SI units = C**2 m**2 J**-1)
 Alpha(0;0):
               (au)            (10**-24 esu)      (10**-40 SI)
   iso        0.389238D+02      0.576791D+01      0.641767D+01
   aniso      0.191269D+02      0.283432D+01      0.315361D+01
   xx         0.501943D+02      0.743803D+01      0.827593D+01
   yx        -0.280506D+01     -0.415667D+00     -0.462492D+00
   yy         0.371328D+02      0.550251D+01      0.612237D+01
   zx         0.195083D+01      0.289083D+00      0.321648D+00
   zy        -0.474778D+00     -0.703548D-01     -0.782803D-01
   zz         0.294443D+02      0.436319D+01      0.485470D+01

 ----------------------------------------------------------------------

 Dipole orientation:
     6          0.57172010          1.20731166          2.17791314
     1         -0.53434620          2.16362949          3.61259984
     1          0.03945806          2.14260388         -0.20120502
     1          2.60311906          1.39815894          2.39738950
     6         -0.38191606         -1.31054239          1.16920005
     1          0.53655469         -2.96903932          1.98118072
     1         -2.42949982         -1.45177445          1.39939366
     8          0.28174482         -1.27511781         -1.45244448
     8         -0.46076067          1.18701329         -2.20611965

 Electric dipole moment (dipole orientation):
 (Debye = 10**-18 statcoulomb cm , SI units = C m)
                  (au)            (Debye)         (10**-30 SI)
   Tot        0.119483D+01      0.303695D+01      0.101302D+02
   x          0.000000D+00      0.000000D+00      0.000000D+00
   y          0.000000D+00      0.000000D+00      0.000000D+00
   z          0.119483D+01      0.303695D+01      0.101302D+02

 Dipole polarizability, Alpha (dipole orientation).
 (esu units = cm**3 , SI units = C**2 m**2 J**-1)
 Alpha(0;0):
               (au)            (10**-24 esu)      (10**-40 SI)
   iso        0.389238D+02      0.576791D+01      0.641767D+01
   aniso      0.191269D+02      0.283432D+01      0.315361D+01
   xx         0.303266D+02      0.449394D+01      0.500018D+01
   yx         0.162581D+01      0.240920D+00      0.268059D+00
   yy         0.374442D+02      0.554865D+01      0.617371D+01
   zx         0.437307D+01      0.648022D+00      0.721022D+00
   zy         0.337014D+01      0.499404D+00      0.555661D+00
   zz         0.490006D+02      0.726114D+01      0.807911D+01

 ----------------------------------------------------------------------
 1\1\GINC-CNODE0093\Freq\UB3LYP\CC-pVTZ+d\C2H5O2(2)\KOTUKILE\28-Feb-202
 2\0\\#N Geom=AllCheck Guess=TCheck SCRF=Check GenChk UB3LYP/CC-pVTZ+d 
 Freq\\RetO2-H-Transfer-TS2-B3LYP-A\\0,2\C,1.2217751317,-0.5660818126,0
 .1215687042\H,1.9410620226,-0.9688244466,-0.5823454168\H,-0.0237271846
 ,-1.1373498979,-0.0564452049\H,1.4692802313,-0.7326060802,1.1657237703
 \C,0.5408757241,0.7523502615,-0.2145447858\H,0.9618532665,1.6248368229
 ,0.2880983514\H,0.5299525435,0.9120340048,-1.2956799262\O,-0.791275624
 2,0.600289494,0.2860356041\O,-1.1410741109,-0.699199346,-0.1611500964\
 \Version=ES64L-G16RevB.01\State=2-A\HF=-229.561965\S2=0.75889\S2-1=0.\
 S2A=0.750037\RMSD=1.210e-09\RMSF=6.362e-05\ZeroPoint=0.0651233\Thermal
 =0.0693059\Dipole=1.1837267,0.0937469,-0.1327366\DipoleDeriv=0.5487093
 ,-0.2465124,0.0347901,0.4135904,-0.3097383,0.0765632,-0.0331933,0.0657
 817,0.1144802,-0.0418552,0.100452,0.0508352,-0.0199957,0.1007306,-0.00
 66795,0.053681,-0.0160371,-0.0019246,-0.8818034,0.4110387,-0.1347602,0
 .0571643,0.1374709,-0.0124342,-0.0010794,0.0154581,0.1352139,-0.081061
 ,0.1086004,-0.0555499,-0.0995319,0.0922303,-0.0187518,-0.0319791,0.036
 2484,-0.0646495,-0.0250116,0.1637389,-0.1249313,-0.0012987,0.3612625,-
 0.013858,0.0133875,-0.1269074,0.3909405,0.1279014,-0.0639103,0.0004085
 ,-0.0848265,-0.0640625,-0.0414519,-0.0046292,-0.0725038,0.0324209,0.00
 96783,-0.0119996,-0.0186342,-0.0005768,0.0149751,0.0167266,0.0225654,0
 .087949,-0.1607904,0.0931212,-0.1451894,0.1567414,0.8096022,-0.5916057
 ,0.0861334,0.2279729,-0.0359244,-0.2253776,0.2503211,-0.3162183,0.0911
 003,-1.0741272,0.2587371,-0.0862478,-0.2467259,0.0459355,-0.2203133\Po
 lar=50.1943356,-2.8050598,37.1327815,1.9508259,-0.474778,29.4442667\Qu
 adrupole=-0.9773206,0.7318241,0.2454964,-0.1553254,0.1876222,-0.248619
 5\PG=C01 [X(C2H5O2)]\NImag=1\\0.33393647,-0.19921135,0.30112584,-0.057
 06319,-0.00063648,0.59466727,-0.16270649,0.08482247,0.12725221,0.16824
 493,0.07835724,-0.07660032,-0.06069932,-0.08773339,0.07687795,0.124251
 29,-0.06441397,-0.17338794,-0.13464809,0.06920875,0.17746038,0.1133624
 7,0.07828708,0.00975406,-0.00968493,-0.01148131,-0.00345987,-0.1713724
 6,-0.02747744,-0.02758838,-0.00584622,0.00392807,0.00202679,0.00083622
 ,0.00901618,0.10731405,0.01092960,0.00373268,-0.02398892,0.00681441,0.
 00413500,0.00017368,-0.01754676,0.01317141,0.03939797,-0.05020352,0.02
 941424,-0.06550387,0.00788183,-0.00276121,0.01976542,-0.01809131,0.001
 33192,-0.01127293,0.04777006,0.02413097,-0.04288211,0.03103824,-0.0026
 6154,0.00415023,-0.00978074,-0.01540187,0.00080655,-0.00641235,-0.0233
 2490,0.04550275,-0.05726564,0.03951186,-0.30899781,-0.00668689,0.00263
 305,-0.01319962,0.00098343,0.00002599,-0.00294929,0.06550544,-0.043150
 52,0.32548710,-0.04855663,0.05240374,-0.00706422,-0.00204847,0.0132811
 5,-0.00553994,-0.04408650,0.00017837,0.00182032,-0.00238231,0.00206833
 ,0.00072893,0.35649842,0.05272884,-0.14376020,0.03091257,-0.00244260,-
 0.00160699,0.00231576,-0.02787789,-0.02184108,0.00209931,-0.00248809,-
 0.00238046,-0.00032817,0.06815229,0.55324615,-0.01562209,0.02376272,-0
 .09776149,0.00920421,-0.01521627,0.00697204,0.00656776,0.00004450,0.00
 369683,-0.01073908,0.02940876,-0.00397898,0.03751526,0.03823613,0.5874
 2057,0.00279483,0.00808261,0.00714688,-0.00087781,0.00024391,-0.000179
 46,0.00917643,0.00137444,-0.00015417,0.00144154,-0.00001201,-0.0000665
 0,-0.07758781,-0.06738263,-0.04158578,0.09464771,-0.00431014,-0.017483
 67,-0.01018704,0.00000690,-0.00167356,0.00046419,-0.00388718,-0.001579
 59,0.00005445,0.00015684,0.00161547,0.00021975,-0.08046287,-0.20953757
 ,-0.09728134,0.08875058,0.22774109,0.00130369,0.00534166,0.00415180,-0
 .00027967,0.00016708,0.00001809,0.00296029,-0.00025970,-0.00000858,0.0
 0032476,-0.00041985,0.00084873,-0.04781748,-0.10066536,-0.11414806,0.0
 4803804,0.10512166,0.11343020,-0.00125275,0.00271069,-0.01619558,0.000
 43863,-0.00042473,0.00024230,0.00110016,-0.00091150,0.00048055,-0.0002
 5132,0.00343163,-0.00016139,-0.04643838,-0.00159092,-0.01959432,0.0020
 7915,0.00242310,-0.01153016,0.05781092,0.00434569,-0.00684624,0.030031
 18,-0.00003792,0.00111503,-0.00070125,0.00080930,0.00106971,0.00068332
 ,0.00241629,-0.00425482,0.00093249,-0.00258557,-0.05956410,0.02978696,
 -0.00034362,0.00489800,-0.02431847,-0.00298600,0.05974262,-0.00098283,
 0.00245711,-0.00631973,-0.00061261,0.00011578,0.00057603,-0.00261678,-
 0.00001615,-0.00063039,-0.00086810,0.00058045,0.00138265,-0.01597433,0
 .03425939,-0.29514164,-0.00127955,0.00172839,-0.01244271,0.00549474,-0
 .03866663,0.32104832,-0.06611105,0.00918396,0.01898822,-0.00505704,0.0
 0580042,-0.00290234,0.03516030,0.01464646,0.00876229,0.00620113,0.0049
 4439,-0.00151252,-0.12418196,0.02381393,0.05568125,-0.01955456,-0.0038
 2901,0.00304859,-0.01664301,-0.00227980,0.01610175,0.28159610,-0.00447
 502,-0.04611374,-0.01636136,0.00795355,0.00342592,0.00471448,0.0926990
 8,-0.03590663,-0.00625821,0.00944735,0.00839830,-0.00027546,0.00852229
 ,-0.06996182,-0.01162299,-0.03500748,-0.00327206,0.01056843,-0.0064913
 7,0.00150975,0.00149932,-0.01939245,0.25825105,-0.00512699,-0.01588633
 ,0.01082410,-0.00050476,0.00109935,0.00170079,0.01976429,-0.00445338,0
 .00352761,0.00606273,0.00182663,0.00035926,0.04742188,-0.00934737,-0.0
 9851527,-0.01521646,-0.00010805,0.00566377,0.04299855,0.00158550,-0.01
 100339,-0.08789481,0.07658698,0.13707423,-0.12126334,-0.06569344,-0.01
 731451,0.00380935,0.00471792,0.00247070,0.08443583,-0.00208650,0.00016
 670,0.00763390,0.00682500,-0.00152485,-0.01121635,-0.04291294,-0.02142
 721,-0.01211947,0.00115178,0.00395193,0.00315660,0.00066163,0.00073770
 ,-0.09140991,-0.05325596,-0.00750443,0.13697339,0.07591121,0.06014881,
 0.00174844,-0.00383553,-0.00771505,-0.00264345,-0.12216339,-0.02430142
 ,-0.01120561,-0.01419245,-0.01095590,0.00043100,-0.06155772,-0.0445939
 4,0.00288153,0.00429420,-0.00070810,0.00446454,0.00383909,0.00233004,-
 0.00195765,-0.03288789,-0.11633078,-0.05130333,0.15059249,0.14212634,-
 0.00042383,0.00613075,0.00081272,-0.00053881,-0.00144342,-0.00031345,-
 0.01640643,-0.00350266,-0.01921891,-0.00327437,-0.00309062,0.00104795,
 -0.01109041,0.00251774,0.01145602,0.00329700,-0.00001201,0.00248675,-0
 .00173470,0.00066689,0.00253086,-0.01027242,-0.05885119,-0.04963110,0.
 04044396,0.05758451,0.05082918\\-0.00001648,0.00003145,0.00000220,-0.0
 0003738,-0.00000184,0.00001900,-0.00011321,-0.00000851,-0.00003334,-0.
 00002701,-0.00001312,-0.00002935,-0.00007019,0.00003791,0.00002411,-0.
 00000218,-0.00002729,-0.00001837,0.00000325,-0.00001447,0.00002396,0.0
 0007645,0.00014078,0.00001161,0.00018676,-0.00014490,0.00000019\\\@


 LIVE PURE, SPEAK TRUE, RIGHT WRONG, FOLLOW THE KING...
 ELSE, WHEREFORE BORN......
           IDYLLS OF THE KING, TENNYSON
 Job cpu time:       0 days  0 hours  0 minutes 29.5 seconds.
 Elapsed time:       0 days  0 hours  1 minutes  5.2 seconds.
 File lengths (MBytes):  RWF=     58 Int=      0 D2E=      0 Chk=      5 Scr=      1
 Normal termination of Gaussian 16 at Mon Feb 28 10:17:20 2022.
