 Entering Gaussian System, Link 0=g16
 Input=Mol_04.com
 Output=Mol_04.log
 Initial command:
 /home/saurabh/gaussian/g16/l1.exe "/home/saurabh/gaussian/gauss_scr/Gau-24356.inp" -scrdir="/home/saurabh/gaussian/gauss_scr/"
 Entering Link 1 = /home/saurabh/gaussian/g16/l1.exe PID=     24357.
  
 Copyright (c) 1988-2019, Gaussian, Inc.  All Rights Reserved.
  
 This is part of the Gaussian(R) 16 program.  It is based on
 the Gaussian(R) 09 system (copyright 2009, Gaussian, Inc.),
 the Gaussian(R) 03 system (copyright 2003, Gaussian, Inc.),
 the Gaussian(R) 98 system (copyright 1998, Gaussian, Inc.),
 the Gaussian(R) 94 system (copyright 1995, Gaussian, Inc.),
 the Gaussian 92(TM) system (copyright 1992, Gaussian, Inc.),
 the Gaussian 90(TM) system (copyright 1990, Gaussian, Inc.),
 the Gaussian 88(TM) system (copyright 1988, Gaussian, Inc.),
 the Gaussian 86(TM) system (copyright 1986, Carnegie Mellon
 University), and the Gaussian 82(TM) system (copyright 1983,
 Carnegie Mellon University). Gaussian is a federally registered
 trademark of Gaussian, Inc.
  
 This software contains proprietary and confidential information,
 including trade secrets, belonging to Gaussian, Inc.
  
 This software is provided under written license and may be
 used, copied, transmitted, or stored only in accord with that
 written license.
  
 The following legend is applicable only to US Government
 contracts under FAR:
  
                    RESTRICTED RIGHTS LEGEND
  
 Use, reproduction and disclosure by the US Government is
 subject to restrictions as set forth in subparagraphs (a)
 and (c) of the Commercial Computer Software - Restricted
 Rights clause in FAR 52.227-19.
  
 Gaussian, Inc.
 340 Quinnipiac St., Bldg. 40, Wallingford CT 06492
  
  
 ---------------------------------------------------------------
 Warning -- This program may not be used in any manner that
 competes with the business of Gaussian, Inc. or will provide
 assistance to any competitor of Gaussian, Inc.  The licensee
 of this program is prohibited from giving any competitor of
 Gaussian, Inc. access to this program.  By using this program,
 the user acknowledges that Gaussian, Inc. is engaged in the
 business of creating and licensing software in the field of
 computational chemistry and represents and warrants to the
 licensee that it is not a competitor of Gaussian, Inc. and that
 it will not use this program in any manner prohibited above.
 ---------------------------------------------------------------
  

 Cite this work as:
 Gaussian 16, Revision C.01,
 M. J. Frisch, G. W. Trucks, H. B. Schlegel, G. E. Scuseria, 
 M. A. Robb, J. R. Cheeseman, G. Scalmani, V. Barone, 
 G. A. Petersson, H. Nakatsuji, X. Li, M. Caricato, A. V. Marenich, 
 J. Bloino, B. G. Janesko, R. Gomperts, B. Mennucci, H. P. Hratchian, 
 J. V. Ortiz, A. F. Izmaylov, J. L. Sonnenberg, D. Williams-Young, 
 F. Ding, F. Lipparini, F. Egidi, J. Goings, B. Peng, A. Petrone, 
 T. Henderson, D. Ranasinghe, V. G. Zakrzewski, J. Gao, N. Rega, 
 G. Zheng, W. Liang, M. Hada, M. Ehara, K. Toyota, R. Fukuda, 
 J. Hasegawa, M. Ishida, T. Nakajima, Y. Honda, O. Kitao, H. Nakai, 
 T. Vreven, K. Throssell, J. A. Montgomery, Jr., J. E. Peralta, 
 F. Ogliaro, M. J. Bearpark, J. J. Heyd, E. N. Brothers, K. N. Kudin, 
 V. N. Staroverov, T. A. Keith, R. Kobayashi, J. Normand, 
 K. Raghavachari, A. P. Rendell, J. C. Burant, S. S. Iyengar, 
 J. Tomasi, M. Cossi, J. M. Millam, M. Klene, C. Adamo, R. Cammi, 
 J. W. Ochterski, R. L. Martin, K. Morokuma, O. Farkas, 
 J. B. Foresman, and D. J. Fox, Gaussian, Inc., Wallingford CT, 2019.
 
 ******************************************
 Gaussian 16:  ES64L-G16RevC.01  3-Jul-2019
                 7-Apr-2022 
 ******************************************
 %mem=8gb
 %nproc=8
 Will use up to    8 processors via shared memory.
 %chk=Mol_04.chk
 ----------------------------------------------------------------------
 #p B3LYP/cc-PVTZ scf(verytight, maxcycles=1000) opt(calcfc, maxcyc=100
 0) freq(hpmodes) int(grid=ultrafine)
 ----------------------------------------------------------------------
 1/6=1000,10=4,18=20,19=15,26=4,38=1/1,3;
 2/9=110,12=2,17=6,18=5,40=1/2;
 3/5=16,6=1,11=2,25=1,30=1,71=2,74=-5,75=-5,140=1/1,2,3;
 4//1;
 5/5=2,7=1000,17=3,38=5/2;
 8/6=4,10=90,11=11/1;
 11/6=1,8=1,9=11,15=111,16=1/1,2,10;
 10/6=1,13=1/2;
 6/7=2,8=2,9=2,10=2,28=1/1;
 7/10=1,25=1/1,2,3,16;
 1/6=1000,10=4,18=20,19=15,26=4/3(2);
 2/9=110/2;
 99//99;
 2/9=110/2;
 3/5=16,6=1,11=2,25=1,30=1,71=1,74=-5,75=-5/1,2,3;
 4/5=5,16=3,69=1/1;
 5/5=2,7=1000,17=3,38=5/2;
 7//1,2,3,16;
 1/6=1000,18=20,19=15,26=4/3(-5);
 2/9=110/2;
 6/7=2,8=2,9=2,10=2,19=2,28=1/1;
 99/9=1/99;
 Leave Link    1 at Thu Apr  7 11:46:17 2022, MaxMem=  1073741824 cpu:               0.4 elap:               0.1
 (Enter /home/saurabh/gaussian/g16/l101.exe)
 ------
 Mol_04
 ------
 Symbolic Z-matrix:
 Charge =  0 Multiplicity = 1
 C                    -3.42153   1.15237   0.15401 
 C                    -2.15941   1.40204  -0.66417 
 C                    -1.00495   0.51048  -0.40829 
 H                    -3.91242   2.12323   0.37339 
 H                    -3.20224   0.64044   1.11604 
 H                    -4.11978   0.52334  -0.43593 
 O                    -1.0892    1.81472   0.13819 
 H                    -2.1871    1.95267  -1.62765 
 H                    -0.17627   0.50833  -1.14631 
 H                    -1.04276  -0.20953   0.43618 
 
 ITRead=  0  0  0  0  0  0  0  0  0  0
 MicOpt= -1 -1 -1 -1 -1 -1 -1 -1 -1 -1
 NAtoms=     10 NQM=       10 NQMF=       0 NMMI=      0 NMMIF=      0
                NMic=       0 NMicF=      0.
                    Isotopes and Nuclear Properties:
 (Nuclear quadrupole moments (NQMom) in fm**2, nuclear magnetic moments (NMagM)
  in nuclear magnetons)

  Atom         1           2           3           4           5           6           7           8           9          10
 IAtWgt=          12          12          12           1           1           1          16           1           1           1
 AtmWgt=  12.0000000  12.0000000  12.0000000   1.0078250   1.0078250   1.0078250  15.9949146   1.0078250   1.0078250   1.0078250
 NucSpn=           0           0           0           1           1           1           0           1           1           1
 AtZEff=  -0.0000000  -0.0000000  -0.0000000  -0.0000000  -0.0000000  -0.0000000  -0.0000000  -0.0000000  -0.0000000  -0.0000000
 NQMom=    0.0000000   0.0000000   0.0000000   0.0000000   0.0000000   0.0000000   0.0000000   0.0000000   0.0000000   0.0000000
 NMagM=    0.0000000   0.0000000   0.0000000   2.7928460   2.7928460   2.7928460   0.0000000   2.7928460   2.7928460   2.7928460
 AtZNuc=   6.0000000   6.0000000   6.0000000   1.0000000   1.0000000   1.0000000   8.0000000   1.0000000   1.0000000   1.0000000
 Leave Link  101 at Thu Apr  7 11:46:18 2022, MaxMem=  1073741824 cpu:               1.4 elap:               0.2
 (Enter /home/saurabh/gaussian/g16/l103.exe)

 GradGradGradGradGradGradGradGradGradGradGradGradGradGradGradGradGradGrad
 Berny optimization.
 Initialization pass.
                           ----------------------------
                           !    Initial Parameters    !
                           ! (Angstroms and Degrees)  !
 --------------------------                            --------------------------
 ! Name  Definition              Value          Derivative Info.                !
 --------------------------------------------------------------------------------
 ! R1    R(1,2)                  1.5247         calculate D2E/DX2 analytically  !
 ! R2    R(1,4)                  1.1098         calculate D2E/DX2 analytically  !
 ! R3    R(1,5)                  1.1116         calculate D2E/DX2 analytically  !
 ! R4    R(1,6)                  1.1096         calculate D2E/DX2 analytically  !
 ! R5    R(2,3)                  1.4809         calculate D2E/DX2 analytically  !
 ! R6    R(2,7)                  1.3998         calculate D2E/DX2 analytically  !
 ! R7    R(2,8)                  1.1101         calculate D2E/DX2 analytically  !
 ! R8    R(3,7)                  1.4166         calculate D2E/DX2 analytically  !
 ! R9    R(3,9)                  1.1097         calculate D2E/DX2 analytically  !
 ! R10   R(3,10)                 1.1104         calculate D2E/DX2 analytically  !
 ! A1    A(2,1,4)              109.2063         calculate D2E/DX2 analytically  !
 ! A2    A(2,1,5)              112.1188         calculate D2E/DX2 analytically  !
 ! A3    A(2,1,6)              109.1737         calculate D2E/DX2 analytically  !
 ! A4    A(4,1,5)              108.6056         calculate D2E/DX2 analytically  !
 ! A5    A(4,1,6)              108.8242         calculate D2E/DX2 analytically  !
 ! A6    A(5,1,6)              108.8561         calculate D2E/DX2 analytically  !
 ! A7    A(1,2,3)              117.0004         calculate D2E/DX2 analytically  !
 ! A8    A(1,2,7)              111.9359         calculate D2E/DX2 analytically  !
 ! A9    A(1,2,8)              121.7582         calculate D2E/DX2 analytically  !
 ! A10   A(3,2,8)              117.9071         calculate D2E/DX2 analytically  !
 ! A11   A(7,2,8)              111.7365         calculate D2E/DX2 analytically  !
 ! A12   A(2,3,9)              117.9305         calculate D2E/DX2 analytically  !
 ! A13   A(2,3,10)             119.6852         calculate D2E/DX2 analytically  !
 ! A14   A(7,3,9)              107.6236         calculate D2E/DX2 analytically  !
 ! A15   A(7,3,10)             107.553          calculate D2E/DX2 analytically  !
 ! A16   A(9,3,10)             122.0036         calculate D2E/DX2 analytically  !
 ! D1    D(4,1,2,3)            144.8484         calculate D2E/DX2 analytically  !
 ! D2    D(4,1,2,7)             79.7466         calculate D2E/DX2 analytically  !
 ! D3    D(4,1,2,8)            -56.2121         calculate D2E/DX2 analytically  !
 ! D4    D(5,1,2,3)             24.4318         calculate D2E/DX2 analytically  !
 ! D5    D(5,1,2,7)            -40.67           calculate D2E/DX2 analytically  !
 ! D6    D(5,1,2,8)           -176.6287         calculate D2E/DX2 analytically  !
 ! D7    D(6,1,2,3)            -96.2776         calculate D2E/DX2 analytically  !
 ! D8    D(6,1,2,7)           -161.3795         calculate D2E/DX2 analytically  !
 ! D9    D(6,1,2,8)             62.6619         calculate D2E/DX2 analytically  !
 ! D10   D(1,2,3,9)            165.4845         calculate D2E/DX2 analytically  !
 ! D11   D(1,2,3,10)            -7.576          calculate D2E/DX2 analytically  !
 ! D12   D(8,2,3,9)              5.7126         calculate D2E/DX2 analytically  !
 ! D13   D(8,2,3,10)          -167.3478         calculate D2E/DX2 analytically  !
 --------------------------------------------------------------------------------
 Trust Radius=3.00D-01 FncErr=1.00D-07 GrdErr=1.00D-06 EigMax=2.50D+02 EigMin=1.00D-04
 Number of steps in this run=    100 maximum allowed number of steps=    100.
 GradGradGradGradGradGradGradGradGradGradGradGradGradGradGradGradGradGrad

 Leave Link  103 at Thu Apr  7 11:46:18 2022, MaxMem=  1073741824 cpu:               0.1 elap:               0.0
 (Enter /home/saurabh/gaussian/g16/l202.exe)
                          Input orientation:                          
 ---------------------------------------------------------------------
 Center     Atomic      Atomic             Coordinates (Angstroms)
 Number     Number       Type             X           Y           Z
 ---------------------------------------------------------------------
      1          6           0       -3.421527    1.152366    0.154008
      2          6           0       -2.159409    1.402042   -0.664168
      3          6           0       -1.004951    0.510480   -0.408285
      4          1           0       -3.912419    2.123228    0.373389
      5          1           0       -3.202241    0.640442    1.116037
      6          1           0       -4.119781    0.523338   -0.435933
      7          8           0       -1.089199    1.814719    0.138194
      8          1           0       -2.187096    1.952671   -1.627649
      9          1           0       -0.176273    0.508327   -1.146308
     10          1           0       -1.042763   -0.209527    0.436178
 ---------------------------------------------------------------------
                    Distance matrix (angstroms):
                    1          2          3          4          5
     1  C    0.000000
     2  C    1.524694   0.000000
     3  C    2.562817   1.480924   0.000000
     4  H    1.109809   2.160944   3.415457   0.000000
     5  H    1.111599   2.199241   2.677411   1.804032   0.000000
     6  H    1.109624   2.160386   3.114980   1.804896   1.806711
     7  O    2.424606   1.399799   1.416608   2.849749   2.607690
     8  H    2.310543   1.110069   2.228056   2.647637   3.206287
     9  H    3.554895   2.228007   1.109679   4.344672   3.780494
    10  H    2.755520   2.248292   1.110386   3.698732   2.418264
                    6          7          8          9         10
     6  H    0.000000
     7  O    3.343907   0.000000
     8  H    2.682993   2.083893   0.000000
     9  H    4.007008   2.046958   2.522148   0.000000
    10  H    3.281114   2.046587   3.200622   1.941746   0.000000
 Stoichiometry    C3H6O
 Framework group  C1[X(C3H6O)]
 Deg. of freedom    24
 Full point group                 C1      NOp   1
 Largest Abelian subgroup         C1      NOp   1
 Largest concise Abelian subgroup C1      NOp   1
                         Standard orientation:                         
 ---------------------------------------------------------------------
 Center     Atomic      Atomic             Coordinates (Angstroms)
 Number     Number       Type             X           Y           Z
 ---------------------------------------------------------------------
      1          6           0       -1.482856    0.135988   -0.132558
      2          6           0       -0.136222   -0.147658    0.523804
      3          6           0        1.026097    0.630349    0.037128
      4          1           0       -2.062753   -0.807943   -0.198817
      5          1           0       -1.369690    0.555275   -1.155810
      6          1           0       -2.047057    0.859772    0.491206
      7          8           0        0.779289   -0.701090   -0.378964
      8          1           0       -0.062500   -0.620083    1.525620
      9          1           0        1.949797    0.624412    0.652051
     10          1           0        0.915780    1.285210   -0.852785
 ---------------------------------------------------------------------
 Rotational constants (GHZ):          17.9993580           6.7817480           6.1962319
 Leave Link  202 at Thu Apr  7 11:46:18 2022, MaxMem=  1073741824 cpu:               0.1 elap:               0.0
 (Enter /home/saurabh/gaussian/g16/l301.exe)
 Standard basis: CC-pVTZ (5D, 7F)
 Ernie: Thresh=  0.10000D-02 Tol=  0.10000D-05 Strict=F.
 Ernie:  12 primitive shells out of 152 were deleted.
 There are   230 symmetry adapted cartesian basis functions of A   symmetry.
 There are   204 symmetry adapted basis functions of A   symmetry.
   204 basis functions,   310 primitive gaussians,   230 cartesian basis functions
    16 alpha electrons       16 beta electrons
       nuclear repulsion energy       125.2525146719 Hartrees.
 IExCor=  402 DFT=T Ex+Corr=B3LYP ExCW=0 ScaHFX=  0.200000
 ScaDFX=  0.800000  0.720000  1.000000  0.810000 ScalE2=  1.000000  1.000000
 IRadAn=      5 IRanWt=     -1 IRanGd=            0 ICorTp=0 IEmpDi=  4
 NAtoms=   10 NActive=   10 NUniq=   10 SFac= 1.00D+00 NAtFMM=   60 NAOKFM=F Big=F
 Integral buffers will be    131072 words long.
 Raffenetti 2 integral format.
 Two-electron integral symmetry is turned on.
 Leave Link  301 at Thu Apr  7 11:46:18 2022, MaxMem=  1073741824 cpu:               0.4 elap:               0.1
 (Enter /home/saurabh/gaussian/g16/l302.exe)
 NPDir=0 NMtPBC=     1 NCelOv=     1 NCel=       1 NClECP=     1 NCelD=      1
         NCelK=      1 NCelE2=     1 NClLst=     1 CellRange=     0.0.
 One-electron integrals computed using PRISM.
 One-electron integral symmetry used in STVInt
 NBasis=   204 RedAO= T EigKep=  4.42D-04  NBF=   204
 NBsUse=   204 1.00D-06 EigRej= -1.00D+00 NBFU=   204
 Precomputing XC quadrature grid using
 IXCGrd= 4 IRadAn=           5 IRanWt=          -1 IRanGd=           0 AccXCQ= 0.00D+00.
 Generated NRdTot=       0 NPtTot=           0 NUsed=           0 NTot=          32
 NSgBfM=   230   230   230   230   230 MxSgAt=    10 MxSgA2=    10.
 Leave Link  302 at Thu Apr  7 11:46:18 2022, MaxMem=  1073741824 cpu:               1.3 elap:               0.2
 (Enter /home/saurabh/gaussian/g16/l303.exe)
 DipDrv:  MaxL=1.
 Leave Link  303 at Thu Apr  7 11:46:18 2022, MaxMem=  1073741824 cpu:               0.2 elap:               0.0
 (Enter /home/saurabh/gaussian/g16/l401.exe)
 ExpMin= 1.03D-01 ExpMax= 1.53D+04 ExpMxC= 5.22D+02 IAcc=3 IRadAn=         5 AccDes= 0.00D+00
 Harris functional with IExCor=  402 and IRadAn=       5 diagonalized for initial guess.
 HarFok:  IExCor=  402 AccDes= 0.00D+00 IRadAn=         5 IDoV= 1 UseB2=F ITyADJ=14
 ICtDFT=  3500011 ScaDFX=  1.000000  1.000000  1.000000  1.000000
 FoFCou: FMM=F IPFlag=           0 FMFlag=      100000 FMFlg1=           0
         NFxFlg=           0 DoJE=T BraDBF=F KetDBF=T FulRan=T
         wScrn=  0.000000 ICntrl=       500 IOpCl=  0 I1Cent=   200000004 NGrid=           0
         NMat0=    1 NMatS0=      1 NMatT0=    0 NMatD0=    1 NMtDS0=    0 NMtDT0=    0
 Petite list used in FoFCou.
 Harris En= -193.191995901403    
 JPrj=0 DoOrth=F DoCkMO=F.
 Leave Link  401 at Thu Apr  7 11:46:19 2022, MaxMem=  1073741824 cpu:               3.9 elap:               0.5
 (Enter /home/saurabh/gaussian/g16/l502.exe)
 Keep R1 ints in memory in canonical form, NReq=227100997.
 FoFCou: FMM=F IPFlag=           0 FMFlag=           0 FMFlg1=           0
         NFxFlg=           0 DoJE=F BraDBF=F KetDBF=F FulRan=T
         wScrn=  0.000000 ICntrl=       600 IOpCl=  0 I1Cent=           0 NGrid=           0
         NMat0=    1 NMatS0=  20910 NMatT0=    0 NMatD0=    1 NMtDS0=    0 NMtDT0=    0
 Symmetry not used in FoFCou.
 Two-electron integral symmetry not used.
 Closed shell SCF:
 Using DIIS extrapolation, IDIIS=  1040.
 NGot=  1073741824 LenX=   855007313 LenY=   854953972
 Requested convergence on RMS density matrix=1.00D-08 within1000 cycles.
 Requested convergence on MAX density matrix=1.00D-06.
 Requested convergence on             energy=1.00D-06.
 No special actions if energy rises.
 Integral accuracy reduced to 1.0D-05 until final iterations.

 Cycle   1  Pass 0  IDiag  1:
 E= -193.056986820017    
 DIIS: error= 2.13D-02 at cycle   1 NSaved=   1.
 NSaved= 1 IEnMin= 1 EnMin= -193.056986820017     IErMin= 1 ErrMin= 2.13D-02
 ErrMax= 2.13D-02  0.00D+00 EMaxC= 1.00D-01 BMatC= 1.31D-01 BMatP= 1.31D-01
 IDIUse=3 WtCom= 7.87D-01 WtEn= 2.13D-01
 Coeff-Com:  0.100D+01
 Coeff-En:   0.100D+01
 Coeff:      0.100D+01
 Gap=     0.310 Goal=   None    Shift=    0.000
 GapD=    0.310 DampG=1.000 DampE=0.500 DampFc=0.5000 IDamp=-1.
 Damping current iteration by 5.00D-01
 RMSDP=3.17D-03 MaxDP=9.02D-02              OVMax= 1.68D-01

 Cycle   2  Pass 0  IDiag  1:
 E= -193.105064933883     Delta-E=       -0.048078113867 Rises=F Damp=T
 DIIS: error= 4.97D-03 at cycle   2 NSaved=   2.
 NSaved= 2 IEnMin= 2 EnMin= -193.105064933883     IErMin= 2 ErrMin= 4.97D-03
 ErrMax= 4.97D-03  0.00D+00 EMaxC= 1.00D-01 BMatC= 9.31D-03 BMatP= 1.31D-01
 IDIUse=3 WtCom= 9.50D-01 WtEn= 4.97D-02
 Coeff-Com:  0.101D+00 0.899D+00
 Coeff-En:   0.181D+00 0.819D+00
 Coeff:      0.105D+00 0.895D+00
 Gap=     0.328 Goal=   None    Shift=    0.000
 RMSDP=6.89D-04 MaxDP=2.46D-02 DE=-4.81D-02 OVMax= 1.04D-01

 Cycle   3  Pass 0  IDiag  1:
 E= -193.170006327369     Delta-E=       -0.064941393485 Rises=F Damp=F
 DIIS: error= 5.25D-03 at cycle   3 NSaved=   3.
 NSaved= 3 IEnMin= 3 EnMin= -193.170006327369     IErMin= 2 ErrMin= 4.97D-03
 ErrMax= 5.25D-03  0.00D+00 EMaxC= 1.00D-01 BMatC= 5.85D-03 BMatP= 9.31D-03
 IDIUse=3 WtCom= 9.47D-01 WtEn= 5.25D-02
 Coeff-Com: -0.322D-02 0.428D+00 0.575D+00
 Coeff-En:   0.000D+00 0.000D+00 0.100D+01
 Coeff:     -0.305D-02 0.406D+00 0.597D+00
 Gap=     0.304 Goal=   None    Shift=    0.000
 RMSDP=2.87D-04 MaxDP=8.62D-03 DE=-6.49D-02 OVMax= 2.56D-02

 Cycle   4  Pass 0  IDiag  1:
 E= -193.172742122858     Delta-E=       -0.002735795490 Rises=F Damp=F
 DIIS: error= 2.87D-03 at cycle   4 NSaved=   4.
 NSaved= 4 IEnMin= 4 EnMin= -193.172742122858     IErMin= 4 ErrMin= 2.87D-03
 ErrMax= 2.87D-03  0.00D+00 EMaxC= 1.00D-01 BMatC= 1.97D-03 BMatP= 5.85D-03
 IDIUse=3 WtCom= 9.71D-01 WtEn= 2.87D-02
 Coeff-Com: -0.167D-01 0.101D+00 0.382D+00 0.533D+00
 Coeff-En:   0.000D+00 0.000D+00 0.284D+00 0.716D+00
 Coeff:     -0.163D-01 0.985D-01 0.379D+00 0.539D+00
 Gap=     0.310 Goal=   None    Shift=    0.000
 RMSDP=1.10D-04 MaxDP=2.92D-03 DE=-2.74D-03 OVMax= 9.05D-03

 Cycle   5  Pass 0  IDiag  1:
 E= -193.174194502219     Delta-E=       -0.001452379360 Rises=F Damp=F
 DIIS: error= 3.75D-04 at cycle   5 NSaved=   5.
 NSaved= 5 IEnMin= 5 EnMin= -193.174194502219     IErMin= 5 ErrMin= 3.75D-04
 ErrMax= 3.75D-04  0.00D+00 EMaxC= 1.00D-01 BMatC= 2.42D-05 BMatP= 1.97D-03
 IDIUse=3 WtCom= 9.96D-01 WtEn= 3.75D-03
 Coeff-Com: -0.527D-02 0.125D-01 0.103D+00 0.191D+00 0.699D+00
 Coeff-En:   0.000D+00 0.000D+00 0.000D+00 0.000D+00 0.100D+01
 Coeff:     -0.525D-02 0.124D-01 0.103D+00 0.190D+00 0.700D+00
 Gap=     0.310 Goal=   None    Shift=    0.000
 RMSDP=1.61D-05 MaxDP=3.50D-04 DE=-1.45D-03 OVMax= 1.19D-03

 Cycle   6  Pass 0  IDiag  1:
 E= -193.174211441939     Delta-E=       -0.000016939721 Rises=F Damp=F
 DIIS: error= 1.03D-04 at cycle   6 NSaved=   6.
 NSaved= 6 IEnMin= 6 EnMin= -193.174211441939     IErMin= 6 ErrMin= 1.03D-04
 ErrMax= 1.03D-04  0.00D+00 EMaxC= 1.00D-01 BMatC= 2.34D-06 BMatP= 2.42D-05
 IDIUse=3 WtCom= 9.99D-01 WtEn= 1.03D-03
 Coeff-Com: -0.191D-02 0.252D-02 0.386D-01 0.774D-01 0.351D+00 0.533D+00
 Coeff-En:   0.000D+00 0.000D+00 0.000D+00 0.000D+00 0.000D+00 0.100D+01
 Coeff:     -0.191D-02 0.252D-02 0.386D-01 0.773D-01 0.350D+00 0.533D+00
 Gap=     0.310 Goal=   None    Shift=    0.000
 RMSDP=4.76D-06 MaxDP=1.76D-04 DE=-1.69D-05 OVMax= 5.98D-04

 Initial convergence to 1.0D-05 achieved.  Increase integral accuracy.
 Cycle   7  Pass 1  IDiag  1:
 E= -193.174221739491     Delta-E=       -0.000010297551 Rises=F Damp=F
 DIIS: error= 2.47D-05 at cycle   1 NSaved=   1.
 NSaved= 1 IEnMin= 1 EnMin= -193.174221739491     IErMin= 1 ErrMin= 2.47D-05
 ErrMax= 2.47D-05  0.00D+00 EMaxC= 1.00D-01 BMatC= 1.28D-07 BMatP= 1.28D-07
 IDIUse=1 WtCom= 1.00D+00 WtEn= 0.00D+00
 Coeff-Com:  0.100D+01
 Coeff:      0.100D+01
 Gap=     0.310 Goal=   None    Shift=    0.000
 RMSDP=4.76D-06 MaxDP=1.76D-04 DE=-1.03D-05 OVMax= 2.96D-04

 Cycle   8  Pass 1  IDiag  1:
 E= -193.174221633741     Delta-E=        0.000000105750 Rises=F Damp=F
 DIIS: error= 3.34D-05 at cycle   2 NSaved=   2.
 NSaved= 2 IEnMin= 1 EnMin= -193.174221739491     IErMin= 1 ErrMin= 2.47D-05
 ErrMax= 3.34D-05  0.00D+00 EMaxC= 1.00D-01 BMatC= 2.43D-07 BMatP= 1.28D-07
 IDIUse=1 WtCom= 1.00D+00 WtEn= 0.00D+00
 Coeff-Com:  0.581D+00 0.419D+00
 Coeff:      0.581D+00 0.419D+00
 Gap=     0.310 Goal=   None    Shift=    0.000
 RMSDP=1.47D-06 MaxDP=4.75D-05 DE= 1.06D-07 OVMax= 1.79D-04

 Cycle   9  Pass 1  IDiag  1:
 E= -193.174221863411     Delta-E=       -0.000000229671 Rises=F Damp=F
 DIIS: error= 1.71D-06 at cycle   3 NSaved=   3.
 NSaved= 3 IEnMin= 3 EnMin= -193.174221863411     IErMin= 3 ErrMin= 1.71D-06
 ErrMax= 1.71D-06  0.00D+00 EMaxC= 1.00D-01 BMatC= 1.24D-09 BMatP= 1.28D-07
 IDIUse=1 WtCom= 1.00D+00 WtEn= 0.00D+00
 Coeff-Com:  0.200D+00 0.159D+00 0.641D+00
 Coeff:      0.200D+00 0.159D+00 0.641D+00
 Gap=     0.310 Goal=   None    Shift=    0.000
 RMSDP=1.30D-07 MaxDP=3.44D-06 DE=-2.30D-07 OVMax= 7.91D-06

 Cycle  10  Pass 1  IDiag  1:
 E= -193.174221864439     Delta-E=       -0.000000001027 Rises=F Damp=F
 DIIS: error= 5.66D-07 at cycle   4 NSaved=   4.
 NSaved= 4 IEnMin= 4 EnMin= -193.174221864439     IErMin= 4 ErrMin= 5.66D-07
 ErrMax= 5.66D-07  0.00D+00 EMaxC= 1.00D-01 BMatC= 8.23D-11 BMatP= 1.24D-09
 IDIUse=1 WtCom= 1.00D+00 WtEn= 0.00D+00
 Coeff-Com:  0.370D-01 0.324D-01 0.234D+00 0.697D+00
 Coeff:      0.370D-01 0.324D-01 0.234D+00 0.697D+00
 Gap=     0.310 Goal=   None    Shift=    0.000
 RMSDP=4.79D-08 MaxDP=1.14D-06 DE=-1.03D-09 OVMax= 3.33D-06

 Cycle  11  Pass 1  IDiag  1:
 E= -193.174221864464     Delta-E=       -0.000000000025 Rises=F Damp=F
 DIIS: error= 4.80D-07 at cycle   5 NSaved=   5.
 NSaved= 5 IEnMin= 5 EnMin= -193.174221864464     IErMin= 5 ErrMin= 4.80D-07
 ErrMax= 4.80D-07  0.00D+00 EMaxC= 1.00D-01 BMatC= 4.94D-11 BMatP= 8.23D-11
 IDIUse=1 WtCom= 1.00D+00 WtEn= 0.00D+00
 Coeff-Com: -0.575D-02-0.240D-02 0.594D-01 0.472D+00 0.477D+00
 Coeff:     -0.575D-02-0.240D-02 0.594D-01 0.472D+00 0.477D+00
 Gap=     0.310 Goal=   None    Shift=    0.000
 RMSDP=1.92D-08 MaxDP=5.77D-07 DE=-2.53D-11 OVMax= 1.58D-06

 Cycle  12  Pass 1  IDiag  1:
 E= -193.174221864498     Delta-E=       -0.000000000034 Rises=F Damp=F
 DIIS: error= 4.64D-08 at cycle   6 NSaved=   6.
 NSaved= 6 IEnMin= 6 EnMin= -193.174221864498     IErMin= 6 ErrMin= 4.64D-08
 ErrMax= 4.64D-08  0.00D+00 EMaxC= 1.00D-01 BMatC= 3.91D-13 BMatP= 4.94D-11
 IDIUse=1 WtCom= 1.00D+00 WtEn= 0.00D+00
 Coeff-Com: -0.273D-02-0.158D-02 0.997D-02 0.118D+00 0.160D+00 0.717D+00
 Coeff:     -0.273D-02-0.158D-02 0.997D-02 0.118D+00 0.160D+00 0.717D+00
 Gap=     0.310 Goal=   None    Shift=    0.000
 RMSDP=2.32D-09 MaxDP=5.08D-08 DE=-3.38D-11 OVMax= 1.66D-07

 SCF Done:  E(RB3LYP) =  -193.174221864     A.U. after   12 cycles
            NFock= 12  Conv=0.23D-08     -V/T= 2.0073
 KE= 1.917745658573D+02 PE=-7.009002060985D+02 EE= 1.906989037049D+02
 Leave Link  502 at Thu Apr  7 11:46:29 2022, MaxMem=  1073741824 cpu:              50.8 elap:              10.1
 (Enter /home/saurabh/gaussian/g16/l801.exe)
 DoSCS=F DFT=T ScalE2(SS,OS)=  1.000000  1.000000
 Range of M.O.s used for correlation:     1   204
 NBasis=   204 NAE=    16 NBE=    16 NFC=     0 NFV=     0
 NROrb=    204 NOA=    16 NOB=    16 NVA=   188 NVB=   188

 **** Warning!!: The largest alpha MO coefficient is  0.12414983D+02

 Leave Link  801 at Thu Apr  7 11:46:29 2022, MaxMem=  1073741824 cpu:               0.2 elap:               0.0
 (Enter /home/saurabh/gaussian/g16/l1101.exe)
 Using compressed storage, NAtomX=    10.
 Will process     11 centers per pass.
 Leave Link 1101 at Thu Apr  7 11:46:29 2022, MaxMem=  1073741824 cpu:               1.4 elap:               0.2
 (Enter /home/saurabh/gaussian/g16/l1102.exe)
 Symmetrizing basis deriv contribution to polar:
 IMax=3 JMax=2 DiffMx= 0.00D+00
 Leave Link 1102 at Thu Apr  7 11:46:29 2022, MaxMem=  1073741824 cpu:               0.2 elap:               0.1
 (Enter /home/saurabh/gaussian/g16/l1110.exe)
 Forming Gx(P) for the SCF density, NAtomX=    10.
 Integral derivatives from FoFJK, PRISM(SPDF).
 Do as many integral derivatives as possible in FoFJK.
 G2DrvN: MDV=    1073740658.
 G2DrvN: will do    11 centers at a time, making    1 passes.
 Calling FoFCou, ICntrl=  3107 FMM=F I1Cent=   0 AccDes= 0.00D+00.
 FoFJK:  IHMeth= 1 ICntrl=    3107 DoSepK=F KAlg= 0 I1Cent=           0 FoldK=F
 IRaf=         0 NMat=       1 IRICut=       1 DoRegI=T DoRafI=F ISym2E= 0 IDoP0=0 IntGTp=1.
 FoFCou: FMM=F IPFlag=           0 FMFlag=      100000 FMFlg1=           0
         NFxFlg=           0 DoJE=F BraDBF=F KetDBF=F FulRan=T
         wScrn=  0.000000 ICntrl=      3107 IOpCl=  0 I1Cent=           0 NGrid=           0
         NMat0=    1 NMatS0=      1 NMatT0=    0 NMatD0=    1 NMtDS0=    0 NMtDT0=    0
 Symmetry not used in FoFCou.
 End of G2Drv F.D. properties file   721 does not exist.
 End of G2Drv F.D. properties file   722 does not exist.
 End of G2Drv F.D. properties file   788 does not exist.
 Leave Link 1110 at Thu Apr  7 11:46:44 2022, MaxMem=  1073741824 cpu:             122.4 elap:              15.3
 (Enter /home/saurabh/gaussian/g16/l1002.exe)
 Minotr:  Closed shell wavefunction.
          IDoAtm=1111111111
          Direct CPHF calculation.
          Differentiating once with respect to nuclear coordinates.
          Requested convergence is 1.0D-08 RMS, and 1.0D-07 maximum.
          Secondary convergence is 1.0D-12 RMS, and 1.0D-12 maximum.
          NewPWx=T KeepS1=F KeepF1=F KeepIn=T MapXYZ=F SortEE=F KeepMc=T.
         2960 words used for storage of precomputed grid.
 Keep R1 ints in memory in canonical form, NReq=227082995.
 FoFCou: FMM=F IPFlag=           0 FMFlag=           0 FMFlg1=           0
         NFxFlg=           0 DoJE=F BraDBF=F KetDBF=F FulRan=T
         wScrn=  0.000000 ICntrl=       600 IOpCl=  0 I1Cent=           0 NGrid=           0
         NMat0=    1 NMatS0=  20910 NMatT0=    0 NMatD0=    1 NMtDS0=    0 NMtDT0=    0
 Symmetry not used in FoFCou.
 Two-electron integral symmetry not used.
          MDV=    1073741824 using IRadAn=       1.
          Solving linear equations simultaneously, MaxMat=       0.
          There are    33 degrees of freedom in the 1st order CPHF.  IDoFFX=6 NUNeed=     0.
     27 vectors produced by pass  0 Test12= 9.12D-15 3.03D-09 XBig12= 9.72D-02 7.03D-02.
 AX will form    27 AO Fock derivatives at one time.
     27 vectors produced by pass  1 Test12= 9.12D-15 3.03D-09 XBig12= 1.87D-02 2.51D-02.
     27 vectors produced by pass  2 Test12= 9.12D-15 3.03D-09 XBig12= 2.69D-04 3.21D-03.
     27 vectors produced by pass  3 Test12= 9.12D-15 3.03D-09 XBig12= 1.72D-06 2.79D-04.
     27 vectors produced by pass  4 Test12= 9.12D-15 3.03D-09 XBig12= 4.23D-09 8.46D-06.
     15 vectors produced by pass  5 Test12= 9.12D-15 3.03D-09 XBig12= 6.73D-12 3.19D-07.
      5 vectors produced by pass  6 Test12= 9.12D-15 3.03D-09 XBig12= 7.01D-15 1.18D-08.
 InvSVY:  IOpt=1 It=  1 EMax= 1.78D-15
 Solved reduced A of dimension   155 with    27 vectors.
 End of Minotr F.D. properties file   721 does not exist.
 End of Minotr F.D. properties file   722 does not exist.
 End of Minotr F.D. properties file   788 does not exist.
 Leave Link 1002 at Thu Apr  7 11:46:59 2022, MaxMem=  1073741824 cpu:             117.9 elap:              14.8
 (Enter /home/saurabh/gaussian/g16/l601.exe)
 Copying SCF densities to generalized density rwf, IOpCl= 0 IROHF=0.

 **********************************************************************

            Population analysis using the SCF Density.

 **********************************************************************

 Orbital symmetries:
       Occupied  (A) (A) (A) (A) (A) (A) (A) (A) (A) (A) (A) (A)
                 (A) (A) (A) (A)
       Virtual   (A) (A) (A) (A) (A) (A) (A) (A) (A) (A) (A) (A)
                 (A) (A) (A) (A) (A) (A) (A) (A) (A) (A) (A) (A)
                 (A) (A) (A) (A) (A) (A) (A) (A) (A) (A) (A) (A)
                 (A) (A) (A) (A) (A) (A) (A) (A) (A) (A) (A) (A)
                 (A) (A) (A) (A) (A) (A) (A) (A) (A) (A) (A) (A)
                 (A) (A) (A) (A) (A) (A) (A) (A) (A) (A) (A) (A)
                 (A) (A) (A) (A) (A) (A) (A) (A) (A) (A) (A) (A)
                 (A) (A) (A) (A) (A) (A) (A) (A) (A) (A) (A) (A)
                 (A) (A) (A) (A) (A) (A) (A) (A) (A) (A) (A) (A)
                 (A) (A) (A) (A) (A) (A) (A) (A) (A) (A) (A) (A)
                 (A) (A) (A) (A) (A) (A) (A) (A) (A) (A) (A) (A)
                 (A) (A) (A) (A) (A) (A) (A) (A) (A) (A) (A) (A)
                 (A) (A) (A) (A) (A) (A) (A) (A) (A) (A) (A) (A)
                 (A) (A) (A) (A) (A) (A) (A) (A) (A) (A) (A) (A)
                 (A) (A) (A) (A) (A) (A) (A) (A) (A) (A) (A) (A)
                 (A) (A) (A) (A) (A) (A) (A) (A)
 The electronic state is 1-A.
 Alpha  occ. eigenvalues --  -19.13006 -10.23775 -10.22675 -10.17970  -1.08528
 Alpha  occ. eigenvalues --   -0.73993  -0.65291  -0.60136  -0.51274  -0.46854
 Alpha  occ. eigenvalues --   -0.42631  -0.40286  -0.38270  -0.36863  -0.30458
 Alpha  occ. eigenvalues --   -0.26762
 Alpha virt. eigenvalues --    0.04238   0.05971   0.06417   0.08685   0.10497
 Alpha virt. eigenvalues --    0.11007   0.11935   0.12598   0.17288   0.23317
 Alpha virt. eigenvalues --    0.23930   0.26584   0.29104   0.32430   0.34335
 Alpha virt. eigenvalues --    0.38023   0.39405   0.41078   0.42435   0.44068
 Alpha virt. eigenvalues --    0.44424   0.45708   0.46249   0.48122   0.50297
 Alpha virt. eigenvalues --    0.53598   0.54018   0.55930   0.61267   0.64138
 Alpha virt. eigenvalues --    0.70164   0.72365   0.76698   0.80331   0.83194
 Alpha virt. eigenvalues --    0.86612   0.88066   0.90180   0.93424   0.98535
 Alpha virt. eigenvalues --    0.99379   1.00440   1.03614   1.04219   1.06076
 Alpha virt. eigenvalues --    1.09797   1.12628   1.13823   1.16211   1.19771
 Alpha virt. eigenvalues --    1.21854   1.24025   1.26713   1.27664   1.30790
 Alpha virt. eigenvalues --    1.33351   1.36877   1.38321   1.41179   1.44651
 Alpha virt. eigenvalues --    1.46112   1.50487   1.56924   1.69769   1.70430
 Alpha virt. eigenvalues --    1.77093   1.91317   1.96888   2.03282   2.09159
 Alpha virt. eigenvalues --    2.15112   2.22044   2.23768   2.29559   2.33758
 Alpha virt. eigenvalues --    2.37770   2.38284   2.47512   2.49386   2.51808
 Alpha virt. eigenvalues --    2.59581   2.63582   2.67724   2.68718   2.72367
 Alpha virt. eigenvalues --    2.73335   2.77533   2.80516   2.83328   2.85668
 Alpha virt. eigenvalues --    2.89036   2.90394   2.93087   2.95374   2.97459
 Alpha virt. eigenvalues --    2.99307   3.01179   3.03244   3.06920   3.08035
 Alpha virt. eigenvalues --    3.08693   3.12321   3.15547   3.18168   3.20900
 Alpha virt. eigenvalues --    3.25643   3.26981   3.30453   3.32355   3.36199
 Alpha virt. eigenvalues --    3.39985   3.42224   3.43359   3.47349   3.50692
 Alpha virt. eigenvalues --    3.54548   3.57140   3.59518   3.61938   3.65818
 Alpha virt. eigenvalues --    3.67137   3.71992   3.75260   3.77498   3.79500
 Alpha virt. eigenvalues --    3.84603   3.87648   3.88586   3.90368   3.91595
 Alpha virt. eigenvalues --    3.95989   3.99056   4.01668   4.05481   4.05852
 Alpha virt. eigenvalues --    4.07022   4.10208   4.16581   4.18351   4.20965
 Alpha virt. eigenvalues --    4.21955   4.26420   4.29748   4.31668   4.38615
 Alpha virt. eigenvalues --    4.46954   4.52884   4.62282   4.66364   4.71949
 Alpha virt. eigenvalues --    4.74465   4.80163   4.82018   4.88279   4.90832
 Alpha virt. eigenvalues --    4.95174   5.00171   5.03620   5.08107   5.12290
 Alpha virt. eigenvalues --    5.13128   5.21028   5.22478   5.28395   5.28837
 Alpha virt. eigenvalues --    5.34407   5.38493   5.46649   5.57925   5.61562
 Alpha virt. eigenvalues --    5.70434   5.78408   5.79478   5.83920   5.89295
 Alpha virt. eigenvalues --    5.92343   5.99935   6.11569   6.45699   6.68860
 Alpha virt. eigenvalues --    6.86741   6.90458   6.99624   7.26300  10.47782
 Alpha virt. eigenvalues --   11.14689  12.49992  13.08116
          Condensed to atoms (all electrons):
               1          2          3          4          5          6
     1  C    4.865110   0.362111  -0.052245   0.397210   0.395497   0.364277
     2  C    0.362111   4.721621   0.337272  -0.033177  -0.033395  -0.034220
     3  C   -0.052245   0.337272   4.752446   0.008620  -0.003411  -0.000361
     4  H    0.397210  -0.033177   0.008620   0.602836  -0.028907  -0.031244
     5  H    0.395497  -0.033395  -0.003411  -0.028907   0.586543  -0.024638
     6  H    0.364277  -0.034220  -0.000361  -0.031244  -0.024638   0.637914
     7  O   -0.040270   0.234604   0.217617  -0.004601   0.006642   0.006693
     8  H   -0.044375   0.413079  -0.016748  -0.004797   0.005500   0.003094
     9  H    0.000323  -0.034575   0.420657  -0.000469   0.000507   0.000814
    10  H    0.007527  -0.022675   0.402131   0.000394  -0.000879  -0.001650
               7          8          9         10
     1  C   -0.040270  -0.044375   0.000323   0.007527
     2  C    0.234604   0.413079  -0.034575  -0.022675
     3  C    0.217617  -0.016748   0.420657   0.402131
     4  H   -0.004601  -0.004797  -0.000469   0.000394
     5  H    0.006642   0.005500   0.000507  -0.000879
     6  H    0.006693   0.003094   0.000814  -0.001650
     7  O    7.991647  -0.031194  -0.033455  -0.039962
     8  H   -0.031194   0.588301  -0.000067  -0.000101
     9  H   -0.033455  -0.000067   0.593139  -0.041503
    10  H   -0.039962  -0.000101  -0.041503   0.609140
 Mulliken charges:
               1
     1  C   -0.255165
     2  C    0.089356
     3  C   -0.065978
     4  H    0.094135
     5  H    0.096540
     6  H    0.079320
     7  O   -0.307721
     8  H    0.087308
     9  H    0.094627
    10  H    0.087578
 Sum of Mulliken charges =  -0.00000
 Mulliken charges with hydrogens summed into heavy atoms:
               1
     1  C    0.014830
     2  C    0.176663
     3  C    0.116227
     7  O   -0.307721
 APT charges:
               1
     1  C   -0.949962
     2  C   -0.264811
     3  C   -0.585122
     4  H    0.357853
     5  H    0.273907
     6  H    0.327093
     7  O   -0.168824
     8  H    0.342911
     9  H    0.387750
    10  H    0.279205
 Sum of APT charges =  -0.00000
 APT charges with hydrogens summed into heavy atoms:
               1
     1  C    0.008891
     2  C    0.078100
     3  C    0.081833
     7  O   -0.168824
 Electronic spatial extent (au):  <R**2>=            263.7530
 Charge=             -0.0000 electrons
 Dipole moment (field-independent basis, Debye):
    X=             -0.6239    Y=              1.2112    Z=              0.8350  Tot=              1.5979
 Quadrupole moment (field-independent basis, Debye-Ang):
   XX=            -24.6664   YY=            -26.2630   ZZ=            -24.5893
   XY=              1.7713   XZ=              0.7980   YZ=             -1.8166
 Traceless Quadrupole moment (field-independent basis, Debye-Ang):
   XX=              0.5065   YY=             -1.0901   ZZ=              0.5836
   XY=              1.7713   XZ=              0.7980   YZ=             -1.8166
 Octapole moment (field-independent basis, Debye-Ang**2):
  XXX=              5.8006  YYY=             -2.7153  ZZZ=             -0.9971  XYY=             -0.5909
  XXY=              0.4661  XXZ=              0.8218  XZZ=              1.3158  YZZ=             -0.5030
  YYZ=             -0.4776  XYZ=             -1.0263
 Hexadecapole moment (field-independent basis, Debye-Ang**3):
 XXXX=           -216.1569 YYYY=            -75.3252 ZZZZ=            -59.8518 XXXY=              0.6264
 XXXZ=              0.9031 YYYX=             -0.2316 YYYZ=             -0.7008 ZZZX=             -0.5769
 ZZZY=             -2.7511 XXYY=            -48.5430 XXZZ=            -45.8058 YYZZ=            -21.7856
 XXYZ=              0.9167 YYXZ=             -0.8804 ZZXY=             -0.9034
 N-N= 1.252525146719D+02 E-N=-7.009002051615D+02  KE= 1.917745658573D+02
  Exact polarizability:       0.000       0.000       0.000       0.000       0.000       0.000
 Approx polarizability:      56.365       3.362      53.230      -2.149      -1.099      52.079
 No NMR shielding tensors so no spin-rotation constants.
 Leave Link  601 at Thu Apr  7 11:46:59 2022, MaxMem=  1073741824 cpu:               1.1 elap:               0.2
 (Enter /home/saurabh/gaussian/g16/l701.exe)
 ... and contract with generalized density number  0.
 Compute integral second derivatives.
 Leave Link  701 at Thu Apr  7 11:46:59 2022, MaxMem=  1073741824 cpu:               1.5 elap:               0.2
 (Enter /home/saurabh/gaussian/g16/l702.exe)
 L702 exits ... SP integral derivatives will be done elsewhere.
 Leave Link  702 at Thu Apr  7 11:47:00 2022, MaxMem=  1073741824 cpu:               0.2 elap:               0.0
 (Enter /home/saurabh/gaussian/g16/l703.exe)
 Integral derivatives from FoFJK, PRISM(SPDF).
 Compute integral second derivatives, UseDBF=F ICtDFT=           0.
 Calling FoFJK, ICntrl=    100127 FMM=F ISym2X=0 I1Cent= 0 IOpClX= 0 NMat=1 NMatS=1 NMatT=0.
 FoFJK:  IHMeth= 1 ICntrl=  100127 DoSepK=F KAlg= 0 I1Cent=           0 FoldK=F
 IRaf=         0 NMat=       1 IRICut=       1 DoRegI=T DoRafI=F ISym2E= 0 IDoP0=0 IntGTp=1.
 FoFCou: FMM=F IPFlag=           0 FMFlag=      100000 FMFlg1=         800
         NFxFlg=           0 DoJE=F BraDBF=F KetDBF=F FulRan=T
         wScrn=  0.000000 ICntrl=    100127 IOpCl=  0 I1Cent=           0 NGrid=           0
         NMat0=    1 NMatS0=      1 NMatT0=    0 NMatD0=    1 NMtDS0=    0 NMtDT0=    0
 Symmetry not used in FoFCou.
 Leave Link  703 at Thu Apr  7 11:47:41 2022, MaxMem=  1073741824 cpu:             333.8 elap:              41.7
 (Enter /home/saurabh/gaussian/g16/l716.exe)
 Dipole        =-2.45449869D-01 4.76517512D-01 3.28513218D-01
 Polarizability= 0.00000000D+00 0.00000000D+00 0.00000000D+00
                 0.00000000D+00 0.00000000D+00 0.00000000D+00
 ***** Axes restored to original set *****
 -------------------------------------------------------------------
 Center     Atomic                   Forces (Hartrees/Bohr)
 Number     Number              X              Y              Z
 -------------------------------------------------------------------
      1        6          -0.010241497    0.003729967   -0.012807122
      2        6          -0.005498249   -0.009172984    0.008819503
      3        6           0.019119757    0.005428514    0.002516089
      4        1           0.002879126   -0.011143128   -0.001205137
      5        1           0.000710231    0.007087725   -0.013874333
      6        1           0.003476522    0.006711060    0.008022850
      7        8           0.010658645    0.026824207    0.012567435
      8        1          -0.007888531   -0.011607405    0.010900840
      9        1          -0.013129001   -0.015829928    0.008727885
     10        1          -0.000087004   -0.002028027   -0.023668009
 -------------------------------------------------------------------
 Cartesian Forces:  Max     0.026824207 RMS     0.011173313
 Force constants in Cartesian coordinates: 
                1             2             3             4             5 
      1  0.476131D+00
      2 -0.130783D-01  0.518789D+00
      3  0.423077D-01  0.674957D-03  0.507143D+00
      4 -0.139838D+00 -0.516037D-02  0.601764D-01  0.564717D+00
      5 -0.759398D-02 -0.779977D-01  0.164392D-01 -0.533226D-01  0.349518D+00
      6  0.474888D-01  0.158679D-01 -0.119717D+00  0.300466D-01 -0.138436D+00
      7 -0.184572D-01  0.243345D-01  0.528127D-02 -0.174449D+00  0.966380D-01
      8 -0.343737D-02  0.266731D-02 -0.107479D-02  0.138306D+00 -0.911829D-01
      9  0.501236D-02 -0.182182D-01 -0.390099D-02 -0.527695D-02  0.456828D-01
     10 -0.908336D-01  0.846481D-01  0.176810D-01 -0.159152D-01  0.260567D-01
     11  0.856146D-01 -0.223148D+00 -0.367377D-01 -0.255699D-02  0.546976D-02
     12  0.179844D-01 -0.363414D-01 -0.591924D-01  0.985340D-02 -0.169491D-01
     13 -0.607225D-01  0.234965D-01 -0.434458D-01  0.390294D-02 -0.129068D-01
     14  0.222563D-01 -0.970453D-01  0.893157D-01  0.847738D-03 -0.380067D-02
     15 -0.391084D-01  0.891398D-01 -0.215115D+00 -0.462791D-02  0.731386D-02
     16 -0.135804D+00 -0.786824D-01 -0.728492D-01 -0.151887D-01 -0.146004D-01
     17 -0.792527D-01 -0.121798D+00 -0.663823D-01 -0.222626D-02 -0.356247D-02
     18 -0.743371D-01 -0.667156D-01 -0.115468D+00  0.903676D-02  0.929016D-02
     19 -0.371812D-01 -0.282030D-01 -0.270422D-01 -0.163519D+00 -0.450483D-01
     20 -0.621321D-02 -0.120262D-02 -0.437563D-02 -0.788092D-01 -0.558982D-01
     21  0.265363D-02  0.750676D-02  0.126286D-01 -0.997281D-01 -0.237193D-01
     22  0.616557D-02 -0.109506D-01  0.193421D-01 -0.527280D-01 -0.184036D-02
     23  0.239067D-02 -0.525259D-03  0.854200D-03  0.340440D-02 -0.110191D+00
     24 -0.234748D-02  0.589111D-02 -0.668205D-02  0.787802D-02  0.101342D+00
     25 -0.439470D-03  0.400740D-02  0.199430D-04 -0.114694D-01 -0.270863D-02
     26 -0.739475D-03  0.268565D-03  0.420645D-03  0.209957D-02 -0.666029D-02
     27 -0.513421D-03  0.318941D-02 -0.938283D-04 -0.115042D-01 -0.406764D-02
     28  0.978951D-03 -0.411956D-03 -0.147118D-02  0.448732D-02  0.153265D-01
     29  0.535345D-04 -0.852025D-05  0.865675D-03 -0.258246D-02 -0.569415D-02
     30  0.859529D-03 -0.994742D-03  0.397762D-03  0.414590D-02  0.310469D-02
                6             7             8             9            10 
      6  0.515579D+00
      7 -0.214209D-01  0.464414D+00
      8  0.696354D-01 -0.119846D+00  0.475203D+00
      9 -0.426509D-01 -0.129469D+00 -0.120304D+00  0.466858D+00
     10  0.556971D-02 -0.352767D-02 -0.293509D-03  0.530022D-02  0.100514D+00
     11  0.264503D-03 -0.203762D-02  0.854011D-03  0.122377D-03 -0.959007D-01
     12 -0.383667D-02  0.951602D-03  0.923694D-03 -0.257059D-02 -0.242152D-01
     13  0.245666D-01  0.116503D-02 -0.166258D-03  0.197180D-02 -0.344138D-02
     14  0.344919D-02  0.490056D-03  0.123683D-02 -0.646697D-03  0.571479D-02
     15 -0.163600D-01 -0.120367D-02  0.246280D-03 -0.232975D-03  0.138452D-02
     16 -0.176954D-01  0.924775D-03 -0.502318D-03 -0.145633D-02  0.101462D-01
     17 -0.311747D-02 -0.832384D-03  0.224009D-03  0.338169D-03 -0.180171D-01
     18  0.106957D-01 -0.139122D-02 -0.304980D-03  0.363592D-03 -0.323091D-02
     19 -0.777426D-01 -0.278879D-01 -0.197473D-01  0.778925D-02  0.326084D-02
     20 -0.445781D-01  0.188172D-01 -0.210290D+00 -0.590497D-01 -0.137910D-02
     21 -0.132279D+00  0.251275D-01 -0.835924D-01 -0.794552D-01 -0.140846D-02
     22  0.105444D-01 -0.307269D-02  0.452779D-02 -0.142007D-01  0.705805D-03
     23  0.106394D+00 -0.351144D-02 -0.108175D-01  0.198865D-01 -0.608943D-03
     24 -0.213142D+00 -0.159860D-02 -0.664919D-02  0.401395D-02 -0.969734D-04
     25  0.178152D-01 -0.180514D+00  0.119977D-02  0.115769D+00 -0.128938D-02
     26 -0.503196D-02 -0.973779D-02 -0.444103D-01  0.213199D-01 -0.221898D-03
     27  0.991558D-02  0.110300D+00  0.178484D-01 -0.150906D+00 -0.109923D-02
     28 -0.191724D-01 -0.585957D-01 -0.411403D-04  0.145609D-01  0.380459D-03
     29 -0.444723D-02 -0.431461D-02 -0.123485D+00  0.110869D+00  0.169404D-05
     30 -0.820476D-02  0.134231D-01  0.123272D+00 -0.191519D+00  0.115260D-03
               11            12            13            14            15 
     11  0.241760D+00
     12  0.416462D-01  0.607927D-01
     13  0.502163D-02 -0.116485D-01  0.650145D-01
     14 -0.117616D-01  0.232442D-01 -0.258123D-01  0.102217D+00
     15 -0.274219D-02  0.635909D-02  0.441160D-01 -0.988984D-01  0.234407D+00
     16  0.741318D-02  0.784354D-02 -0.432290D-02 -0.310149D-02 -0.285604D-02
     17 -0.147377D-01 -0.136519D-01  0.102494D-01  0.894620D-02  0.671156D-02
     18 -0.255683D-02 -0.380786D-02 -0.158233D-01 -0.155470D-01 -0.125745D-01
     19  0.243290D-02 -0.111908D-02  0.299279D-02  0.257033D-03 -0.108556D-02
     20  0.873506D-03  0.153492D-02  0.113629D-03 -0.551755D-03 -0.828396D-03
     21  0.670368D-03  0.119154D-02 -0.135134D-02 -0.619053D-03  0.280988D-02
     22  0.628963D-03 -0.547684D-03 -0.435919D-02 -0.660111D-03  0.257621D-02
     23  0.345173D-03  0.426937D-04 -0.489379D-03  0.698813D-03 -0.148727D-03
     24 -0.434094D-03  0.843210D-04  0.185845D-02 -0.432968D-05  0.173445D-04
     25 -0.314348D-03  0.602092D-03  0.926003D-04  0.374905D-04 -0.731820D-04
     26  0.292100D-03 -0.230586D-03  0.672336D-04  0.610361D-04 -0.468339D-03
     27 -0.252407D-04  0.764293D-03 -0.116352D-03 -0.504325D-05  0.217138D-03
     28 -0.301529D-03  0.295394D-03 -0.321947D-03 -0.295130D-04  0.878047D-03
     29  0.523965D-04 -0.218659D-03  0.426235D-03  0.000000D+00 -0.325498D-03
     30 -0.207330D-03  0.215612D-03 -0.127532D-03 -0.288615D-03  0.471798D-03
               16            17            18            19            20 
     16  0.152078D+00
     17  0.904148D-01  0.129389D+00
     18  0.818575D-01  0.748780D-01  0.120830D+00
     19 -0.811674D-02 -0.157092D-04  0.484491D-02  0.230473D+00
     20 -0.116322D-02  0.131761D-02  0.127056D-02  0.547643D-01  0.310791D+00
     21  0.420059D-02  0.786251D-03  0.339146D-03  0.963851D-01  0.129923D+00
     22  0.536511D-03 -0.732288D-04 -0.103603D-02 -0.101243D-01  0.110584D-01
     23 -0.102278D-03 -0.371387D-04 -0.938875D-04 -0.134669D-02  0.132522D-01
     24  0.890369D-03  0.391811D-03 -0.203238D-03 -0.167791D-01  0.704267D-02
     25 -0.430582D-04 -0.180576D-03 -0.206411D-04  0.710570D-02  0.670439D-02
     26  0.130462D-03  0.136099D-03  0.830834D-05  0.297102D-01 -0.165152D-01
     27  0.135172D-03 -0.111521D-05 -0.108118D-03  0.158022D-01 -0.153828D-01
     28 -0.210182D-03 -0.662826D-04  0.100103D-03  0.299739D-02 -0.389320D-02
     29  0.193670D-03  0.122132D-03 -0.228685D-03  0.719651D-02 -0.417766D-01
     30 -0.701670D-04  0.470235D-04 -0.664391D-04 -0.105288D-02 -0.155571D-01
               21            22            23            24            25 
     21  0.208517D+00
     22 -0.256155D-01  0.636228D-01
     23 -0.196547D-01 -0.230530D-02  0.105584D+00
     24 -0.204469D-01  0.903997D-02 -0.107597D+00  0.235618D+00
     25 -0.455517D-02  0.483149D-03 -0.139204D-03 -0.608952D-03  0.184350D+00
     26 -0.263513D-01  0.663031D-03  0.698852D-03  0.897995D-04 -0.853022D-02
     27 -0.102199D-01  0.453088D-03 -0.827759D-03 -0.465449D-03 -0.125447D+00
     28  0.429180D-02 -0.122964D-02  0.270816D-02  0.176428D-02  0.172355D-02
     29  0.150498D-01 -0.104859D-02  0.992311D-03 -0.727461D-04 -0.760795D-04
     30  0.169150D-01 -0.555722D-03  0.114416D-02  0.120551D-02 -0.350095D-02
               26            27            28            29            30 
     26  0.619751D-01
     27  0.132419D-02  0.158369D+00
     28 -0.134411D-01  0.119896D-01  0.497898D-01
     29  0.415409D-02 -0.205243D-02  0.150096D-03  0.165644D+00
     30  0.891934D-02 -0.747321D-02 -0.132366D-01 -0.119439D+00  0.188058D+00
 FormGI is forming the generalized inverse of G from B-inverse, IUseBI=4.
 Force constants in internal coordinates: 
                1             2             3             4             5 
      1  0.265074D+00
      2  0.727353D-02  0.299908D+00
      3  0.195427D-02  0.298180D-02  0.298364D+00
      4  0.692732D-02  0.291761D-02  0.272918D-02  0.300368D+00
      5  0.116252D-01 -0.143794D-02 -0.958556D-04  0.177198D-02  0.276148D+00
      6  0.231566D-01  0.132118D-02  0.421495D-03  0.757461D-03 -0.102384D-01
      7  0.360119D-02  0.562119D-03 -0.645807D-03  0.646044D-03  0.144732D-02
      8 -0.380741D-02  0.579915D-03  0.111942D-02 -0.198589D-02  0.515980D-01
      9  0.411896D-05 -0.998493D-04 -0.157890D-03  0.122728D-03  0.576716D-02
     10  0.476177D-03 -0.133097D-03  0.498585D-03  0.805408D-04  0.410059D-02
     11  0.153814D-01  0.274630D-02 -0.565189D-02 -0.619048D-02  0.488262D-02
     12  0.152404D-01 -0.593697D-02  0.370411D-03 -0.635470D-02 -0.378175D-02
     13  0.120925D-01 -0.556123D-02 -0.527168D-02  0.451305D-02  0.448706D-03
     14 -0.153685D-01  0.464145D-02  0.555144D-02  0.444357D-03 -0.369152D-03
     15 -0.145079D-01  0.426675D-02  0.127855D-03  0.407477D-02 -0.185400D-02
     16 -0.139518D-01  0.183123D-03  0.495472D-02  0.381285D-02  0.665428D-03
     17  0.213148D-01  0.320227D-02 -0.392191D-02  0.985638D-03  0.272463D-01
     18  0.143578D-01 -0.301545D-03 -0.333697D-02  0.441723D-02  0.270272D-01
     19 -0.198784D-02 -0.107952D-02  0.376107D-02 -0.117150D-02 -0.230836D-01
     20 -0.186040D-01 -0.181118D-02  0.270953D-03 -0.153152D-03  0.563049D-03
     21 -0.875800D-02  0.109497D-03  0.621232D-03 -0.211751D-02  0.359982D-02
     22  0.293103D-02  0.363970D-03 -0.282332D-03  0.103518D-02  0.702035D-02
     23 -0.187931D-02 -0.223563D-03  0.952498D-03 -0.821022D-03  0.246019D-03
     24 -0.447383D-02  0.441558D-03  0.838700D-03 -0.194851D-02  0.226799D-01
     25 -0.531850D-03 -0.111247D-02 -0.735669D-03  0.182510D-02  0.338127D-01
     26 -0.115846D-02 -0.118677D-03 -0.631662D-03 -0.220447D-03 -0.646016D-02
     27  0.108421D-02  0.182215D-03  0.263863D-02 -0.345032D-02 -0.143167D-01
     28  0.110467D-02 -0.734396D-03  0.422940D-02 -0.373281D-02  0.139313D-01
     29 -0.397994D-03  0.790547D-03  0.295171D-02 -0.448970D-02  0.659546D-03
     30  0.202263D-03 -0.368956D-02 -0.753542D-03  0.425851D-02 -0.147227D-01
     31  0.222730D-03 -0.460617D-02  0.837228D-03  0.397602D-02  0.135253D-01
     32 -0.127994D-02 -0.308123D-02 -0.440459D-03  0.321913D-02  0.253529D-03
     33 -0.304914D-03  0.369212D-02 -0.364442D-02  0.500930D-03 -0.134221D-01
     34 -0.284447D-03  0.277551D-02 -0.205365D-02  0.218439D-03  0.148259D-01
     35 -0.178711D-02  0.430045D-02 -0.333134D-02 -0.538447D-03  0.155415D-02
     36  0.472938D-03  0.119606D-02  0.682321D-03 -0.142967D-02  0.743216D-02
     37  0.151838D-02  0.100670D-02  0.379661D-03 -0.135904D-02  0.571689D-03
     38 -0.128608D-02  0.506705D-03 -0.422290D-03 -0.197749D-03 -0.152366D-02
     39 -0.240638D-03  0.317338D-03 -0.724950D-03 -0.127115D-03 -0.838414D-02
                6             7             8             9            10 
      6  0.293294D+00
      7  0.157451D-01  0.296612D+00
      8  0.402991D-01 -0.100722D-02  0.211150D+00
      9 -0.360094D-02  0.345763D-03  0.139858D-01  0.297496D+00
     10 -0.422995D-02 -0.725480D-03  0.143984D-01  0.116229D-02  0.296965D+00
     11 -0.489903D-02 -0.780427D-03  0.183790D-02  0.418011D-03  0.100841D-03
     12 -0.456027D-02  0.245969D-02  0.312172D-02 -0.378768D-03  0.600599D-03
     13  0.117004D-01  0.572498D-03 -0.401708D-02  0.146099D-03  0.150526D-03
     14  0.228108D-02 -0.795895D-03 -0.155667D-02  0.303475D-04 -0.425801D-03
     15 -0.223269D-02 -0.278791D-03  0.696094D-03 -0.223167D-03 -0.977467D-04
     16 -0.233155D-02 -0.124861D-02 -0.109780D-03  0.490056D-05 -0.349023D-03
     17  0.178751D-01 -0.711615D-02 -0.271736D-01 -0.176424D-02 -0.340236D-02
     18  0.356237D-01 -0.158686D-03 -0.483225D-01 -0.118135D-02 -0.355763D-02
     19 -0.235470D-01  0.368521D-02  0.167170D-01  0.629683D-03  0.157343D-02
     20  0.419077D-02  0.379604D-02  0.475257D-02  0.573671D-03  0.117379D-02
     21  0.558582D-02 -0.173035D-03  0.201230D-02 -0.167997D-02 -0.140874D-03
     22  0.877232D-02  0.113683D-02 -0.506814D-02  0.291392D-02 -0.831255D-02
     23  0.283875D-02 -0.711461D-03  0.807483D-02 -0.880473D-02  0.200276D-02
     24 -0.482824D-01 -0.344299D-02  0.386504D-01  0.215852D-02 -0.441403D-03
     25 -0.336447D-01 -0.641378D-03  0.125325D-01 -0.559982D-03  0.208124D-02
     26 -0.123695D-01 -0.545973D-03 -0.618100D-02  0.583094D-02  0.621747D-02
     27 -0.889415D-02 -0.231832D-02  0.248590D-01  0.233332D-02  0.208903D-02
     28  0.152186D-01  0.347185D-02 -0.312606D-01 -0.289515D-02 -0.267282D-02
     29 -0.120871D-01 -0.521348D-03  0.809712D-02  0.727006D-03  0.296584D-03
     30 -0.551850D-02 -0.237160D-02  0.235665D-01  0.225608D-02  0.216985D-02
     31  0.185943D-01  0.341857D-02 -0.325531D-01 -0.297239D-02 -0.259200D-02
     32 -0.871145D-02 -0.574625D-03  0.680461D-02  0.649766D-03  0.377404D-03
     33 -0.758811D-02 -0.277846D-02  0.244171D-01  0.239530D-02  0.211874D-02
     34  0.165247D-01  0.301172D-02 -0.317025D-01 -0.283317D-02 -0.264312D-02
     35 -0.107811D-01 -0.981484D-03  0.765521D-02  0.788990D-03  0.326292D-03
     36 -0.101741D-01 -0.557228D-04 -0.188242D-01 -0.214413D-04 -0.157855D-02
     37 -0.241591D-02  0.107531D-02  0.104331D-01  0.904343D-04 -0.117329D-02
     38 -0.929800D-03 -0.187503D-02 -0.567013D-02  0.148399D-02  0.685884D-05
     39  0.682841D-02 -0.743996D-03  0.235872D-01  0.159587D-02  0.412119D-03
               11            12            13            14            15 
     11  0.103200D+00
     12 -0.215159D-01  0.100576D+00
     13 -0.145986D-01 -0.198191D-01  0.101135D+00
     14 -0.408264D-01 -0.372954D-01  0.108027D-01  0.500883D-01
     15 -0.389979D-01  0.132856D-01 -0.386636D-01  0.945199D-02  0.476480D-01
     16  0.113211D-01 -0.369408D-01 -0.405744D-01  0.923394D-02  0.926837D-02
     17  0.126849D-01 -0.588605D-02 -0.530007D-03 -0.322085D-02 -0.471346D-02
     18 -0.336123D-02 -0.949781D-02  0.146631D-01  0.388352D-02 -0.407717D-02
     19 -0.646937D-02  0.115234D-01 -0.557410D-02 -0.137237D-02  0.381813D-02
     20 -0.480157D-02 -0.525589D-02  0.456249D-02  0.394475D-02  0.900090D-03
     21  0.398255D-02 -0.115756D-03 -0.561154D-02 -0.111207D-02  0.104298D-02
     22  0.778526D-03 -0.208801D-02  0.271881D-02  0.260238D-03 -0.131036D-02
     23  0.482013D-03  0.231084D-02 -0.237523D-02 -0.122844D-02  0.746100D-03
     24  0.568204D-02  0.335558D-02 -0.873519D-02 -0.296130D-02  0.111084D-02
     25 -0.416940D-02 -0.203922D-02  0.572692D-02  0.215125D-02 -0.573364D-03
     26 -0.984005D-03 -0.196222D-03 -0.534697D-03  0.856350D-03  0.524333D-03
     27 -0.125109D-02  0.419066D-02 -0.291237D-02  0.612611D-02 -0.617811D-02
     28 -0.330864D-02  0.550861D-02 -0.372191D-02  0.648652D-02 -0.496670D-02
     29  0.222579D-02  0.406562D-02 -0.658094D-02  0.496869D-02 -0.606112D-02
     30 -0.588380D-02  0.955743D-03  0.611834D-02 -0.523933D-02 -0.233076D-03
     31 -0.794135D-02  0.227369D-02  0.530880D-02 -0.487893D-02  0.978336D-03
     32 -0.240692D-02  0.830707D-03  0.244977D-02 -0.639675D-02 -0.116086D-03
     33  0.368799D-02 -0.407113D-02  0.125868D-02 -0.105311D-03  0.579083D-02
     34  0.163044D-02 -0.275318D-02  0.449139D-03  0.255091D-03  0.700224D-02
     35  0.716487D-02 -0.419617D-02 -0.240989D-02 -0.126273D-02  0.590782D-02
     36  0.539599D-02  0.273007D-02 -0.669459D-02 -0.277595D-02  0.249252D-03
     37  0.295713D-02  0.250804D-02 -0.492860D-02 -0.182422D-02  0.576510D-03
     38  0.260747D-02 -0.804497D-03 -0.102220D-02 -0.585493D-03 -0.557946D-03
     39  0.168620D-03 -0.102653D-02  0.743785D-03  0.366231D-03 -0.230689D-03
               16            17            18            19            20 
     16  0.492287D-01
     17  0.156428D-02  0.103107D+00
     18 -0.163253D-02  0.135352D-01  0.880798D-01
     19 -0.198224D-02 -0.418490D-01 -0.242092D-01  0.603577D-01
     20  0.803407D-03 -0.570646D-01  0.931846D-02 -0.191688D-01  0.740384D-01
     21  0.187963D-02  0.169146D-01 -0.482178D-01 -0.213767D-01  0.576874D-02
     22 -0.384215D-03 -0.550138D-02  0.240304D-01  0.174756D-03  0.477908D-02
     23  0.522455D-04  0.782759D-02 -0.220915D-01 -0.214464D-02 -0.478062D-02
     24  0.154715D-02  0.223744D-01 -0.606115D-01  0.845022D-03 -0.219045D-01
     25 -0.109104D-02 -0.294941D-01  0.432553D-01  0.586140D-02  0.211551D-01
     26  0.369565D-03 -0.183135D-02 -0.151797D-02  0.176616D-02 -0.300278D-04
     27 -0.262700D-03  0.576307D-03 -0.236899D-02  0.393529D-02 -0.659158D-02
     28 -0.253829D-03 -0.191045D-02 -0.238551D-03  0.260526D-02  0.512454D-03
     29  0.111247D-02  0.277559D-02 -0.413948D-02 -0.314110D-02  0.193566D-02
     30  0.422346D-02 -0.168122D-03  0.112708D-02  0.262685D-02 -0.492475D-02
     31  0.423233D-02 -0.265488D-02  0.325752D-02  0.129682D-02  0.217929D-02
     32  0.559863D-02  0.203116D-02 -0.643407D-03 -0.444954D-02  0.360250D-02
     33 -0.628200D-02  0.202573D-02 -0.645376D-03  0.146423D-02 -0.563999D-02
     34 -0.627313D-02 -0.461033D-03  0.148506D-02  0.134198D-03  0.146405D-02
     35 -0.490683D-02  0.422501D-02 -0.241586D-02 -0.561216D-02  0.288725D-02
     36  0.106209D-02  0.103690D-01 -0.537433D-02  0.426050D-02 -0.111968D-01
     37  0.695092D-03  0.602639D-02 -0.914100D-02  0.597967D-02 -0.109197D-01
     38  0.355110D-03  0.667340D-02  0.366058D-02 -0.647651D-02 -0.534830D-03
     39 -0.118861D-04  0.233076D-02 -0.106085D-03 -0.475734D-02 -0.257790D-03
               21            22            23            24            25 
     21  0.585763D-01
     22 -0.192571D-01  0.696152D-01
     23  0.195307D-01 -0.382894D-01  0.676778D-01
     24  0.433496D-01  0.398673D-02  0.574495D-02  0.795685D-01
     25 -0.442295D-01  0.358409D-02  0.633185D-02 -0.371836D-01  0.710611D-01
     26 -0.141036D-03 -0.305010D-01 -0.288335D-01 -0.112401D-01 -0.114276D-01
     27 -0.637268D-02  0.315256D-03 -0.141931D-02  0.326009D-02  0.512005D-02
     28  0.935190D-02 -0.140560D-02  0.201741D-02 -0.187817D-02 -0.956469D-02
     29 -0.803132D-03 -0.399223D-03  0.415561D-03  0.286279D-02  0.168962D-02
     30 -0.759280D-02  0.803892D-03 -0.168676D-02  0.983868D-03  0.654573D-02
     31  0.813178D-02 -0.916965D-03  0.174996D-02 -0.415439D-02 -0.813901D-02
     32 -0.202326D-02  0.894136D-04  0.148111D-03  0.586565D-03  0.311530D-02
     33 -0.607066D-02  0.788938D-03 -0.163152D-02  0.280407D-02  0.534505D-02
     34  0.965392D-02 -0.931919D-03  0.180520D-02 -0.233419D-02 -0.933969D-02
     35 -0.501116D-03  0.744592D-04  0.203350D-03  0.240676D-02  0.191462D-02
     36  0.139572D-02  0.445221D-02  0.292276D-03 -0.529160D-02 -0.928842D-02
     37  0.249778D-03 -0.979313D-03 -0.255124D-02  0.919958D-02  0.524682D-02
     38  0.206797D-02  0.602874D-02 -0.190735D-02 -0.937906D-02 -0.321411D-02
     39  0.922032D-03  0.597214D-03 -0.475087D-02  0.511212D-02  0.113211D-01
               26            27            28            29            30 
     26  0.584704D-01
     27  0.428449D-03  0.148786D-01
     28  0.273960D-04 -0.194979D-02  0.204854D-01
     29  0.964803D-04  0.714371D-02  0.177683D-02  0.123775D-01
     30  0.143787D-03  0.533560D-02 -0.114019D-01 -0.321478D-02  0.152797D-01
     31 -0.257267D-03 -0.114928D-01  0.110332D-01 -0.858165D-02 -0.145787D-02
     32 -0.188183D-03 -0.239934D-02 -0.767529D-02  0.201900D-02  0.672927D-02
     33  0.168846D-03  0.493778D-02 -0.121122D-01 -0.276970D-02  0.519364D-02
     34 -0.232208D-03 -0.118907D-01  0.103229D-01 -0.813658D-02 -0.115439D-01
     35 -0.163123D-03 -0.279715D-02 -0.838557D-02  0.246408D-02 -0.335674D-02
     36 -0.207571D-02 -0.445384D-02  0.420948D-02  0.367327D-02 -0.636765D-02
     37  0.158354D-02  0.164291D-02 -0.158759D-02  0.264380D-02  0.324442D-03
     38 -0.216676D-02  0.763796D-03  0.149155D-03 -0.240772D-03  0.254057D-03
     39  0.149249D-02  0.686055D-02 -0.564791D-02 -0.127024D-02  0.694614D-02
               31            32            33            34            35 
     31  0.210682D-01
     32  0.145332D-02  0.111476D-01
     33 -0.118563D-01 -0.251385D-02  0.148702D-01
     34  0.106697D-01 -0.778980D-02 -0.217981D-02  0.200338D-01
     35 -0.894516D-02  0.190449D-02  0.716269D-02  0.157427D-02  0.124239D-01
     36  0.229567D-02  0.175947D-02 -0.491942D-02  0.374389D-02  0.320769D-02
     37 -0.290606D-02  0.132533D-02  0.117812D-02 -0.205238D-02  0.217901D-02
     38 -0.360585D-03 -0.750511D-03  0.102131D-02  0.406664D-03  0.167372D-04
     39 -0.556231D-02 -0.118464D-02  0.711885D-02 -0.538961D-02 -0.101193D-02
               36            37            38            39 
     36  0.257441D-01
     37  0.167484D-02  0.192242D-01
     38  0.148102D-01 -0.277799D-02  0.171444D-01
     39 -0.925912D-02  0.147713D-01 -0.443798D-03  0.235867D-01
 Leave Link  716 at Thu Apr  7 11:47:41 2022, MaxMem=  1073741824 cpu:               0.2 elap:               0.0
 (Enter /home/saurabh/gaussian/g16/l103.exe)

 GradGradGradGradGradGradGradGradGradGradGradGradGradGradGradGradGradGrad
 Berny optimization.
 Red2BG is reusing G-inverse.
 Internal  Forces:  Max     0.017781069 RMS     0.009124246
 Search for a local minimum.
 Step number   1 out of a maximum of  100
 All quantities printed in internal units (Hartrees-Bohrs-Radians)
 RMS Force = .91242D-02 SwitMx=.10000D-02 MixMth= 1
 Mixed Optimization -- RFO/linear search
 Second derivative matrix not updated -- analytic derivatives used.
 ITU=  0
     Eigenvalues ---    0.00167   0.02162   0.03100   0.04182   0.04476
     Eigenvalues ---    0.04641   0.08727   0.09141   0.10630   0.12108
     Eigenvalues ---    0.12792   0.13814   0.15483   0.22743   0.25934
     Eigenvalues ---    0.27660   0.29080   0.29581   0.29682   0.29886
     Eigenvalues ---    0.30177   0.30729   0.32918   0.34795
 RFO step:  Lambda=-1.76194655D-02 EMin= 1.66815841D-03
 Linear search not attempted -- first point.
 Iteration  1 RMS(Cart)=  0.05862817 RMS(Int)=  0.00456143
 Iteration  2 RMS(Cart)=  0.00399730 RMS(Int)=  0.00271576
 Iteration  3 RMS(Cart)=  0.00001023 RMS(Int)=  0.00271574
 Iteration  4 RMS(Cart)=  0.00000001 RMS(Int)=  0.00271574
 ITry= 1 IFail=0 DXMaxC= 1.57D-01 DCOld= 1.00D+10 DXMaxT= 3.00D-01 DXLimC= 3.00D+00 Rises=F
 Variable       Old X    -DE/DX   Delta X   Delta X   Delta X     New X
                                 (Linear)    (Quad)   (Total)
    R1        2.88125  -0.00908   0.00000  -0.04323  -0.04323   2.83802
    R2        2.09724  -0.01126   0.00000  -0.03503  -0.03503   2.06220
    R3        2.10062  -0.01513   0.00000  -0.04254  -0.04254   2.05808
    R4        2.09689  -0.01026   0.00000  -0.03283  -0.03283   2.06405
    R5        2.79854  -0.00086   0.00000  -0.03006  -0.02856   2.76998
    R6        2.64524   0.01778   0.00000   0.05378   0.05393   2.69916
    R7        2.09773  -0.01502   0.00000  -0.04483  -0.04483   2.05290
    R8        2.67700   0.01671   0.00000   0.02947   0.02779   2.70479
    R9        2.09699  -0.01558   0.00000  -0.04990  -0.04990   2.04709
   R10        2.09832  -0.01668   0.00000  -0.05065  -0.05065   2.04767
    A1        1.90601   0.00403   0.00000   0.02248   0.02233   1.92834
    A2        1.95684  -0.00749   0.00000  -0.02961  -0.02942   1.92743
    A3        1.90544   0.00643   0.00000   0.02684   0.02672   1.93216
    A4        1.89552   0.00067   0.00000  -0.00358  -0.00342   1.89210
    A5        1.89934  -0.00387   0.00000  -0.01507  -0.01553   1.88381
    A6        1.89990   0.00019   0.00000  -0.00126  -0.00104   1.89885
    A7        2.04204   0.01253   0.00000   0.07943   0.07861   2.12065
    A8        1.95365   0.00788   0.00000   0.06228   0.06000   2.01365
    A9        2.12508  -0.01278   0.00000  -0.09258  -0.09186   2.03323
   A10        2.05787  -0.00147   0.00000  -0.00456  -0.00531   2.05256
   A11        1.95017   0.00034   0.00000   0.02024   0.02179   1.97196
   A12        2.05828   0.00669   0.00000   0.04338   0.03538   2.09365
   A13        2.08890   0.00033   0.00000  -0.00493  -0.01365   2.07525
   A14        1.87839   0.00748   0.00000   0.10043   0.09683   1.97522
   A15        1.87715   0.00749   0.00000   0.09858   0.09676   1.97392
   A16        2.12936  -0.00912   0.00000  -0.06635  -0.07649   2.05288
    D1        2.52808   0.00408   0.00000   0.02494   0.02568   2.55376
    D2        1.39184  -0.00591   0.00000  -0.02524  -0.02690   1.36494
    D3       -0.98109  -0.00119   0.00000  -0.02802  -0.02759  -1.00867
    D4        0.42642   0.00533   0.00000   0.03328   0.03416   0.46057
    D5       -0.70983  -0.00466   0.00000  -0.01691  -0.01842  -0.72824
    D6       -3.08275   0.00006   0.00000  -0.01969  -0.01911  -3.10186
    D7       -1.68036   0.00556   0.00000   0.03575   0.03682  -1.64354
    D8       -2.81660  -0.00444   0.00000  -0.01443  -0.01575  -2.83235
    D9        1.09366   0.00029   0.00000  -0.01722  -0.01644   1.07722
   D10        2.88825  -0.01258   0.00000  -0.15340  -0.15389   2.73436
   D11       -0.13223   0.00715   0.00000   0.10436   0.10282  -0.02940
   D12        0.09970  -0.00490   0.00000  -0.08248  -0.08165   0.01805
   D13       -2.92077   0.01482   0.00000   0.17527   0.17506  -2.74571
         Item               Value     Threshold  Converged?
 Maximum Force            0.017781     0.000450     NO 
 RMS     Force            0.009124     0.000300     NO 
 Maximum Displacement     0.156779     0.001800     NO 
 RMS     Displacement     0.058677     0.001200     NO 
 Predicted change in Energy=-1.005877D-02
 Lowest energy point so far.  Saving SCF results.
 GradGradGradGradGradGradGradGradGradGradGradGradGradGradGradGradGradGrad

 Leave Link  103 at Thu Apr  7 11:47:41 2022, MaxMem=  1073741824 cpu:               0.1 elap:               0.0
 (Enter /home/saurabh/gaussian/g16/l202.exe)
                          Input orientation:                          
 ---------------------------------------------------------------------
 Center     Atomic      Atomic             Coordinates (Angstroms)
 Number     Number       Type             X           Y           Z
 ---------------------------------------------------------------------
      1          6           0       -3.427045    1.162779    0.140209
      2          6           0       -2.146587    1.392437   -0.610214
      3          6           0       -0.967552    0.550052   -0.389163
      4          1           0       -3.935068    2.110226    0.327642
      5          1           0       -3.225971    0.684962    1.098007
      6          1           0       -4.103184    0.526701   -0.435336
      7          8           0       -1.051335    1.861808    0.177351
      8          1           0       -2.229874    1.900746   -1.566686
      9          1           0       -0.210649    0.466006   -1.159561
     10          1           0       -1.018394   -0.237630    0.353214
 ---------------------------------------------------------------------
                    Distance matrix (angstroms):
                    1          2          3          4          5
     1  C    0.000000
     2  C    1.501816   0.000000
     3  C    2.589359   1.465811   0.000000
     4  H    1.091272   2.143236   3.428427   0.000000
     5  H    1.089090   2.140936   2.707459   1.768519   0.000000
     6  H    1.092251   2.146708   3.136059   1.765772   1.773609
     7  O    2.476696   1.428336   1.431315   2.898313   2.638488
     8  H    2.211629   1.086349   2.191892   2.557351   3.093691
     9  H    3.538376   2.215381   1.083272   4.334343   3.773158
    10  H    2.794301   2.204117   1.083582   3.744339   2.505851
                    6          7          8          9         10
     6  H    0.000000
     7  O    3.386987   0.000000
     8  H    2.584036   2.105263   0.000000
     9  H    3.959800   2.107689   2.510279   0.000000
    10  H    3.274438   2.107048   3.118709   1.853657   0.000000
 Stoichiometry    C3H6O
 Framework group  C1[X(C3H6O)]
 Deg. of freedom    24
 Full point group                 C1      NOp   1
 RotChk:  IX=0 Diff= 2.46D-01
 Largest Abelian subgroup         C1      NOp   1
 Largest concise Abelian subgroup C1      NOp   1
                         Standard orientation:                         
 ---------------------------------------------------------------------
 Center     Atomic      Atomic             Coordinates (Angstroms)
 Number     Number       Type             X           Y           Z
 ---------------------------------------------------------------------
      1          6           0       -1.498002    0.102630   -0.148463
      2          6           0       -0.150002   -0.041096    0.497826
      3          6           0        1.037389    0.619594   -0.051896
      4          1           0       -2.075934   -0.816038   -0.034816
      5          1           0       -1.389521    0.311402   -1.211836
      6          1           0       -2.063243    0.914933    0.313790
      7          8           0        0.813819   -0.779574   -0.254400
      8          1           0       -0.143573   -0.289456    1.555384
      9          1           0        1.886046    0.827353    0.588491
     10          1           0        0.939360    1.201624   -0.960622
 ---------------------------------------------------------------------
 Rotational constants (GHZ):          18.2212635           6.7217245           6.0131360
 Leave Link  202 at Thu Apr  7 11:47:41 2022, MaxMem=  1073741824 cpu:               0.1 elap:               0.0
 (Enter /home/saurabh/gaussian/g16/l301.exe)
 Standard basis: CC-pVTZ (5D, 7F)
 Ernie: Thresh=  0.10000D-02 Tol=  0.10000D-05 Strict=F.
 Ernie:  12 primitive shells out of 152 were deleted.
 There are   230 symmetry adapted cartesian basis functions of A   symmetry.
 There are   204 symmetry adapted basis functions of A   symmetry.
   204 basis functions,   310 primitive gaussians,   230 cartesian basis functions
    16 alpha electrons       16 beta electrons
       nuclear repulsion energy       125.0854279622 Hartrees.
 IExCor=  402 DFT=T Ex+Corr=B3LYP ExCW=0 ScaHFX=  0.200000
 ScaDFX=  0.800000  0.720000  1.000000  0.810000 ScalE2=  1.000000  1.000000
 IRadAn=      5 IRanWt=     -1 IRanGd=            0 ICorTp=0 IEmpDi=  4
 NAtoms=   10 NActive=   10 NUniq=   10 SFac= 1.00D+00 NAtFMM=   60 NAOKFM=F Big=F
 Integral buffers will be    131072 words long.
 Raffenetti 2 integral format.
 Two-electron integral symmetry is turned on.
 Leave Link  301 at Thu Apr  7 11:47:41 2022, MaxMem=  1073741824 cpu:               0.3 elap:               0.1
 (Enter /home/saurabh/gaussian/g16/l302.exe)
 NPDir=0 NMtPBC=     1 NCelOv=     1 NCel=       1 NClECP=     1 NCelD=      1
         NCelK=      1 NCelE2=     1 NClLst=     1 CellRange=     0.0.
 One-electron integrals computed using PRISM.
 One-electron integral symmetry used in STVInt
 NBasis=   204 RedAO= T EigKep=  4.40D-04  NBF=   204
 NBsUse=   204 1.00D-06 EigRej= -1.00D+00 NBFU=   204
 Precomputing XC quadrature grid using
 IXCGrd= 4 IRadAn=           5 IRanWt=          -1 IRanGd=           0 AccXCQ= 0.00D+00.
 Generated NRdTot=       0 NPtTot=           0 NUsed=           0 NTot=          32
 NSgBfM=   230   230   230   230   230 MxSgAt=    10 MxSgA2=    10.
 Leave Link  302 at Thu Apr  7 11:47:42 2022, MaxMem=  1073741824 cpu:               1.3 elap:               0.2
 (Enter /home/saurabh/gaussian/g16/l303.exe)
 DipDrv:  MaxL=1.
 Leave Link  303 at Thu Apr  7 11:47:42 2022, MaxMem=  1073741824 cpu:               0.2 elap:               0.0
 (Enter /home/saurabh/gaussian/g16/l401.exe)
 Initial guess from the checkpoint file:  "Mol_04.chk"
 B after Tr=     0.000000    0.000000   -0.000000
         Rot=    0.996329    0.085342    0.006019   -0.003119 Ang=   9.82 deg.
 Guess basis will be translated and rotated to current coordinates.
 JPrj=2 DoOrth=T DoCkMO=T.
 Generating alternative initial guess.
 ExpMin= 1.03D-01 ExpMax= 1.53D+04 ExpMxC= 5.22D+02 IAcc=3 IRadAn=         5 AccDes= 0.00D+00
 Harris functional with IExCor=  402 and IRadAn=       5 diagonalized for initial guess.
 HarFok:  IExCor=  402 AccDes= 0.00D+00 IRadAn=         5 IDoV= 1 UseB2=F ITyADJ=14
 ICtDFT=  3500011 ScaDFX=  1.000000  1.000000  1.000000  1.000000
 FoFCou: FMM=F IPFlag=           0 FMFlag=      100000 FMFlg1=           0
         NFxFlg=           0 DoJE=T BraDBF=F KetDBF=T FulRan=T
         wScrn=  0.000000 ICntrl=       500 IOpCl=  0 I1Cent=   200000004 NGrid=           0
         NMat0=    1 NMatS0=      1 NMatT0=    0 NMatD0=    1 NMtDS0=    0 NMtDT0=    0
 Petite list used in FoFCou.
 Harris En= -193.211692800863    
 Leave Link  401 at Thu Apr  7 11:47:42 2022, MaxMem=  1073741824 cpu:               4.4 elap:               0.6
 (Enter /home/saurabh/gaussian/g16/l502.exe)
 Keep R1 ints in memory in canonical form, NReq=227100997.
 FoFCou: FMM=F IPFlag=           0 FMFlag=           0 FMFlg1=           0
         NFxFlg=           0 DoJE=F BraDBF=F KetDBF=F FulRan=T
         wScrn=  0.000000 ICntrl=       600 IOpCl=  0 I1Cent=           0 NGrid=           0
         NMat0=    1 NMatS0=  20910 NMatT0=    0 NMatD0=    1 NMtDS0=    0 NMtDT0=    0
 Symmetry not used in FoFCou.
 Two-electron integral symmetry not used.
 Closed shell SCF:
 Using DIIS extrapolation, IDIIS=  1040.
 NGot=  1073741824 LenX=   855007313 LenY=   854953972
 Requested convergence on RMS density matrix=1.00D-08 within1000 cycles.
 Requested convergence on MAX density matrix=1.00D-06.
 Requested convergence on             energy=1.00D-06.
 No special actions if energy rises.
 Integral accuracy reduced to 1.0D-05 until final iterations.

 Cycle   1  Pass 0  IDiag  1:
 E= -193.180211178053    
 DIIS: error= 3.31D-03 at cycle   1 NSaved=   1.
 NSaved= 1 IEnMin= 1 EnMin= -193.180211178053     IErMin= 1 ErrMin= 3.31D-03
 ErrMax= 3.31D-03  0.00D+00 EMaxC= 1.00D-01 BMatC= 4.34D-03 BMatP= 4.34D-03
 IDIUse=3 WtCom= 9.67D-01 WtEn= 3.31D-02
 Coeff-Com:  0.100D+01
 Coeff-En:   0.100D+01
 Coeff:      0.100D+01
 Gap=     0.856 Goal=   None    Shift=    0.000
 GapD=    0.856 DampG=2.000 DampE=1.000 DampFc=2.0000 IDamp=-1.
 RMSDP=3.78D-04 MaxDP=9.65D-03              OVMax= 1.75D-02

 Cycle   2  Pass 0  IDiag  1:
 E= -193.184119921852     Delta-E=       -0.003908743799 Rises=F Damp=F
 DIIS: error= 8.25D-04 at cycle   2 NSaved=   2.
 NSaved= 2 IEnMin= 2 EnMin= -193.184119921852     IErMin= 2 ErrMin= 8.25D-04
 ErrMax= 8.25D-04  0.00D+00 EMaxC= 1.00D-01 BMatC= 2.19D-04 BMatP= 4.34D-03
 IDIUse=3 WtCom= 9.92D-01 WtEn= 8.25D-03
 Coeff-Com:  0.484D-01 0.952D+00
 Coeff-En:   0.000D+00 0.100D+01
 Coeff:      0.480D-01 0.952D+00
 Gap=     0.318 Goal=   None    Shift=    0.000
 RMSDP=8.97D-05 MaxDP=2.59D-03 DE=-3.91D-03 OVMax= 6.41D-03

 Cycle   3  Pass 0  IDiag  1:
 E= -193.183991727718     Delta-E=        0.000128194134 Rises=F Damp=F
 DIIS: error= 1.12D-03 at cycle   3 NSaved=   3.
 NSaved= 3 IEnMin= 2 EnMin= -193.184119921852     IErMin= 2 ErrMin= 8.25D-04
 ErrMax= 1.12D-03  0.00D+00 EMaxC= 1.00D-01 BMatC= 4.26D-04 BMatP= 2.19D-04
 IDIUse=3 WtCom= 2.30D-01 WtEn= 7.70D-01
 Coeff-Com: -0.157D-01 0.593D+00 0.422D+00
 Coeff-En:   0.000D+00 0.608D+00 0.392D+00
 Coeff:     -0.361D-02 0.604D+00 0.399D+00
 Gap=     0.315 Goal=   None    Shift=    0.000
 RMSDP=5.03D-05 MaxDP=1.38D-03 DE= 1.28D-04 OVMax= 4.13D-03

 Cycle   4  Pass 0  IDiag  1:
 E= -193.184324699325     Delta-E=       -0.000332971607 Rises=F Damp=F
 DIIS: error= 1.53D-04 at cycle   4 NSaved=   4.
 NSaved= 4 IEnMin= 4 EnMin= -193.184324699325     IErMin= 4 ErrMin= 1.53D-04
 ErrMax= 1.53D-04  0.00D+00 EMaxC= 1.00D-01 BMatC= 1.15D-05 BMatP= 2.19D-04
 IDIUse=3 WtCom= 9.98D-01 WtEn= 1.53D-03
 Coeff-Com: -0.108D-01 0.275D+00 0.209D+00 0.527D+00
 Coeff-En:   0.000D+00 0.000D+00 0.000D+00 0.100D+01
 Coeff:     -0.108D-01 0.274D+00 0.209D+00 0.528D+00
 Gap=     0.316 Goal=   None    Shift=    0.000
 RMSDP=1.42D-05 MaxDP=3.14D-04 DE=-3.33D-04 OVMax= 8.33D-04

 Cycle   5  Pass 0  IDiag  1:
 E= -193.184333212696     Delta-E=       -0.000008513371 Rises=F Damp=F
 DIIS: error= 4.22D-05 at cycle   5 NSaved=   5.
 NSaved= 5 IEnMin= 5 EnMin= -193.184333212696     IErMin= 5 ErrMin= 4.22D-05
 ErrMax= 4.22D-05  0.00D+00 EMaxC= 1.00D-01 BMatC= 7.42D-07 BMatP= 1.15D-05
 IDIUse=1 WtCom= 1.00D+00 WtEn= 0.00D+00
 Coeff-Com: -0.236D-02 0.221D-01 0.206D-01 0.211D+00 0.748D+00
 Coeff:     -0.236D-02 0.221D-01 0.206D-01 0.211D+00 0.748D+00
 Gap=     0.315 Goal=   None    Shift=    0.000
 RMSDP=3.04D-06 MaxDP=6.30D-05 DE=-8.51D-06 OVMax= 1.82D-04

 Initial convergence to 1.0D-05 achieved.  Increase integral accuracy.
 Cycle   6  Pass 1  IDiag  1:
 E= -193.184327748566     Delta-E=        0.000005464130 Rises=F Damp=F
 DIIS: error= 7.12D-06 at cycle   1 NSaved=   1.
 NSaved= 1 IEnMin= 1 EnMin= -193.184327748566     IErMin= 1 ErrMin= 7.12D-06
 ErrMax= 7.12D-06  0.00D+00 EMaxC= 1.00D-01 BMatC= 2.01D-08 BMatP= 2.01D-08
 IDIUse=1 WtCom= 1.00D+00 WtEn= 0.00D+00
 Coeff-Com:  0.100D+01
 Coeff:      0.100D+01
 Gap=     0.315 Goal=   None    Shift=    0.000
 RMSDP=3.04D-06 MaxDP=6.30D-05 DE= 5.46D-06 OVMax= 9.01D-05

 Cycle   7  Pass 1  IDiag  1:
 E= -193.184327742194     Delta-E=        0.000000006372 Rises=F Damp=F
 DIIS: error= 8.25D-06 at cycle   2 NSaved=   2.
 NSaved= 2 IEnMin= 1 EnMin= -193.184327748566     IErMin= 1 ErrMin= 7.12D-06
 ErrMax= 8.25D-06  0.00D+00 EMaxC= 1.00D-01 BMatC= 2.91D-08 BMatP= 2.01D-08
 IDIUse=1 WtCom= 1.00D+00 WtEn= 0.00D+00
 Coeff-Com:  0.550D+00 0.450D+00
 Coeff:      0.550D+00 0.450D+00
 Gap=     0.315 Goal=   None    Shift=    0.000
 RMSDP=5.38D-07 MaxDP=1.41D-05 DE= 6.37D-09 OVMax= 5.10D-05

 Cycle   8  Pass 1  IDiag  1:
 E= -193.184327765437     Delta-E=       -0.000000023242 Rises=F Damp=F
 DIIS: error= 2.09D-06 at cycle   3 NSaved=   3.
 NSaved= 3 IEnMin= 3 EnMin= -193.184327765437     IErMin= 3 ErrMin= 2.09D-06
 ErrMax= 2.09D-06  0.00D+00 EMaxC= 1.00D-01 BMatC= 1.56D-09 BMatP= 2.01D-08
 IDIUse=1 WtCom= 1.00D+00 WtEn= 0.00D+00
 Coeff-Com:  0.205D+00 0.234D+00 0.561D+00
 Coeff:      0.205D+00 0.234D+00 0.561D+00
[...]
 (Enter /home/saurabh/gaussian/g16/l103.exe)

 GradGradGradGradGradGradGradGradGradGradGradGradGradGradGradGradGradGrad
 Berny optimization.
 Red2BG is reusing G-inverse.
 Internal  Forces:  Max     0.000201155 RMS     0.000058843
 Search for a local minimum.
 Step number   1 out of a maximum of    2
 All quantities printed in internal units (Hartrees-Bohrs-Radians)
 Second derivative matrix not updated -- analytic derivatives used.
 ITU=  0
     Eigenvalues ---    0.00181   0.02357   0.02821   0.04318   0.04442
     Eigenvalues ---    0.04840   0.08744   0.09540   0.10902   0.12351
     Eigenvalues ---    0.12570   0.13989   0.15358   0.22101   0.25066
     Eigenvalues ---    0.26216   0.30818   0.32974   0.33258   0.33490
     Eigenvalues ---    0.34087   0.34246   0.34665   0.35527
 Angle between quadratic step and forces=  32.44 degrees.
 Linear search not attempted -- first point.
 Iteration  1 RMS(Cart)=  0.00057248 RMS(Int)=  0.00000050
 Iteration  2 RMS(Cart)=  0.00000049 RMS(Int)=  0.00000021
 ITry= 1 IFail=0 DXMaxC= 1.68D-03 DCOld= 1.00D+10 DXMaxT= 3.00D-01 DXLimC= 3.00D+00 Rises=F
 Variable       Old X    -DE/DX   Delta X   Delta X   Delta X     New X
                                 (Linear)    (Quad)   (Total)
    R1        2.83842   0.00005   0.00000   0.00011   0.00011   2.83853
    R2        2.06211   0.00003   0.00000   0.00007   0.00007   2.06218
    R3        2.05928   0.00004   0.00000   0.00012   0.00012   2.05940
    R4        2.06349   0.00002   0.00000   0.00005   0.00005   2.06354
    R5        2.76713  -0.00010   0.00000  -0.00025  -0.00025   2.76687
    R6        2.70733  -0.00006   0.00000  -0.00010  -0.00010   2.70722
    R7        2.05496   0.00003   0.00000   0.00010   0.00010   2.05506
    R8        2.70443   0.00002   0.00000   0.00005   0.00005   2.70448
    R9        2.05063   0.00007   0.00000   0.00012   0.00012   2.05075
   R10        2.05143   0.00006   0.00000   0.00013   0.00013   2.05156
    A1        1.93136  -0.00001   0.00000  -0.00009  -0.00009   1.93127
    A2        1.93162   0.00003   0.00000   0.00027   0.00027   1.93189
    A3        1.92979  -0.00003   0.00000  -0.00027  -0.00027   1.92952
    A4        1.88967  -0.00001   0.00000  -0.00001  -0.00001   1.88966
    A5        1.88357   0.00001   0.00000   0.00001   0.00001   1.88357
    A6        1.89649   0.00001   0.00000   0.00009   0.00009   1.89658
    A7        2.13668   0.00002   0.00000   0.00055   0.00055   2.13723
    A8        2.03745   0.00003   0.00000   0.00033   0.00033   2.03778
    A9        2.01547   0.00001   0.00000  -0.00015  -0.00015   2.01532
   A10        2.04339  -0.00003   0.00000  -0.00017  -0.00017   2.04322
   A11        1.97699  -0.00006   0.00000  -0.00070  -0.00070   1.97629
   A12        2.09708  -0.00010   0.00000  -0.00096  -0.00096   2.09612
   A13        2.08227  -0.00017   0.00000  -0.00139  -0.00139   2.08088
   A14        2.01253  -0.00003   0.00000   0.00004   0.00004   2.01258
   A15        2.01014   0.00001   0.00000   0.00005   0.00005   2.01020
   A16        2.01192   0.00020   0.00000   0.00166   0.00165   2.01357
    D1        2.54267   0.00003   0.00000   0.00032   0.00032   2.54299
    D2        1.33941  -0.00004   0.00000  -0.00013  -0.00013   1.33928
    D3       -1.04991   0.00002   0.00000   0.00082   0.00082  -1.04909
    D4        0.44784   0.00003   0.00000   0.00020   0.00020   0.44805
    D5       -0.75542  -0.00004   0.00000  -0.00024  -0.00024  -0.75566
    D6        3.13845   0.00002   0.00000   0.00071   0.00071   3.13916
    D7       -1.65451   0.00002   0.00000   0.00009   0.00009  -1.65441
    D8       -2.85777  -0.00005   0.00000  -0.00035  -0.00035  -2.85812
    D9        1.03610   0.00001   0.00000   0.00060   0.00060   1.03669
   D10        2.66519  -0.00005   0.00000  -0.00073  -0.00073   2.66447
   D11       -0.00806   0.00005   0.00000   0.00051   0.00051  -0.00756
   D12       -0.01868  -0.00005   0.00000  -0.00125  -0.00125  -0.01993
   D13       -2.69194   0.00005   0.00000  -0.00001  -0.00001  -2.69195
         Item               Value     Threshold  Converged?
 Maximum Force            0.000201     0.000450     YES
 RMS     Force            0.000059     0.000300     YES
 Maximum Displacement     0.001683     0.001800     YES
 RMS     Displacement     0.000573     0.001200     YES
 Predicted change in Energy=-5.162296D-07
 Optimization completed.
    -- Stationary point found.
                           ----------------------------
                           !   Optimized Parameters   !
                           ! (Angstroms and Degrees)  !
 --------------------------                            --------------------------
 ! Name  Definition              Value          Derivative Info.                !
 --------------------------------------------------------------------------------
 ! R1    R(1,2)                  1.502          -DE/DX =    0.0                 !
 ! R2    R(1,4)                  1.0912         -DE/DX =    0.0                 !
 ! R3    R(1,5)                  1.0897         -DE/DX =    0.0                 !
 ! R4    R(1,6)                  1.092          -DE/DX =    0.0                 !
 ! R5    R(2,3)                  1.4643         -DE/DX =   -0.0001              !
 ! R6    R(2,7)                  1.4327         -DE/DX =   -0.0001              !
 ! R7    R(2,8)                  1.0874         -DE/DX =    0.0                 !
 ! R8    R(3,7)                  1.4311         -DE/DX =    0.0                 !
 ! R9    R(3,9)                  1.0851         -DE/DX =    0.0001              !
 ! R10   R(3,10)                 1.0856         -DE/DX =    0.0001              !
 ! A1    A(2,1,4)              110.6586         -DE/DX =    0.0                 !
 ! A2    A(2,1,5)              110.6736         -DE/DX =    0.0                 !
 ! A3    A(2,1,6)              110.5688         -DE/DX =    0.0                 !
 ! A4    A(4,1,5)              108.2702         -DE/DX =    0.0                 !
 ! A5    A(4,1,6)              107.9204         -DE/DX =    0.0                 !
 ! A6    A(5,1,6)              108.661          -DE/DX =    0.0                 !
 ! A7    A(1,2,3)              122.4226         -DE/DX =    0.0                 !
 ! A8    A(1,2,7)              116.7374         -DE/DX =    0.0                 !
 ! A9    A(1,2,8)              115.4782         -DE/DX =    0.0                 !
 ! A10   A(3,2,8)              117.0776         -DE/DX =    0.0                 !
 ! A11   A(7,2,8)              113.2734         -DE/DX =   -0.0001              !
 ! A12   A(2,3,9)              120.1541         -DE/DX =   -0.0001              !
 ! A13   A(2,3,10)             119.3054         -DE/DX =   -0.0002              !
 ! A14   A(7,3,9)              115.3097         -DE/DX =    0.0                 !
 ! A15   A(7,3,10)             115.1728         -DE/DX =    0.0                 !
 ! A16   A(9,3,10)             115.2745         -DE/DX =    0.0002              !
 ! D1    D(4,1,2,3)            145.6843         -DE/DX =    0.0                 !
 ! D2    D(4,1,2,7)             76.7423         -DE/DX =    0.0                 !
 ! D3    D(4,1,2,8)            -60.1553         -DE/DX =    0.0                 !
 ! D4    D(5,1,2,3)             25.6595         -DE/DX =    0.0                 !
 ! D5    D(5,1,2,7)            -43.2825         -DE/DX =    0.0                 !
 ! D6    D(5,1,2,8)            179.8199         -DE/DX =    0.0                 !
 ! D7    D(6,1,2,3)            -94.7963         -DE/DX =    0.0                 !
 ! D8    D(6,1,2,7)           -163.7383         -DE/DX =    0.0                 !
 ! D9    D(6,1,2,8)             59.3641         -DE/DX =    0.0                 !
 ! D10   D(1,2,3,9)            152.7043         -DE/DX =   -0.0001              !
 ! D11   D(1,2,3,10)            -0.462          -DE/DX =    0.0001              !
 ! D12   D(8,2,3,9)             -1.0703         -DE/DX =   -0.0001              !
 ! D13   D(8,2,3,10)          -154.2367         -DE/DX =    0.0001              !
 --------------------------------------------------------------------------------
 GradGradGradGradGradGradGradGradGradGradGradGradGradGradGradGradGradGrad

 Leave Link  103 at Thu Apr  7 11:49:42 2022, MaxMem=  1073741824 cpu:               0.1 elap:               0.0
 (Enter /home/saurabh/gaussian/g16/l9999.exe)

 ----------------------------------------------------------------------

 Electric dipole moment (input orientation):
 (Debye = 10**-18 statcoulomb cm , SI units = C m)
                  (au)            (Debye)         (10**-30 SI)
   Tot        0.764011D+00      0.194192D+01      0.647756D+01
   x         -0.399898D+00     -0.101644D+01     -0.339047D+01
   y         -0.533023D+00     -0.135481D+01     -0.451916D+01
   z         -0.373740D+00     -0.949953D+00     -0.316870D+01

 Dipole polarizability, Alpha (input orientation).
 (esu units = cm**3 , SI units = C**2 m**2 J**-1)
 Alpha(0;0):
               (au)            (10**-24 esu)      (10**-40 SI)
   iso        0.383517D+02      0.568314D+01      0.632334D+01
   aniso      0.109328D+02      0.162007D+01      0.180257D+01
   xx         0.439882D+02      0.651837D+01      0.725267D+01
   yx        -0.370037D+01     -0.548338D+00     -0.610109D+00
   yy         0.360096D+02      0.533607D+01      0.593718D+01
   zx        -0.116063D+01     -0.171987D+00     -0.191362D+00
   zy        -0.865132D+00     -0.128199D+00     -0.142641D+00
   zz         0.350574D+02      0.519497D+01      0.578018D+01

 ----------------------------------------------------------------------

 Dipole orientation:
     6         -5.97039058         -2.88707688          1.72903027
     6         -3.36225400         -3.55318774          0.82871212
     6         -1.36226654         -1.66189235          0.54578390
     1         -7.38360269         -4.06994638          0.80386247
     1         -6.40299205         -0.91766606          1.31079090
     1         -6.13140705         -3.18040649          3.76520567
     8         -2.64986484         -2.64441038         -1.62001248
     1         -2.77449180         -5.49103089          1.17823067
     1          0.60605960         -2.21030779          0.71907050
     1         -1.76667445          0.30062445          0.98549472

 Electric dipole moment (dipole orientation):
 (Debye = 10**-18 statcoulomb cm , SI units = C m)
                  (au)            (Debye)         (10**-30 SI)
   Tot        0.764011D+00      0.194192D+01      0.647756D+01
   x          0.000000D+00      0.000000D+00      0.000000D+00
   y          0.000000D+00      0.000000D+00      0.000000D+00
   z          0.764011D+00      0.194192D+01      0.647756D+01

 Dipole polarizability, Alpha (dipole orientation).
 (esu units = cm**3 , SI units = C**2 m**2 J**-1)
 Alpha(0;0):
               (au)            (10**-24 esu)      (10**-40 SI)
   iso        0.383517D+02      0.568314D+01      0.632334D+01
   aniso      0.109328D+02      0.162007D+01      0.180257D+01
   xx         0.433120D+02      0.641817D+01      0.714118D+01
   yx         0.353081D+01      0.523212D+00      0.582151D+00
   yy         0.376630D+02      0.558108D+01      0.620979D+01
   zx        -0.229428D+01     -0.339977D+00     -0.378276D+00
   zy        -0.670549D+00     -0.993651D-01     -0.110559D+00
   zz         0.340802D+02      0.505017D+01      0.561907D+01

 ----------------------------------------------------------------------
 Unable to Open any file for archive entry.
 1\1\GINC-MEDIAWIKI\Freq\RB3LYP\CC-pVTZ\C3H6O1\SAURABH\07-Apr-2022\0\\#
 P Geom=AllCheck Guess=TCheck SCRF=Check GenChk RB3LYP/CC-pVTZ Freq\\Mo
 l_04\\0,1\C,-3.4316988427,1.1648213796,0.1402286638\C,-2.1425085178,1.
 3960501159,-0.5950360332\C,-0.9550818348,0.5672687925,-0.3775118407\H,
 -3.9391952848,2.11112209,0.3344531995\H,-3.247106751,0.6738275487,1.09
 54003639\H,-4.10327476,0.5384733675,-0.4505584989\O,-1.0387065437,1.88
 39257466,0.1770411055\H,-2.2369678592,1.8810358665,-1.5637405955\H,-0.
 224272626,0.4432339952,-1.1700267928\H,-0.9968456475,-0.2416723972,0.3
 452133878\\Version=ES64L-G16RevC.01\State=1-A\HF=-193.1848094\RMSD=1.7
 62e-09\RMSF=7.417e-05\ZeroPoint=0.0851334\Thermal=0.089556\ETot=-193.0
 952534\HTot=-193.0943092\GTot=-193.1260582\Dipole=-0.3998976,-0.533023
 ,-0.3737403\DipoleDeriv=-0.0378844,-0.0339888,0.0491014,0.0026171,0.10
 09555,0.0426153,0.0805661,0.0572671,0.0327241,0.5285226,0.0393701,0.00
 3993,0.1193545,0.237011,0.004625,0.0108476,-0.0422978,0.3564354,0.1389
 836,0.0522819,-0.0536433,-0.0367495,0.3593018,0.0066319,-0.0817315,0.0
 486631,0.2972211,-0.0206141,0.0576093,0.0229647,0.0972625,-0.0868037,-
 0.0362225,0.0569972,-0.0204639,0.0621767,0.0301747,0.0315475,-0.053541
 9,0.0072107,0.0277365,0.0753212,0.0076261,0.0747087,-0.0718376,-0.0420
 525,-0.053518,-0.040068,-0.0908681,0.0073088,-0.0625129,-0.0623808,-0.
 0752678,-0.002665,-0.5584212,-0.160071,-0.0851617,-0.1817093,-0.610641
 3,-0.1992681,-0.1145648,-0.194347,-0.4849144,-0.0434354,-0.0013024,0.0
 03033,0.0189133,0.0273252,0.1056271,-0.0220548,0.0750221,-0.1225276,-0
 .0461415,0.0650585,0.1063296,0.0297048,0.0154805,0.0056547,0.1063758,-
 0.0303324,-0.040625,0.0508682,0.003013,0.0469934,0.0342639,-0.0776744,
 0.0575285,0.018319,0.1070481,-0.0259876\Polar=43.9881596,-3.7003713,36
 .0096184,-1.1606287,-0.8651316,35.0573871\Quadrupole=0.0745138,-0.3090
 508,0.234537,-1.6820829,-0.762486,-0.8364795\PG=C01 [X(C3H6O1)]\NImag=
 0\\0.50401537,-0.01357981,0.55449576,0.03697896,-0.00193974,0.55392834
 ,-0.16661809,-0.00825349,0.06925879,0.58815202,-0.01318634,-0.07997267
 ,0.01650436,-0.07529973,0.35127471,0.06137719,0.01696235,-0.12540753,0
 .01123768,-0.15538383,0.54745014,-0.01686501,0.02208744,0.00262878,-0.
 19876786,0.10242142,-0.02535404,0.47176548,-0.00449956,0.00398712,-0.0
 0135273,0.14972815,-0.09488674,0.06266279,-0.13821731,0.52604743,0.004
 72506,-0.01936622,-0.00410812,-0.00521289,0.04133463,-0.04496474,-0.15
 163790,-0.12173440,0.50866527,-0.09937363,0.10270943,0.02000087,-0.017
 54850,0.02754243,0.00445543,-0.00290511,-0.00053711,0.00545276,0.10979
 436,0.10354879,-0.24545199,-0.03809985,-0.00315060,0.00654720,0.000767
 53,-0.00229507,0.00073352,0.00031102,-0.11397060,0.26488926,0.02054231
 ,-0.03780759,-0.05549515,0.00922266,-0.01645965,-0.00321299,0.00050963
 ,0.00105491,-0.00222607,-0.02532472,0.04256295,0.05600882,-0.05607122,
 0.02275765,-0.04363138,0.00358395,-0.01401008,0.02846844,0.00172387,-0
 .00008021,0.00148730,-0.00308624,0.00536503,-0.01287959,0.05938531,0.0
 2175469,-0.10049502,0.10426070,0.00034676,-0.00353195,0.00466905,0.000
 27780,0.00135542,-0.00064147,0.00458180,-0.01212341,0.02508716,-0.0241
 6774,0.10500379,-0.03991552,0.10419592,-0.24756899,-0.00358865,0.00764
 266,-0.01803228,-0.00115087,0.00021279,0.00007469,0.00090000,-0.002685
 33,0.00632587,0.04270546,-0.11550134,0.26974344,-0.14196602,-0.0908614
 9,-0.08446949,-0.01530288,-0.01529982,-0.01913229,0.00069699,-0.000528
 51,-0.00160918,0.01014287,0.00807064,0.00860108,-0.00353934,-0.0023280
 7,-0.00225833,0.15589507,-0.09123457,-0.13159745,-0.08060133,-0.001750
 81,-0.00342563,-0.00283170,-0.00070482,0.00024418,0.00032872,-0.017956
 15,-0.01610762,-0.01544093,0.01023491,0.00949529,0.00734748,0.10117644
 ,0.14012849,-0.08531500,-0.08071352,-0.12509234,0.00863736,0.00989363,
 0.01031119,-0.00118774,-0.00018268,0.00054903,-0.00284953,-0.00247908,
 -0.00361032,-0.01621909,-0.01718263,-0.01380315,0.09356635,0.08998543,
 0.13176383,-0.02818056,-0.02557550,-0.02447027,-0.13470215,-0.03608909
 ,-0.05408253,-0.02698256,-0.02194661,0.00749731,0.00305468,0.00232060,
 -0.00081465,0.00283394,0.00047476,-0.00038074,-0.00658601,0.00036908,0
 .00451499,0.19237379,-0.00444435,-0.00153094,-0.00364948,-0.07195626,-
 0.05710851,-0.03551188,0.01647764,-0.19634252,-0.05349720,-0.00135800,
 0.00077746,0.00151023,0.00022440,-0.00052193,-0.00058585,-0.00079194,0
 .00097488,0.00112812,0.05216812,0.28196542,0.00207582,0.00904853,0.013
 07831,-0.07495724,-0.01854071,-0.11282939,0.02561566,-0.07080096,-0.08
 222830,-0.00159319,0.00035573,0.00136779,-0.00187584,-0.00061220,0.002
 63449,0.00427416,0.00075080,0.00009999,0.07223020,0.11261678,0.1840080
 6,0.00412224,-0.01219411,0.02497360,-0.04953340,0.00556505,-0.00747098
 ,-0.00494524,0.00525332,-0.01686616,0.00084138,0.00061587,-0.00061107,
 -0.00483550,-0.00080477,0.00303969,0.00092017,0.00005289,-0.00114550,-
 0.01051619,0.00983095,-0.02155445,0.06439471,0.00211551,-0.00018696,0.
 00349248,0.01051013,-0.10499838,0.11581857,-0.00160450,-0.01202565,0.0
 2244605,-0.00071960,0.00040223,-0.00005353,-0.00087094,0.00089198,0.00
 017600,0.00008521,0.00005015,-0.00018275,-0.00347773,0.01256797,-0.022
 78269,-0.00840010,0.10181357,-0.00101274,0.00778927,-0.01021672,-0.007
 07991,0.11245159,-0.25443026,-0.00128856,-0.00586821,0.00395744,-0.000
 21284,-0.00055140,0.00017135,0.00243187,0.00017745,0.00003805,0.000852
 87,0.00042241,-0.00004141,-0.01418798,0.00481530,-0.01595197,0.0197273
 9,-0.11916881,0.27550824,-0.00046363,0.00416441,0.00006237,-0.01256267
 ,-0.00213941,0.02131038,-0.17406003,0.01635910,0.13979495,-0.00136134,
 -0.00025023,0.00051732,0.00013638,0.00006425,-0.00013660,-0.00001110,-
 0.00016538,-0.00003714,0.00867900,0.00516059,-0.00903495,0.00092522,-0
 .00079228,-0.00081469,0.17759554,-0.00040890,0.00043501,0.00050680,0.0
 0186531,-0.00725628,-0.00468981,0.01022794,-0.04814511,-0.00563619,-0.
 00024041,0.00025277,-0.00022512,0.00012798,-0.00002418,-0.00039045,0.0
 0019142,0.00013002,-0.00002089,0.02506483,-0.01097098,-0.02259535,0.00
 074118,0.00073677,0.00004643,-0.02315732,0.05923773,-0.00040797,0.0028
 3277,0.00019277,-0.01054614,-0.00242215,0.01063173,0.13755203,-0.00565
 452,-0.19553905,-0.00097061,-0.00005524,0.00054642,-0.00013646,0.00001
 073,0.00017011,0.00015835,-0.00001953,-0.00012537,0.01054581,-0.010238
 52,-0.00821890,0.00047109,-0.00111658,-0.00024506,-0.15031324,0.018059
 23,0.20353047,0.00140055,-0.00125454,-0.00133223,0.00329959,0.02049557
 ,-0.02080927,-0.04966054,-0.00553126,0.01636874,0.00044153,-0.00025442
 ,0.00023702,-0.00013115,-0.00019948,0.00078554,-0.00024975,-0.00002159
 ,0.00003531,0.00002606,-0.00531115,0.00481983,-0.00137339,0.00315430,0
 .00158459,0.00112261,-0.01441202,0.01364713,0.04512450,-0.00006546,0.0
 0031714,0.00087880,-0.00203945,-0.00664175,-0.00246307,-0.00867054,-0.
 18096764,0.13645507,-0.00005178,0.00008060,-0.00022842,0.00041900,-0.0
 0004999,-0.00041188,0.00028612,0.00010770,-0.00024562,0.00669155,-0.02
 981084,0.01256008,-0.00066028,0.00074833,-0.00011404,0.00075626,0.0056
 0424,-0.00139617,0.00333459,0.21061222,0.00095188,-0.00100176,0.000689
 41,0.00302834,0.00497947,-0.00951586,0.01431302,0.14166302,-0.18418015
 ,0.00014184,-0.00012632,0.00012428,-0.00035073,-0.00026744,0.00041777,
 0.00001647,0.00005866,-0.00005145,-0.00085213,-0.01658749,0.01803992,-
 0.00056362,0.00137127,0.00121034,-0.00134841,0.01494536,-0.01094310,-0
 .01533665,-0.14503475,0.18420884\\0.00002680,-0.00000700,-0.00000281,-
 0.00009980,0.00020825,-0.00009868,-0.00015165,-0.00002807,-0.00003727,
 0.00001154,-0.00002505,-0.00000080,0.00000615,0.00001118,-0.00003987,0
 .00000032,0.00000692,0.00002508,0.00004438,-0.00006645,0.00007198,-0.0
 0004095,-0.00004969,0.00000804,0.00003364,-0.00007252,0.00013368,0.000
 16957,0.00002243,-0.00005935\\\@
 The archive entry for this job was punched.


 AND HERE I AM, FOR ALL MY LORE,
 THE WRETCHED FOOL I WAS BEFORE.
 CALLED MASTER OF ARTS, AND DOCTOR TO BOOT,
 FOR TEN YEARS ALMOST I CONFUTE
 AND UP AND DOWN, WHEREVER IT GOES
 I DRAG MY STUDENTS BY THE NOSE --
 AND SEE THAT FOR ALL OUR SCIENCE AND ART
 WE CAN KNOW NOTHING.  IT BURNS MY HEART.

                                       -- FAUST
 Job cpu time:       0 days  0 hours 10 minutes 14.9 seconds.
 Elapsed time:       0 days  0 hours  1 minutes 17.7 seconds.
 File lengths (MBytes):  RWF=     38 Int=      0 D2E=      0 Chk=      5 Scr=      1
 Normal termination of Gaussian 16 at Thu Apr  7 11:49:42 2022.
