 Entering Gaussian System, Link 0=g16
 Input=Mol_02.com
 Output=Mol_02.log
 Initial command:
 /home/saurabh/gaussian/g16/l1.exe "/home/saurabh/gaussian/gauss_scr/Gau-21792.inp" -scrdir="/home/saurabh/gaussian/gauss_scr/"
 Entering Link 1 = /home/saurabh/gaussian/g16/l1.exe PID=     21793.
  
 Copyright (c) 1988-2019, Gaussian, Inc.  All Rights Reserved.
  
 This is part of the Gaussian(R) 16 program.  It is based on
 the Gaussian(R) 09 system (copyright 2009, Gaussian, Inc.),
 the Gaussian(R) 03 system (copyright 2003, Gaussian, Inc.),
 the Gaussian(R) 98 system (copyright 1998, Gaussian, Inc.),
 the Gaussian(R) 94 system (copyright 1995, Gaussian, Inc.),
 the Gaussian 92(TM) system (copyright 1992, Gaussian, Inc.),
 the Gaussian 90(TM) system (copyright 1990, Gaussian, Inc.),
 the Gaussian 88(TM) system (copyright 1988, Gaussian, Inc.),
 the Gaussian 86(TM) system (copyright 1986, Carnegie Mellon
 University), and the Gaussian 82(TM) system (copyright 1983,
 Carnegie Mellon University). Gaussian is a federally registered
 trademark of Gaussian, Inc.
  
 This software contains proprietary and confidential information,
 including trade secrets, belonging to Gaussian, Inc.
  
 This software is provided under written license and may be
 used, copied, transmitted, or stored only in accord with that
 written license.
  
 The following legend is applicable only to US Government
 contracts under FAR:
  
                    RESTRICTED RIGHTS LEGEND
  
 Use, reproduction and disclosure by the US Government is
 subject to restrictions as set forth in subparagraphs (a)
 and (c) of the Commercial Computer Software - Restricted
 Rights clause in FAR 52.227-19.
  
 Gaussian, Inc.
 340 Quinnipiac St., Bldg. 40, Wallingford CT 06492
  
  
 ---------------------------------------------------------------
 Warning -- This program may not be used in any manner that
 competes with the business of Gaussian, Inc. or will provide
 assistance to any competitor of Gaussian, Inc.  The licensee
 of this program is prohibited from giving any competitor of
 Gaussian, Inc. access to this program.  By using this program,
 the user acknowledges that Gaussian, Inc. is engaged in the
 business of creating and licensing software in the field of
 computational chemistry and represents and warrants to the
 licensee that it is not a competitor of Gaussian, Inc. and that
 it will not use this program in any manner prohibited above.
 ---------------------------------------------------------------
  

 Cite this work as:
 Gaussian 16, Revision C.01,
 M. J. Frisch, G. W. Trucks, H. B. Schlegel, G. E. Scuseria, 
 M. A. Robb, J. R. Cheeseman, G. Scalmani, V. Barone, 
 G. A. Petersson, H. Nakatsuji, X. Li, M. Caricato, A. V. Marenich, 
 J. Bloino, B. G. Janesko, R. Gomperts, B. Mennucci, H. P. Hratchian, 
 J. V. Ortiz, A. F. Izmaylov, J. L. Sonnenberg, D. Williams-Young, 
 F. Ding, F. Lipparini, F. Egidi, J. Goings, B. Peng, A. Petrone, 
 T. Henderson, D. Ranasinghe, V. G. Zakrzewski, J. Gao, N. Rega, 
 G. Zheng, W. Liang, M. Hada, M. Ehara, K. Toyota, R. Fukuda, 
 J. Hasegawa, M. Ishida, T. Nakajima, Y. Honda, O. Kitao, H. Nakai, 
 T. Vreven, K. Throssell, J. A. Montgomery, Jr., J. E. Peralta, 
 F. Ogliaro, M. J. Bearpark, J. J. Heyd, E. N. Brothers, K. N. Kudin, 
 V. N. Staroverov, T. A. Keith, R. Kobayashi, J. Normand, 
 K. Raghavachari, A. P. Rendell, J. C. Burant, S. S. Iyengar, 
 J. Tomasi, M. Cossi, J. M. Millam, M. Klene, C. Adamo, R. Cammi, 
 J. W. Ochterski, R. L. Martin, K. Morokuma, O. Farkas, 
 J. B. Foresman, and D. J. Fox, Gaussian, Inc., Wallingford CT, 2019.
 
 ******************************************
 Gaussian 16:  ES64L-G16RevC.01  3-Jul-2019
                 7-Apr-2022 
 ******************************************
 %mem=8gb
 %nproc=8
 Will use up to    8 processors via shared memory.
 %chk=Mol_02.chk
 ----------------------------------------------------------------------
 #p B3LYP/cc-PVTZ scf(verytight, maxcycles=1000) opt(calcfc, maxcyc=100
 0) freq(hpmodes) int(grid=ultrafine)
 ----------------------------------------------------------------------
 1/6=1000,10=4,18=20,19=15,26=4,38=1/1,3;
 2/9=110,12=2,17=6,18=5,40=1/2;
 3/5=16,6=1,11=2,25=1,30=1,71=2,74=-5,75=-5,140=1/1,2,3;
 4//1;
 5/5=2,7=1000,17=3,38=5/2;
 8/6=4,10=90,11=11/1;
 11/6=1,8=1,9=11,15=111,16=1/1,2,10;
 10/6=1,13=1/2;
 6/7=2,8=2,9=2,10=2,28=1/1;
 7/10=1,25=1/1,2,3,16;
 1/6=1000,10=4,18=20,19=15,26=4/3(2);
 2/9=110/2;
 99//99;
 2/9=110/2;
 3/5=16,6=1,11=2,25=1,30=1,71=1,74=-5,75=-5/1,2,3;
 4/5=5,16=3,69=1/1;
 5/5=2,7=1000,17=3,38=5/2;
 7//1,2,3,16;
 1/6=1000,18=20,19=15,26=4/3(-5);
 2/9=110/2;
 6/7=2,8=2,9=2,10=2,19=2,28=1/1;
 99/9=1/99;
 Leave Link    1 at Thu Apr  7 11:22:06 2022, MaxMem=  1073741824 cpu:               0.3 elap:               0.0
 (Enter /home/saurabh/gaussian/g16/l101.exe)
 ------
 Mol_02
 ------
 Symbolic Z-matrix:
 Charge =  0 Multiplicity = 2
 C                    -3.38281   1.14733   0.08769 
 C                    -2.04571   1.88708   0.09964 
 C                    -0.88447   0.89605  -0.02778 
 H                    -4.21702   1.8763    0.16876 
 H                    -3.44442   0.43976   0.9424 
 H                    -3.50253   0.58016  -0.86023 
 H                    -0.88235   0.18769   0.82831 
 H                     0.0826    1.44159  -0.04058 
 H                    -0.97207   0.32014  -0.97376 
 O                    -1.93972   2.60496   1.30609 
 O                    -1.08116   3.58426   1.08911 
 H                    -2.04878   2.57634  -0.77864 
 
 ITRead=  0  0  0  0  0  0  0  0  0  0  0  0
 MicOpt= -1 -1 -1 -1 -1 -1 -1 -1 -1 -1 -1 -1
 NAtoms=     12 NQM=       12 NQMF=       0 NMMI=      0 NMMIF=      0
                NMic=       0 NMicF=      0.
                    Isotopes and Nuclear Properties:
 (Nuclear quadrupole moments (NQMom) in fm**2, nuclear magnetic moments (NMagM)
  in nuclear magnetons)

  Atom         1           2           3           4           5           6           7           8           9          10
 IAtWgt=          12          12          12           1           1           1           1           1           1          16
 AtmWgt=  12.0000000  12.0000000  12.0000000   1.0078250   1.0078250   1.0078250   1.0078250   1.0078250   1.0078250  15.9949146
 NucSpn=           0           0           0           1           1           1           1           1           1           0
 AtZEff=  -0.0000000  -0.0000000  -0.0000000  -0.0000000  -0.0000000  -0.0000000  -0.0000000  -0.0000000  -0.0000000  -0.0000000
 NQMom=    0.0000000   0.0000000   0.0000000   0.0000000   0.0000000   0.0000000   0.0000000   0.0000000   0.0000000   0.0000000
 NMagM=    0.0000000   0.0000000   0.0000000   2.7928460   2.7928460   2.7928460   2.7928460   2.7928460   2.7928460   0.0000000
 AtZNuc=   6.0000000   6.0000000   6.0000000   1.0000000   1.0000000   1.0000000   1.0000000   1.0000000   1.0000000   8.0000000

  Atom        11          12
 IAtWgt=          16           1
 AtmWgt=  15.9949146   1.0078250
 NucSpn=           0           1
 AtZEff=  -0.0000000  -0.0000000
 NQMom=    0.0000000   0.0000000
 NMagM=    0.0000000   2.7928460
 AtZNuc=   8.0000000   1.0000000
 Leave Link  101 at Thu Apr  7 11:22:06 2022, MaxMem=  1073741824 cpu:               1.4 elap:               0.2
 (Enter /home/saurabh/gaussian/g16/l103.exe)

 GradGradGradGradGradGradGradGradGradGradGradGradGradGradGradGradGradGrad
 Berny optimization.
 Initialization pass.
                           ----------------------------
                           !    Initial Parameters    !
                           ! (Angstroms and Degrees)  !
 --------------------------                            --------------------------
 ! Name  Definition              Value          Derivative Info.                !
 --------------------------------------------------------------------------------
 ! R1    R(1,2)                  1.5281         calculate D2E/DX2 analytically  !
 ! R2    R(1,4)                  1.1108         calculate D2E/DX2 analytically  !
 ! R3    R(1,5)                  1.1113         calculate D2E/DX2 analytically  !
 ! R4    R(1,6)                  1.1111         calculate D2E/DX2 analytically  !
 ! R5    R(2,3)                  1.5319         calculate D2E/DX2 analytically  !
 ! R6    R(2,10)                 1.4079         calculate D2E/DX2 analytically  !
 ! R7    R(2,12)                 1.1165         calculate D2E/DX2 analytically  !
 ! R8    R(3,7)                  1.1112         calculate D2E/DX2 analytically  !
 ! R9    R(3,8)                  1.1104         calculate D2E/DX2 analytically  !
 ! R10   R(3,9)                  1.111          calculate D2E/DX2 analytically  !
 ! R11   R(10,11)                1.3203         calculate D2E/DX2 analytically  !
 ! A1    A(2,1,4)              109.8069         calculate D2E/DX2 analytically  !
 ! A2    A(2,1,5)              110.5312         calculate D2E/DX2 analytically  !
 ! A3    A(2,1,6)              110.368          calculate D2E/DX2 analytically  !
 ! A4    A(4,1,5)              108.6676         calculate D2E/DX2 analytically  !
 ! A5    A(4,1,6)              108.4415         calculate D2E/DX2 analytically  !
 ! A6    A(5,1,6)              108.976          calculate D2E/DX2 analytically  !
 ! A7    A(1,2,3)              110.4531         calculate D2E/DX2 analytically  !
 ! A8    A(1,2,10)             108.6276         calculate D2E/DX2 analytically  !
 ! A9    A(1,2,12)             106.8763         calculate D2E/DX2 analytically  !
 ! A10   A(3,2,10)             110.1248         calculate D2E/DX2 analytically  !
 ! A11   A(3,2,12)             109.635          calculate D2E/DX2 analytically  !
 ! A12   A(10,2,12)            111.0717         calculate D2E/DX2 analytically  !
 ! A13   A(2,3,7)              110.4734         calculate D2E/DX2 analytically  !
 ! A14   A(2,3,8)              110.0779         calculate D2E/DX2 analytically  !
 ! A15   A(2,3,9)              110.2675         calculate D2E/DX2 analytically  !
 ! A16   A(7,3,8)              108.6888         calculate D2E/DX2 analytically  !
 ! A17   A(7,3,9)              109.009          calculate D2E/DX2 analytically  !
 ! A18   A(8,3,9)              108.2723         calculate D2E/DX2 analytically  !
 ! A19   A(2,10,11)            106.6381         calculate D2E/DX2 analytically  !
 ! D1    D(4,1,2,3)           -179.3502         calculate D2E/DX2 analytically  !
 ! D2    D(4,1,2,10)            59.7707         calculate D2E/DX2 analytically  !
 ! D3    D(4,1,2,12)           -60.1463         calculate D2E/DX2 analytically  !
 ! D4    D(5,1,2,3)             60.7714         calculate D2E/DX2 analytically  !
 ! D5    D(5,1,2,10)           -60.1076         calculate D2E/DX2 analytically  !
 ! D6    D(5,1,2,12)           179.9754         calculate D2E/DX2 analytically  !
 ! D7    D(6,1,2,3)            -59.8541         calculate D2E/DX2 analytically  !
 ! D8    D(6,1,2,10)           179.2668         calculate D2E/DX2 analytically  !
 ! D9    D(6,1,2,12)            59.3498         calculate D2E/DX2 analytically  !
 ! D10   D(1,2,3,7)            -61.1804         calculate D2E/DX2 analytically  !
 ! D11   D(1,2,3,8)            178.7779         calculate D2E/DX2 analytically  !
 ! D12   D(1,2,3,9)             59.3831         calculate D2E/DX2 analytically  !
 ! D13   D(10,2,3,7)            58.8022         calculate D2E/DX2 analytically  !
 ! D14   D(10,2,3,8)           -61.2395         calculate D2E/DX2 analytically  !
 ! D15   D(10,2,3,9)           179.3657         calculate D2E/DX2 analytically  !
 ! D16   D(12,2,3,7)          -178.6984         calculate D2E/DX2 analytically  !
 ! D17   D(12,2,3,8)            61.2599         calculate D2E/DX2 analytically  !
 ! D18   D(12,2,3,9)           -58.1349         calculate D2E/DX2 analytically  !
 ! D19   D(1,2,10,11)         -156.9234         calculate D2E/DX2 analytically  !
 ! D20   D(3,2,10,11)           81.9954         calculate D2E/DX2 analytically  !
 ! D21   D(12,2,10,11)         -39.6535         calculate D2E/DX2 analytically  !
 --------------------------------------------------------------------------------
 Trust Radius=3.00D-01 FncErr=1.00D-07 GrdErr=1.00D-06 EigMax=2.50D+02 EigMin=1.00D-04
 Number of steps in this run=    100 maximum allowed number of steps=    100.
 GradGradGradGradGradGradGradGradGradGradGradGradGradGradGradGradGradGrad

 Leave Link  103 at Thu Apr  7 11:22:06 2022, MaxMem=  1073741824 cpu:               0.1 elap:               0.0
 (Enter /home/saurabh/gaussian/g16/l202.exe)
                          Input orientation:                          
 ---------------------------------------------------------------------
 Center     Atomic      Atomic             Coordinates (Angstroms)
 Number     Number       Type             X           Y           Z
 ---------------------------------------------------------------------
      1          6           0       -3.382810    1.147327    0.087694
      2          6           0       -2.045713    1.887082    0.099644
      3          6           0       -0.884470    0.896050   -0.027776
      4          1           0       -4.217023    1.876305    0.168764
      5          1           0       -3.444420    0.439762    0.942397
      6          1           0       -3.502526    0.580160   -0.860232
      7          1           0       -0.882346    0.187688    0.828311
      8          1           0        0.082595    1.441595   -0.040585
      9          1           0       -0.972069    0.320143   -0.973761
     10          8           0       -1.939716    2.604960    1.306095
     11          8           0       -1.081156    3.584258    1.089105
     12          1           0       -2.048777    2.576343   -0.778644
 ---------------------------------------------------------------------
                    Distance matrix (angstroms):
                    1          2          3          4          5
     1  C    0.000000
     2  C    1.528139   0.000000
     3  C    2.513599   1.531949   0.000000
     4  H    1.110807   2.172436   3.479287   0.000000
     5  H    1.111288   2.182052   2.775388   1.805292   0.000000
     6  H    1.111114   2.179842   2.765319   1.802590   1.809022
     7  H    2.778802   2.184563   1.111154   3.795589   2.576971
     8  H    3.480242   2.178949   1.110404   4.326605   3.796019
     9  H    2.760904   2.181790   1.110959   3.775808   3.130254
    10  O    2.385732   1.407874   2.411043   2.647751   2.661671
    11  O    3.498439   2.188564   2.917632   3.687519   3.936292
    12  H    2.138288   1.116458   2.177797   2.467575   3.078113
                    6          7          8          9         10
     6  H    0.000000
     7  H    3.141744   0.000000
     8  H    3.777167   1.805096   0.000000
     9  H    2.546313   1.809159   1.800219   0.000000
    10  O    3.351890   2.681326   2.693827   3.369639   0.000000
    11  O    4.322911   3.412364   2.687289   3.862870   1.320317
    12  H    2.470788   3.106209   2.524902   2.507550   2.087785
                   11         12
    11  O    0.000000
    12  H    2.332524   0.000000
 Stoichiometry    C3H7O2(2)
 Framework group  C1[X(C3H7O2)]
 Deg. of freedom    30
 Full point group                 C1      NOp   1
 Largest Abelian subgroup         C1      NOp   1
 Largest concise Abelian subgroup C1      NOp   1
                         Standard orientation:                         
 ---------------------------------------------------------------------
 Center     Atomic      Atomic             Coordinates (Angstroms)
 Number     Number       Type             X           Y           Z
 ---------------------------------------------------------------------
      1          6           0        1.522893   -0.870770   -0.011198
      2          6           0        0.288595   -0.017245   -0.299665
      3          6           0        0.542168    1.441185    0.094733
      4          1           0        1.331592   -1.922892   -0.311756
      5          1           0        1.766975   -0.849258    1.072740
      6          1           0        2.396258   -0.494346   -0.585754
      7          1           0        0.755157    1.518219    1.182559
      8          1           0       -0.350276    2.059640   -0.137764
      9          1           0        1.405864    1.848746   -0.472853
     10          8           0       -0.797193   -0.535084    0.431782
     11          8           0       -1.893705   -0.139632   -0.188311
     12          1           0        0.099676   -0.081410   -1.398151
 ---------------------------------------------------------------------
 Rotational constants (GHZ):           7.9586968           4.1221372           3.0406323
 Leave Link  202 at Thu Apr  7 11:22:06 2022, MaxMem=  1073741824 cpu:               0.1 elap:               0.0
 (Enter /home/saurabh/gaussian/g16/l301.exe)
 Standard basis: CC-pVTZ (5D, 7F)
 Ernie: Thresh=  0.10000D-02 Tol=  0.10000D-05 Strict=F.
 Ernie:  15 primitive shells out of 186 were deleted.
 There are   280 symmetry adapted cartesian basis functions of A   symmetry.
 There are   248 symmetry adapted basis functions of A   symmetry.
   248 basis functions,   379 primitive gaussians,   280 cartesian basis functions
    21 alpha electrons       20 beta electrons
       nuclear repulsion energy       187.2095964704 Hartrees.
 IExCor=  402 DFT=T Ex+Corr=B3LYP ExCW=0 ScaHFX=  0.200000
 ScaDFX=  0.800000  0.720000  1.000000  0.810000 ScalE2=  1.000000  1.000000
 IRadAn=      5 IRanWt=     -1 IRanGd=            0 ICorTp=0 IEmpDi=  4
 NAtoms=   12 NActive=   12 NUniq=   12 SFac= 1.00D+00 NAtFMM=   60 NAOKFM=F Big=F
 Integral buffers will be    131072 words long.
 Raffenetti 2 integral format.
 Two-electron integral symmetry is turned on.
 Leave Link  301 at Thu Apr  7 11:22:06 2022, MaxMem=  1073741824 cpu:               0.4 elap:               0.1
 (Enter /home/saurabh/gaussian/g16/l302.exe)
 NPDir=0 NMtPBC=     1 NCelOv=     1 NCel=       1 NClECP=     1 NCelD=      1
         NCelK=      1 NCelE2=     1 NClLst=     1 CellRange=     0.0.
 One-electron integrals computed using PRISM.
 One-electron integral symmetry used in STVInt
 NBasis=   248 RedAO= T EigKep=  8.37D-04  NBF=   248
 NBsUse=   248 1.00D-06 EigRej= -1.00D+00 NBFU=   248
 Precomputing XC quadrature grid using
 IXCGrd= 4 IRadAn=           5 IRanWt=          -1 IRanGd=           0 AccXCQ= 0.00D+00.
 Generated NRdTot=       0 NPtTot=           0 NUsed=           0 NTot=          32
 NSgBfM=   280   280   280   280   280 MxSgAt=    12 MxSgA2=    12.
 Leave Link  302 at Thu Apr  7 11:22:06 2022, MaxMem=  1073741824 cpu:               1.5 elap:               0.2
 (Enter /home/saurabh/gaussian/g16/l303.exe)
 DipDrv:  MaxL=1.
 Leave Link  303 at Thu Apr  7 11:22:06 2022, MaxMem=  1073741824 cpu:               0.2 elap:               0.0
 (Enter /home/saurabh/gaussian/g16/l401.exe)
 ExpMin= 1.03D-01 ExpMax= 1.53D+04 ExpMxC= 5.22D+02 IAcc=3 IRadAn=         5 AccDes= 0.00D+00
 Harris functional with IExCor=  402 and IRadAn=       5 diagonalized for initial guess.
 HarFok:  IExCor=  402 AccDes= 0.00D+00 IRadAn=         5 IDoV= 1 UseB2=F ITyADJ=14
 ICtDFT=  3500011 ScaDFX=  1.000000  1.000000  1.000000  1.000000
 FoFCou: FMM=F IPFlag=           0 FMFlag=      100000 FMFlg1=           0
         NFxFlg=           0 DoJE=T BraDBF=F KetDBF=T FulRan=T
         wScrn=  0.000000 ICntrl=       500 IOpCl=  0 I1Cent=   200000004 NGrid=           0
         NMat0=    1 NMatS0=      1 NMatT0=    0 NMatD0=    1 NMtDS0=    0 NMtDT0=    0
 Petite list used in FoFCou.
 Harris En= -268.968634670849    
 JPrj=0 DoOrth=F DoCkMO=F.
 Initial guess <Sx>= 0.0000 <Sy>= 0.0000 <Sz>= 0.5000 <S**2>= 0.7500 S= 0.5000
 Leave Link  401 at Thu Apr  7 11:22:07 2022, MaxMem=  1073741824 cpu:               5.0 elap:               0.6
 (Enter /home/saurabh/gaussian/g16/l502.exe)
 Keep R1 and R2 ints in memory in canonical form, NReq=964453764.
 FoFCou: FMM=F IPFlag=           0 FMFlag=           0 FMFlg1=           0
         NFxFlg=           0 DoJE=F BraDBF=F KetDBF=F FulRan=T
         wScrn=  0.000000 ICntrl=       600 IOpCl=  0 I1Cent=           0 NGrid=           0
         NMat0=    1 NMatS0=  30876 NMatT0=    0 NMatD0=    1 NMtDS0=    0 NMtDT0=    0
 Symmetry not used in FoFCou.
 Two-electron integral symmetry not used.
 UHF open shell SCF:
 Using DIIS extrapolation, IDIIS=  1040.
 NGot=  1073741824 LenX=   120221698 LenY=   120142857
 Requested convergence on RMS density matrix=1.00D-08 within1000 cycles.
 Requested convergence on MAX density matrix=1.00D-06.
 Requested convergence on             energy=1.00D-06.
 No special actions if energy rises.
 Integral accuracy reduced to 1.0D-05 until final iterations.

 Cycle   1  Pass 0  IDiag  1:
 E= -268.790521882547    
 DIIS: error= 3.09D-02 at cycle   1 NSaved=   1.
 NSaved= 1 IEnMin= 1 EnMin= -268.790521882547     IErMin= 1 ErrMin= 3.09D-02
 ErrMax= 3.09D-02  0.00D+00 EMaxC= 1.00D-01 BMatC= 7.32D-01 BMatP= 7.32D-01
 IDIUse=3 WtCom= 6.91D-01 WtEn= 3.09D-01
 Coeff-Com:  0.100D+01
 Coeff-En:   0.100D+01
 Coeff:      0.100D+01
 Gap=     0.329 Goal=   None    Shift=    0.000
 Gap=     0.113 Goal=   None    Shift=    0.000
 GapD=    0.113 DampG=1.000 DampE=0.500 DampFc=0.5000 IDamp=-1.
 Damping current iteration by 5.00D-01
 RMSDP=2.19D-03 MaxDP=5.99D-02              OVMax= 1.75D-01

 Cycle   2  Pass 0  IDiag  1:
 E= -268.852835750845     Delta-E=       -0.062313868298 Rises=F Damp=T
 DIIS: error= 6.55D-03 at cycle   2 NSaved=   2.
 NSaved= 2 IEnMin= 2 EnMin= -268.852835750845     IErMin= 2 ErrMin= 6.55D-03
 ErrMax= 6.55D-03  0.00D+00 EMaxC= 1.00D-01 BMatC= 9.03D-02 BMatP= 7.32D-01
 IDIUse=3 WtCom= 9.35D-01 WtEn= 6.55D-02
 Coeff-Com:  0.146D+00 0.854D+00
 Coeff-En:   0.224D+00 0.776D+00
 Coeff:      0.151D+00 0.849D+00
 Gap=     0.322 Goal=   None    Shift=    0.000
 Gap=     0.155 Goal=   None    Shift=    0.000
 RMSDP=5.31D-04 MaxDP=2.02D-02 DE=-6.23D-02 OVMax= 1.27D-01

 Cycle   3  Pass 0  IDiag  1:
 E= -268.937016429168     Delta-E=       -0.084180678323 Rises=F Damp=F
 DIIS: error= 8.33D-03 at cycle   3 NSaved=   3.
 NSaved= 3 IEnMin= 3 EnMin= -268.937016429168     IErMin= 2 ErrMin= 6.55D-03
 ErrMax= 8.33D-03  0.00D+00 EMaxC= 1.00D-01 BMatC= 9.67D-02 BMatP= 9.03D-02
 IDIUse=3 WtCom= 9.17D-01 WtEn= 8.33D-02
 Coeff-Com:  0.222D-01 0.504D+00 0.474D+00
 Coeff-En:   0.000D+00 0.000D+00 0.100D+01
 Coeff:      0.203D-01 0.462D+00 0.517D+00
 Gap=     0.313 Goal=   None    Shift=    0.000
 Gap=     0.143 Goal=   None    Shift=    0.000
 RMSDP=4.55D-04 MaxDP=2.25D-02 DE=-8.42D-02 OVMax= 8.14D-02

 Cycle   4  Pass 0  IDiag  1:
 E= -268.946566505481     Delta-E=       -0.009550076313 Rises=F Damp=F
 DIIS: error= 5.13D-03 at cycle   4 NSaved=   4.
 NSaved= 4 IEnMin= 4 EnMin= -268.946566505481     IErMin= 4 ErrMin= 5.13D-03
 ErrMax= 5.13D-03  0.00D+00 EMaxC= 1.00D-01 BMatC= 3.92D-02 BMatP= 9.03D-02
 IDIUse=3 WtCom= 9.49D-01 WtEn= 5.13D-02
 Coeff-Com: -0.513D-02 0.996D-01 0.391D+00 0.515D+00
 Coeff-En:   0.000D+00 0.000D+00 0.340D+00 0.660D+00
 Coeff:     -0.486D-02 0.945D-01 0.388D+00 0.522D+00
 Gap=     0.317 Goal=   None    Shift=    0.000
 Gap=     0.152 Goal=   None    Shift=    0.000
 RMSDP=2.17D-04 MaxDP=7.14D-03 DE=-9.55D-03 OVMax= 2.63D-02

 Cycle   5  Pass 0  IDiag  1:
 E= -268.953314605215     Delta-E=       -0.006748099734 Rises=F Damp=F
 DIIS: error= 6.03D-04 at cycle   5 NSaved=   5.
 NSaved= 5 IEnMin= 5 EnMin= -268.953314605215     IErMin= 5 ErrMin= 6.03D-04
 ErrMax= 6.03D-04  0.00D+00 EMaxC= 1.00D-01 BMatC= 7.45D-04 BMatP= 3.92D-02
 IDIUse=3 WtCom= 9.94D-01 WtEn= 6.03D-03
 Coeff-Com: -0.280D-02-0.111D-02 0.143D+00 0.224D+00 0.637D+00
 Coeff-En:   0.000D+00 0.000D+00 0.000D+00 0.000D+00 0.100D+01
 Coeff:     -0.278D-02-0.110D-02 0.143D+00 0.222D+00 0.639D+00
 Gap=     0.310 Goal=   None    Shift=    0.000
 Gap=     0.153 Goal=   None    Shift=    0.000
 RMSDP=4.65D-05 MaxDP=1.71D-03 DE=-6.75D-03 OVMax= 8.76D-03

 Cycle   6  Pass 0  IDiag  1:
 E= -268.953459621023     Delta-E=       -0.000145015808 Rises=F Damp=F
 DIIS: error= 3.50D-04 at cycle   6 NSaved=   6.
 NSaved= 6 IEnMin= 6 EnMin= -268.953459621023     IErMin= 6 ErrMin= 3.50D-04
 ErrMax= 3.50D-04  0.00D+00 EMaxC= 1.00D-01 BMatC= 1.54D-04 BMatP= 7.45D-04
 IDIUse=3 WtCom= 9.97D-01 WtEn= 3.50D-03
 Coeff-Com:  0.735D-03-0.153D-01 0.148D-01 0.163D-01 0.294D+00 0.690D+00
 Coeff-En:   0.000D+00 0.000D+00 0.000D+00 0.000D+00 0.000D+00 0.100D+01
 Coeff:      0.733D-03-0.153D-01 0.147D-01 0.163D-01 0.293D+00 0.691D+00
 Gap=     0.311 Goal=   None    Shift=    0.000
 Gap=     0.154 Goal=   None    Shift=    0.000
 RMSDP=1.94D-05 MaxDP=9.81D-04 DE=-1.45D-04 OVMax= 1.95D-03

 Cycle   7  Pass 0  IDiag  1:
 E= -268.953492915736     Delta-E=       -0.000033294713 Rises=F Damp=F
 DIIS: error= 1.43D-04 at cycle   7 NSaved=   7.
 NSaved= 7 IEnMin= 7 EnMin= -268.953492915736     IErMin= 7 ErrMin= 1.43D-04
 ErrMax= 1.43D-04  0.00D+00 EMaxC= 1.00D-01 BMatC= 1.81D-05 BMatP= 1.54D-04
 IDIUse=3 WtCom= 9.99D-01 WtEn= 1.43D-03
 Coeff-Com:  0.111D-02-0.217D-02-0.167D-01-0.435D-01-0.645D-01 0.630D-01
 Coeff-Com:  0.106D+01
 Coeff-En:   0.000D+00 0.000D+00 0.000D+00 0.000D+00 0.000D+00 0.000D+00
 Coeff-En:   0.100D+01
 Coeff:      0.111D-02-0.216D-02-0.167D-01-0.435D-01-0.644D-01 0.629D-01
 Coeff:      0.106D+01
 Gap=     0.311 Goal=   None    Shift=    0.000
 Gap=     0.154 Goal=   None    Shift=    0.000
 RMSDP=1.08D-05 MaxDP=4.18D-04 DE=-3.33D-05 OVMax= 2.16D-03

 Cycle   8  Pass 0  IDiag  1:
 E= -268.953498846843     Delta-E=       -0.000005931107 Rises=F Damp=F
 DIIS: error= 5.05D-05 at cycle   8 NSaved=   8.
 NSaved= 8 IEnMin= 8 EnMin= -268.953498846843     IErMin= 8 ErrMin= 5.05D-05
 ErrMax= 5.05D-05  0.00D+00 EMaxC= 1.00D-01 BMatC= 3.47D-06 BMatP= 1.81D-05
 IDIUse=1 WtCom= 1.00D+00 WtEn= 0.00D+00
 Coeff-Com:  0.505D-03 0.475D-03-0.713D-02-0.215D-01-0.537D-01-0.540D-01
 Coeff-Com:  0.433D+00 0.702D+00
 Coeff:      0.505D-03 0.475D-03-0.713D-02-0.215D-01-0.537D-01-0.540D-01
 Coeff:      0.433D+00 0.702D+00
 Gap=     0.311 Goal=   None    Shift=    0.000
 Gap=     0.154 Goal=   None    Shift=    0.000
 RMSDP=3.63D-06 MaxDP=1.26D-04 DE=-5.93D-06 OVMax= 5.27D-04

 Initial convergence to 1.0D-05 achieved.  Increase integral accuracy.
 Cycle   9  Pass 1  IDiag  1:
 E= -268.953499073220     Delta-E=       -0.000000226377 Rises=F Damp=F
 DIIS: error= 2.04D-05 at cycle   1 NSaved=   1.
 NSaved= 1 IEnMin= 1 EnMin= -268.953499073220     IErMin= 1 ErrMin= 2.04D-05
 ErrMax= 2.04D-05  0.00D+00 EMaxC= 1.00D-01 BMatC= 4.15D-07 BMatP= 4.15D-07
 IDIUse=1 WtCom= 1.00D+00 WtEn= 0.00D+00
 Coeff-Com:  0.100D+01
 Coeff:      0.100D+01
 Gap=     0.311 Goal=   None    Shift=    0.000
 Gap=     0.154 Goal=   None    Shift=    0.000
 RMSDP=3.63D-06 MaxDP=1.26D-04 DE=-2.26D-07 OVMax= 1.51D-04

 Cycle  10  Pass 1  IDiag  1:
 E= -268.953499028436     Delta-E=        0.000000044784 Rises=F Damp=F
 DIIS: error= 2.62D-05 at cycle   2 NSaved=   2.
 NSaved= 2 IEnMin= 1 EnMin= -268.953499073220     IErMin= 1 ErrMin= 2.04D-05
 ErrMax= 2.62D-05  0.00D+00 EMaxC= 1.00D-01 BMatC= 9.34D-07 BMatP= 4.15D-07
 IDIUse=1 WtCom= 1.00D+00 WtEn= 0.00D+00
 Coeff-Com:  0.611D+00 0.389D+00
 Coeff:      0.611D+00 0.389D+00
 Gap=     0.311 Goal=   None    Shift=    0.000
 Gap=     0.154 Goal=   None    Shift=    0.000
 RMSDP=1.22D-06 MaxDP=5.42D-05 DE= 4.48D-08 OVMax= 2.24D-04

 Cycle  11  Pass 1  IDiag  1:
 E= -268.953499183337     Delta-E=       -0.000000154901 Rises=F Damp=F
 DIIS: error= 9.99D-06 at cycle   3 NSaved=   3.
 NSaved= 3 IEnMin= 3 EnMin= -268.953499183337     IErMin= 3 ErrMin= 9.99D-06
 ErrMax= 9.99D-06  0.00D+00 EMaxC= 1.00D-01 BMatC= 1.24D-07 BMatP= 4.15D-07
 IDIUse=1 WtCom= 1.00D+00 WtEn= 0.00D+00
 Coeff-Com:  0.237D+00 0.277D+00 0.485D+00
 Coeff:      0.237D+00 0.277D+00 0.485D+00
 Gap=     0.311 Goal=   None    Shift=    0.000
 Gap=     0.154 Goal=   None    Shift=    0.000
 RMSDP=4.28D-07 MaxDP=1.71D-05 DE=-1.55D-07 OVMax= 3.82D-05

 Cycle  12  Pass 1  IDiag  1:
 E= -268.953499205530     Delta-E=       -0.000000022193 Rises=F Damp=F
 DIIS: error= 3.51D-06 at cycle   4 NSaved=   4.
 NSaved= 4 IEnMin= 4 EnMin= -268.953499205530     IErMin= 4 ErrMin= 3.51D-06
 ErrMax= 3.51D-06  0.00D+00 EMaxC= 1.00D-01 BMatC= 1.27D-08 BMatP= 1.24D-07
 IDIUse=1 WtCom= 1.00D+00 WtEn= 0.00D+00
 Coeff-Com: -0.257D+00-0.365D-01 0.116D+00 0.118D+01
 Coeff:     -0.257D+00-0.365D-01 0.116D+00 0.118D+01
 Gap=     0.311 Goal=   None    Shift=    0.000
 Gap=     0.154 Goal=   None    Shift=    0.000
 RMSDP=4.33D-07 MaxDP=1.99D-05 DE=-2.22D-08 OVMax= 7.83D-05

 Cycle  13  Pass 1  IDiag  1:
 E= -268.953499213213     Delta-E=       -0.000000007683 Rises=F Damp=F
 DIIS: error= 1.13D-06 at cycle   5 NSaved=   5.
 NSaved= 5 IEnMin= 5 EnMin= -268.953499213213     IErMin= 5 ErrMin= 1.13D-06
 ErrMax= 1.13D-06  0.00D+00 EMaxC= 1.00D-01 BMatC= 1.17D-09 BMatP= 1.27D-08
 IDIUse=1 WtCom= 1.00D+00 WtEn= 0.00D+00
 Coeff-Com: -0.102D+00-0.251D-01-0.182D-01 0.396D+00 0.749D+00
 Coeff:     -0.102D+00-0.251D-01-0.182D-01 0.396D+00 0.749D+00
 Gap=     0.311 Goal=   None    Shift=    0.000
 Gap=     0.154 Goal=   None    Shift=    0.000
 RMSDP=9.49D-08 MaxDP=3.91D-06 DE=-7.68D-09 OVMax= 2.03D-05

 Cycle  14  Pass 1  IDiag  1:
 E= -268.953499213641     Delta-E=       -0.000000000428 Rises=F Damp=F
 DIIS: error= 3.43D-07 at cycle   6 NSaved=   6.
 NSaved= 6 IEnMin= 6 EnMin= -268.953499213641     IErMin= 6 ErrMin= 3.43D-07
 ErrMax= 3.43D-07  0.00D+00 EMaxC= 1.00D-01 BMatC= 2.18D-10 BMatP= 1.17D-09
 IDIUse=1 WtCom= 1.00D+00 WtEn= 0.00D+00
 Coeff-Com: -0.321D-02-0.410D-02-0.315D-01-0.117D-01 0.333D+00 0.717D+00
 Coeff:     -0.321D-02-0.410D-02-0.315D-01-0.117D-01 0.333D+00 0.717D+00
 Gap=     0.311 Goal=   None    Shift=    0.000
 Gap=     0.154 Goal=   None    Shift=    0.000
 RMSDP=4.72D-08 MaxDP=2.93D-06 DE=-4.28D-10 OVMax= 1.55D-05

 Cycle  15  Pass 1  IDiag  1:
 E= -268.953499213761     Delta-E=       -0.000000000121 Rises=F Damp=F
 DIIS: error= 2.69D-07 at cycle   7 NSaved=   7.
 NSaved= 7 IEnMin= 7 EnMin= -268.953499213761     IErMin= 7 ErrMin= 2.69D-07
 ErrMax= 2.69D-07  0.00D+00 EMaxC= 1.00D-01 BMatC= 4.31D-11 BMatP= 2.18D-10
 IDIUse=1 WtCom= 1.00D+00 WtEn= 0.00D+00
 Coeff-Com:  0.166D-01 0.287D-02-0.678D-02-0.722D-01-0.192D-01 0.220D+00
 Coeff-Com:  0.858D+00
 Coeff:      0.166D-01 0.287D-02-0.678D-02-0.722D-01-0.192D-01 0.220D+00
 Coeff:      0.858D+00
 Gap=     0.311 Goal=   None    Shift=    0.000
 Gap=     0.154 Goal=   None    Shift=    0.000
 RMSDP=3.82D-08 MaxDP=2.01D-06 DE=-1.21D-10 OVMax= 1.44D-05

 Cycle  16  Pass 1  IDiag  1:
 E= -268.953499213825     Delta-E=       -0.000000000063 Rises=F Damp=F
 DIIS: error= 2.03D-07 at cycle   8 NSaved=   8.
 NSaved= 8 IEnMin= 8 EnMin= -268.953499213825     IErMin= 8 ErrMin= 2.03D-07
 ErrMax= 2.03D-07  0.00D+00 EMaxC= 1.00D-01 BMatC= 1.99D-11 BMatP= 4.31D-11
 IDIUse=1 WtCom= 1.00D+00 WtEn= 0.00D+00
 Coeff-Com:  0.263D-03 0.362D-03 0.128D-01 0.577D-02-0.101D+00-0.261D+00
 Coeff-Com: -0.643D-01 0.141D+01
 Coeff:      0.263D-03 0.362D-03 0.128D-01 0.577D-02-0.101D+00-0.261D+00
 Coeff:     -0.643D-01 0.141D+01
 Gap=     0.311 Goal=   None    Shift=    0.000
 Gap=     0.154 Goal=   None    Shift=    0.000
 RMSDP=5.08D-08 MaxDP=2.74D-06 DE=-6.33D-11 OVMax= 1.97D-05

 Cycle  17  Pass 1  IDiag  1:
 E= -268.953499213883     Delta-E=       -0.000000000058 Rises=F Damp=F
 DIIS: error= 1.19D-07 at cycle   9 NSaved=   9.
 NSaved= 9 IEnMin= 9 EnMin= -268.953499213883     IErMin= 9 ErrMin= 1.19D-07
 ErrMax= 1.19D-07  0.00D+00 EMaxC= 1.00D-01 BMatC= 1.12D-11 BMatP= 1.99D-11
 IDIUse=1 WtCom= 1.00D+00 WtEn= 0.00D+00
 Coeff-Com: -0.106D-01-0.174D-02 0.132D-01 0.499D-01-0.539D-01-0.320D+00
 Coeff-Com: -0.640D+00 0.966D+00 0.997D+00
 Coeff:     -0.106D-01-0.174D-02 0.132D-01 0.499D-01-0.539D-01-0.320D+00
 Coeff:     -0.640D+00 0.966D+00 0.997D+00
 Gap=     0.311 Goal=   None    Shift=    0.000
 Gap=     0.154 Goal=   None    Shift=    0.000
 RMSDP=5.10D-08 MaxDP=2.68D-06 DE=-5.82D-11 OVMax= 1.98D-05

 Cycle  18  Pass 1  IDiag  1:
 E= -268.953499213912     Delta-E=       -0.000000000029 Rises=F Damp=F
 DIIS: error= 4.13D-08 at cycle  10 NSaved=  10.
 NSaved=10 IEnMin=10 EnMin= -268.953499213912     IErMin=10 ErrMin= 4.13D-08
 ErrMax= 4.13D-08  0.00D+00 EMaxC= 1.00D-01 BMatC= 1.14D-12 BMatP= 1.12D-11
 IDIUse=1 WtCom= 1.00D+00 WtEn= 0.00D+00
 Coeff-Com: -0.989D-03-0.986D-04-0.295D-02 0.323D-02 0.240D-01 0.477D-01
 Coeff-Com: -0.380D-01-0.309D+00 0.686D-01 0.121D+01
 Coeff:     -0.989D-03-0.986D-04-0.295D-02 0.323D-02 0.240D-01 0.477D-01
 Coeff:     -0.380D-01-0.309D+00 0.686D-01 0.121D+01
 Gap=     0.311 Goal=   None    Shift=    0.000
 Gap=     0.154 Goal=   None    Shift=    0.000
 RMSDP=2.09D-08 MaxDP=1.13D-06 DE=-2.94D-11 OVMax= 8.10D-06

 Cycle  19  Pass 1  IDiag  1:
 E= -268.953499213917     Delta-E=       -0.000000000005 Rises=F Damp=F
 DIIS: error= 1.34D-08 at cycle  11 NSaved=  11.
 NSaved=11 IEnMin=11 EnMin= -268.953499213917     IErMin=11 ErrMin= 1.34D-08
 ErrMax= 1.34D-08  0.00D+00 EMaxC= 1.00D-01 BMatC= 1.28D-13 BMatP= 1.14D-12
 IDIUse=1 WtCom= 1.00D+00 WtEn= 0.00D+00
 Coeff-Com:  0.864D-03 0.219D-03-0.239D-02-0.415D-02 0.115D-01 0.465D-01
 Coeff-Com:  0.604D-01-0.184D+00-0.892D-01 0.294D+00 0.866D+00
 Coeff:      0.864D-03 0.219D-03-0.239D-02-0.415D-02 0.115D-01 0.465D-01
 Coeff:      0.604D-01-0.184D+00-0.892D-01 0.294D+00 0.866D+00
 Gap=     0.311 Goal=   None    Shift=    0.000
 Gap=     0.154 Goal=   None    Shift=    0.000
 RMSDP=3.24D-09 MaxDP=1.81D-07 DE=-5.00D-12 OVMax= 1.22D-06

 SCF Done:  E(UB3LYP) =  -268.953499214     A.U. after   19 cycles
            NFock= 19  Conv=0.32D-08     -V/T= 2.0068
 <Sx>= 0.0000 <Sy>= 0.0000 <Sz>= 0.5000 <S**2>= 0.7538 S= 0.5019
 <L.S>=  0.00000000000    
 KE= 2.671315692810D+02 PE=-1.003566122512D+03 EE= 2.802714575466D+02
 Annihilation of the first spin contaminant:
 S**2 before annihilation     0.7538,   after     0.7500
 Leave Link  502 at Thu Apr  7 11:22:54 2022, MaxMem=  1073741824 cpu:             175.0 elap:              47.3
 (Enter /home/saurabh/gaussian/g16/l801.exe)
 DoSCS=F DFT=T ScalE2(SS,OS)=  1.000000  1.000000
 Range of M.O.s used for correlation:     1   248
 NBasis=   248 NAE=    21 NBE=    20 NFC=     0 NFV=     0
 NROrb=    248 NOA=    21 NOB=    20 NVA=   227 NVB=   228

 **** Warning!!: The largest alpha MO coefficient is  0.12759435D+02


 **** Warning!!: The largest beta MO coefficient is  0.11064179D+02

 Leave Link  801 at Thu Apr  7 11:22:54 2022, MaxMem=  1073741824 cpu:               0.2 elap:               0.0
 (Enter /home/saurabh/gaussian/g16/l1101.exe)
 Using compressed storage, NAtomX=    12.
 Will process     13 centers per pass.
 Leave Link 1101 at Thu Apr  7 11:22:55 2022, MaxMem=  1073741824 cpu:               1.8 elap:               0.3
 (Enter /home/saurabh/gaussian/g16/l1102.exe)
 Symmetrizing basis deriv contribution to polar:
 IMax=3 JMax=2 DiffMx= 0.00D+00
 Leave Link 1102 at Thu Apr  7 11:22:55 2022, MaxMem=  1073741824 cpu:               0.2 elap:               0.1
 (Enter /home/saurabh/gaussian/g16/l1110.exe)
 Forming Gx(P) for the SCF density, NAtomX=    12.
 Integral derivatives from FoFJK, PRISM(SPDF).
 Do as many integral derivatives as possible in FoFJK.
 G2DrvN: MDV=    1073740452.
 G2DrvN: will do    13 centers at a time, making    1 passes.
 Calling FoFCou, ICntrl=  3107 FMM=F I1Cent=   0 AccDes= 0.00D+00.
 FoFJK:  IHMeth= 1 ICntrl=    3107 DoSepK=F KAlg= 0 I1Cent=           0 FoldK=F
 IRaf=         0 NMat=       1 IRICut=       1 DoRegI=T DoRafI=F ISym2E= 0 IDoP0=0 IntGTp=1.
 FoFCou: FMM=F IPFlag=           0 FMFlag=      100000 FMFlg1=           0
         NFxFlg=           0 DoJE=F BraDBF=F KetDBF=F FulRan=T
         wScrn=  0.000000 ICntrl=      3107 IOpCl=  1 I1Cent=           0 NGrid=           0
         NMat0=    1 NMatS0=      1 NMatT0=    0 NMatD0=    1 NMtDS0=    0 NMtDT0=    0
 Symmetry not used in FoFCou.
 End of G2Drv F.D. properties file   721 does not exist.
 End of G2Drv F.D. properties file   722 does not exist.
 End of G2Drv F.D. properties file   788 does not exist.
 Leave Link 1110 at Thu Apr  7 11:23:39 2022, MaxMem=  1073741824 cpu:             350.2 elap:              43.8
 (Enter /home/saurabh/gaussian/g16/l1002.exe)
 Minotr:  UHF open shell wavefunction.
          IDoAtm=111111111111
          Direct CPHF calculation.
          Differentiating once with respect to nuclear coordinates.
          Requested convergence is 1.0D-08 RMS, and 1.0D-07 maximum.
          Secondary convergence is 1.0D-12 RMS, and 1.0D-12 maximum.
          NewPWx=T KeepS1=F KeepF1=F KeepIn=T MapXYZ=F SortEE=F KeepMc=T.
         3563 words used for storage of precomputed grid.
 Keep R1 and R2 ints in memory in canonical form, NReq=964459531.
 FoFCou: FMM=F IPFlag=           0 FMFlag=           0 FMFlg1=           0
         NFxFlg=           0 DoJE=F BraDBF=F KetDBF=F FulRan=T
         wScrn=  0.000000 ICntrl=       600 IOpCl=  0 I1Cent=           0 NGrid=           0
         NMat0=    1 NMatS0=  30876 NMatT0=    0 NMatD0=    1 NMtDS0=    0 NMtDT0=    0
 Symmetry not used in FoFCou.
 Two-electron integral symmetry not used.
          MDV=    1073741824 using IRadAn=       1.
          Solving linear equations simultaneously, MaxMat=       0.
          There are    39 degrees of freedom in the 1st order CPHF.  IDoFFX=6 NUNeed=     0.
     33 vectors produced by pass  0 Test12= 2.39D-14 2.56D-09 XBig12= 1.84D-01 1.13D-01.
 AX will form    33 AO Fock derivatives at one time.
     33 vectors produced by pass  1 Test12= 2.39D-14 2.56D-09 XBig12= 9.92D-02 1.25D-01.
     33 vectors produced by pass  2 Test12= 2.39D-14 2.56D-09 XBig12= 2.09D-03 1.23D-02.
     33 vectors produced by pass  3 Test12= 2.39D-14 2.56D-09 XBig12= 1.86D-05 4.37D-04.
     33 vectors produced by pass  4 Test12= 2.39D-14 2.56D-09 XBig12= 1.59D-07 5.23D-05.
     33 vectors produced by pass  5 Test12= 2.39D-14 2.56D-09 XBig12= 8.44D-10 3.67D-06.
     18 vectors produced by pass  6 Test12= 2.39D-14 2.56D-09 XBig12= 3.25D-12 1.65D-07.
      4 vectors produced by pass  7 Test12= 2.39D-14 2.56D-09 XBig12= 1.60D-14 1.48D-08.
 InvSVY:  IOpt=1 It=  1 EMax= 1.22D-15
 Solved reduced A of dimension   220 with    33 vectors.
 End of Minotr F.D. properties file   721 does not exist.
 End of Minotr F.D. properties file   722 does not exist.
 End of Minotr F.D. properties file   788 does not exist.
 Leave Link 1002 at Thu Apr  7 11:24:34 2022, MaxMem=  1073741824 cpu:             444.7 elap:              55.6
 (Enter /home/saurabh/gaussian/g16/l601.exe)
 Copying SCF densities to generalized density rwf, IOpCl= 1 IROHF=0.

 **********************************************************************

            Population analysis using the SCF Density.

 **********************************************************************

 Orbital symmetries:
 Alpha Orbitals:
       Occupied  (A) (A) (A) (A) (A) (A) (A) (A) (A) (A) (A) (A)
                 (A) (A) (A) (A) (A) (A) (A) (A) (A)
       Virtual   (A) (A) (A) (A) (A) (A) (A) (A) (A) (A) (A) (A)
                 (A) (A) (A) (A) (A) (A) (A) (A) (A) (A) (A) (A)
                 (A) (A) (A) (A) (A) (A) (A) (A) (A) (A) (A) (A)
                 (A) (A) (A) (A) (A) (A) (A) (A) (A) (A) (A) (A)
                 (A) (A) (A) (A) (A) (A) (A) (A) (A) (A) (A) (A)
                 (A) (A) (A) (A) (A) (A) (A) (A) (A) (A) (A) (A)
                 (A) (A) (A) (A) (A) (A) (A) (A) (A) (A) (A) (A)
                 (A) (A) (A) (A) (A) (A) (A) (A) (A) (A) (A) (A)
                 (A) (A) (A) (A) (A) (A) (A) (A) (A) (A) (A) (A)
                 (A) (A) (A) (A) (A) (A) (A) (A) (A) (A) (A) (A)
                 (A) (A) (A) (A) (A) (A) (A) (A) (A) (A) (A) (A)
                 (A) (A) (A) (A) (A) (A) (A) (A) (A) (A) (A) (A)
                 (A) (A) (A) (A) (A) (A) (A) (A) (A) (A) (A) (A)
                 (A) (A) (A) (A) (A) (A) (A) (A) (A) (A) (A) (A)
                 (A) (A) (A) (A) (A) (A) (A) (A) (A) (A) (A) (A)
                 (A) (A) (A) (A) (A) (A) (A) (A) (A) (A) (A) (A)
                 (A) (A) (A) (A) (A) (A) (A) (A) (A) (A) (A) (A)
                 (A) (A) (A) (A) (A) (A) (A) (A) (A) (A) (A) (A)
                 (A) (A) (A) (A) (A) (A) (A) (A) (A) (A) (A)
 Beta  Orbitals:
       Occupied  (A) (A) (A) (A) (A) (A) (A) (A) (A) (A) (A) (A)
                 (A) (A) (A) (A) (A) (A) (A) (A)
       Virtual   (A) (A) (A) (A) (A) (A) (A) (A) (A) (A) (A) (A)
                 (A) (A) (A) (A) (A) (A) (A) (A) (A) (A) (A) (A)
                 (A) (A) (A) (A) (A) (A) (A) (A) (A) (A) (A) (A)
                 (A) (A) (A) (A) (A) (A) (A) (A) (A) (A) (A) (A)
                 (A) (A) (A) (A) (A) (A) (A) (A) (A) (A) (A) (A)
                 (A) (A) (A) (A) (A) (A) (A) (A) (A) (A) (A) (A)
                 (A) (A) (A) (A) (A) (A) (A) (A) (A) (A) (A) (A)
                 (A) (A) (A) (A) (A) (A) (A) (A) (A) (A) (A) (A)
                 (A) (A) (A) (A) (A) (A) (A) (A) (A) (A) (A) (A)
                 (A) (A) (A) (A) (A) (A) (A) (A) (A) (A) (A) (A)
                 (A) (A) (A) (A) (A) (A) (A) (A) (A) (A) (A) (A)
                 (A) (A) (A) (A) (A) (A) (A) (A) (A) (A) (A) (A)
                 (A) (A) (A) (A) (A) (A) (A) (A) (A) (A) (A) (A)
                 (A) (A) (A) (A) (A) (A) (A) (A) (A) (A) (A) (A)
                 (A) (A) (A) (A) (A) (A) (A) (A) (A) (A) (A) (A)
                 (A) (A) (A) (A) (A) (A) (A) (A) (A) (A) (A) (A)
                 (A) (A) (A) (A) (A) (A) (A) (A) (A) (A) (A) (A)
                 (A) (A) (A) (A) (A) (A) (A) (A) (A) (A) (A) (A)
                 (A) (A) (A) (A) (A) (A) (A) (A) (A) (A) (A) (A)
 The electronic state is 2-A.
 Alpha  occ. eigenvalues --  -19.25081 -19.19670 -10.24769 -10.18718 -10.18468
 Alpha  occ. eigenvalues --   -1.20326  -0.89843  -0.77134  -0.70348  -0.60941
 Alpha  occ. eigenvalues --   -0.53639  -0.51023  -0.49022  -0.44741  -0.41537
 Alpha  occ. eigenvalues --   -0.40847  -0.39968  -0.36366  -0.35431  -0.28771
 Alpha  occ. eigenvalues --   -0.28457
 Alpha virt. eigenvalues --    0.02672   0.06437   0.06986   0.07774   0.09594
 Alpha virt. eigenvalues --    0.11149   0.12065   0.13269   0.13805   0.16884
 Alpha virt. eigenvalues --    0.19665   0.23492   0.23723   0.28616   0.29680
 Alpha virt. eigenvalues --    0.32203   0.34904   0.36001   0.40178   0.41669
 Alpha virt. eigenvalues --    0.42783   0.43509   0.44345   0.44744   0.45031
 Alpha virt. eigenvalues --    0.46340   0.47355   0.49538   0.52357   0.56842
 Alpha virt. eigenvalues --    0.58958   0.60539   0.65208   0.67173   0.69817
 Alpha virt. eigenvalues --    0.70874   0.75719   0.76391   0.78102   0.83741
 Alpha virt. eigenvalues --    0.85743   0.87627   0.87918   0.91871   0.95052
 Alpha virt. eigenvalues --    0.96962   0.98631   0.99314   1.04184   1.05030
 Alpha virt. eigenvalues --    1.06880   1.08669   1.11661   1.12582   1.14493
 Alpha virt. eigenvalues --    1.17309   1.20484   1.22260   1.24981   1.25755
 Alpha virt. eigenvalues --    1.26934   1.28850   1.30309   1.34321   1.36332
 Alpha virt. eigenvalues --    1.37053   1.38688   1.41061   1.43539   1.46442
 Alpha virt. eigenvalues --    1.47646   1.49714   1.50062   1.53427   1.60705
 Alpha virt. eigenvalues --    1.62777   1.67757   1.80810   1.92757   1.98399
 Alpha virt. eigenvalues --    2.03351   2.10998   2.15318   2.20206   2.22847
 Alpha virt. eigenvalues --    2.27295   2.30135   2.35472   2.37688   2.41677
 Alpha virt. eigenvalues --    2.45685   2.48222   2.53097   2.53957   2.56587
 Alpha virt. eigenvalues --    2.60021   2.61461   2.64226   2.68967   2.75300
 Alpha virt. eigenvalues --    2.77928   2.78608   2.79328   2.81758   2.88158
 Alpha virt. eigenvalues --    2.88956   2.89887   2.92101   2.93124   2.99469
 Alpha virt. eigenvalues --    3.00926   3.03763   3.04587   3.06694   3.08592
 Alpha virt. eigenvalues --    3.09137   3.12809   3.13721   3.17738   3.20043
 Alpha virt. eigenvalues --    3.23236   3.28266   3.30385   3.32050   3.36210
 Alpha virt. eigenvalues --    3.37405   3.38215   3.39366   3.44124   3.45820
 Alpha virt. eigenvalues --    3.46349   3.50652   3.53814   3.58073   3.58762
 Alpha virt. eigenvalues --    3.63572   3.66960   3.69812   3.70900   3.74395
 Alpha virt. eigenvalues --    3.76589   3.77337   3.78318   3.80329   3.82067
 Alpha virt. eigenvalues --    3.86386   3.89520   3.90108   3.90885   3.94420
 Alpha virt. eigenvalues --    3.96508   3.99146   4.03179   4.06430   4.08082
 Alpha virt. eigenvalues --    4.08183   4.09843   4.11757   4.15365   4.17035
 Alpha virt. eigenvalues --    4.23009   4.24501   4.25822   4.28483   4.32802
 Alpha virt. eigenvalues --    4.36053   4.44311   4.48384   4.49860   4.58798
 Alpha virt. eigenvalues --    4.63624   4.66528   4.68965   4.71293   4.75805
 Alpha virt. eigenvalues --    4.77381   4.78365   4.81011   4.84262   4.85506
 Alpha virt. eigenvalues --    4.88733   4.93810   4.98141   5.02170   5.07563
 Alpha virt. eigenvalues --    5.09091   5.11053   5.11393   5.12626   5.16258
 Alpha virt. eigenvalues --    5.19506   5.22307   5.23989   5.25901   5.27176
 Alpha virt. eigenvalues --    5.27485   5.30242   5.32926   5.38060   5.46061
 Alpha virt. eigenvalues --    5.54700   5.63831   5.73369   5.78042   5.81519
 Alpha virt. eigenvalues --    5.84623   5.87875   5.93096   5.99553   6.13624
 Alpha virt. eigenvalues --    6.24873   6.26419   6.30889   6.39791   6.42995
 Alpha virt. eigenvalues --    6.66805   6.76848   6.79454   7.03320   7.08034
 Alpha virt. eigenvalues --    7.27984   7.40360   9.37854  10.99029  11.41072
 Alpha virt. eigenvalues --   13.08887  13.14540
  Beta  occ. eigenvalues --  -19.24117 -19.17732 -10.24804 -10.18712 -10.18432
  Beta  occ. eigenvalues --   -1.17772  -0.87072  -0.75810  -0.70226  -0.60315
  Beta  occ. eigenvalues --   -0.52097  -0.48478  -0.47487  -0.43073  -0.41276
  Beta  occ. eigenvalues --   -0.40455  -0.38621  -0.35366  -0.34263  -0.27038
  Beta virt. eigenvalues --   -0.11627   0.02757   0.06542   0.07045   0.07979
  Beta virt. eigenvalues --    0.09845   0.12053   0.12249   0.13481   0.14077
  Beta virt. eigenvalues --    0.17360   0.19693   0.23563   0.23806   0.28708
  Beta virt. eigenvalues --    0.30039   0.32409   0.34998   0.36167   0.40327
  Beta virt. eigenvalues --    0.41747   0.42949   0.43567   0.44391   0.44810
  Beta virt. eigenvalues --    0.45055   0.46374   0.47381   0.49750   0.53573
  Beta virt. eigenvalues --    0.57470   0.59375   0.60699   0.65548   0.69349
  Beta virt. eigenvalues --    0.70791   0.71511   0.75862   0.76621   0.78601
  Beta virt. eigenvalues --    0.83909   0.85850   0.87907   0.88073   0.91925
  Beta virt. eigenvalues --    0.95136   0.97163   0.98699   0.99408   1.04261
  Beta virt. eigenvalues --    1.05190   1.07190   1.08797   1.11796   1.12704
  Beta virt. eigenvalues --    1.14760   1.17609   1.20729   1.22373   1.25161
  Beta virt. eigenvalues --    1.25888   1.27157   1.29108   1.30819   1.34766
  Beta virt. eigenvalues --    1.37152   1.37500   1.38977   1.41483   1.44331
  Beta virt. eigenvalues --    1.47177   1.48008   1.50087   1.50430   1.55140
  Beta virt. eigenvalues --    1.61237   1.63999   1.69044   1.81307   1.93746
  Beta virt. eigenvalues --    1.99927   2.04375   2.13473   2.15641   2.20332
  Beta virt. eigenvalues --    2.23431   2.27533   2.30378   2.35614   2.37915
  Beta virt. eigenvalues --    2.41894   2.45729   2.48300   2.53228   2.54174
  Beta virt. eigenvalues --    2.56673   2.60162   2.61536   2.64306   2.69065
  Beta virt. eigenvalues --    2.75363   2.77946   2.78645   2.79441   2.81863
  Beta virt. eigenvalues --    2.88243   2.89090   2.90026   2.92286   2.93259
  Beta virt. eigenvalues --    2.99555   3.01018   3.03811   3.04699   3.06801
  Beta virt. eigenvalues --    3.08689   3.09178   3.13054   3.13811   3.17828
  Beta virt. eigenvalues --    3.20120   3.23299   3.28424   3.30481   3.32115
  Beta virt. eigenvalues --    3.36537   3.37449   3.38308   3.39471   3.44174
  Beta virt. eigenvalues --    3.45875   3.46465   3.51012   3.54111   3.58763
  Beta virt. eigenvalues --    3.61702   3.64239   3.67441   3.70225   3.71651
  Beta virt. eigenvalues --    3.76328   3.77019   3.78010   3.78521   3.81384
  Beta virt. eigenvalues --    3.82159   3.86693   3.89591   3.90279   3.91013
  Beta virt. eigenvalues --    3.94512   3.96613   3.99199   4.03264   4.06994
  Beta virt. eigenvalues --    4.08160   4.08273   4.09907   4.11879   4.15524
  Beta virt. eigenvalues --    4.17697   4.23191   4.24661   4.25925   4.28577
  Beta virt. eigenvalues --    4.32929   4.36194   4.44526   4.48538   4.49981
  Beta virt. eigenvalues --    4.59343   4.64190   4.67521   4.70783   4.72073
  Beta virt. eigenvalues --    4.76058   4.77690   4.78625   4.81622   4.85708
  Beta virt. eigenvalues --    4.86114   4.90052   4.94697   4.98918   5.02746
  Beta virt. eigenvalues --    5.08255   5.09528   5.12355   5.14397   5.16209
  Beta virt. eigenvalues --    5.17127   5.20412   5.22525   5.24601   5.26143
  Beta virt. eigenvalues --    5.27246   5.27913   5.30752   5.33186   5.38763
  Beta virt. eigenvalues --    5.46212   5.55891   5.65184   5.74341   5.78724
  Beta virt. eigenvalues --    5.81588   5.84818   5.88197   5.94391   6.01744
  Beta virt. eigenvalues --    6.18759   6.27328   6.31799   6.36026   6.43961
  Beta virt. eigenvalues --    6.45714   6.67899   6.78672   6.82654   7.06252
  Beta virt. eigenvalues --    7.10005   7.28427   7.41615   9.40772  11.00044
  Beta virt. eigenvalues --   11.41836  13.08933  13.14555
          Condensed to atoms (all electrons):
               1          2          3          4          5          6
     1  C    4.890326   0.319041  -0.059081   0.395018   0.391341   0.396590
     2  C    0.319041   4.778221   0.345060  -0.031288  -0.026833  -0.034866
     3  C   -0.059081   0.345060   4.905506   0.009097  -0.008107   0.000195
     4  H    0.395018  -0.031288   0.009097   0.587378  -0.027697  -0.026702
     5  H    0.391341  -0.026833  -0.008107  -0.027697   0.593356  -0.027589
     6  H    0.396590  -0.034866   0.000195  -0.026702  -0.027589   0.599525
     7  H   -0.004928  -0.032018   0.392471  -0.000226   0.005486  -0.000078
     8  H    0.008698  -0.032661   0.396989  -0.000506  -0.000228   0.000106
     9  H   -0.003017  -0.028376   0.382878  -0.000288   0.000462   0.000417
    10  O   -0.025189   0.271301  -0.040501   0.002009   0.000666   0.002718
    11  O    0.008401  -0.057600  -0.007438   0.000241  -0.000292  -0.000277
    12  H   -0.035123   0.402661  -0.044040  -0.007060   0.007924  -0.002627
               7          8          9         10         11         12
     1  C   -0.004928   0.008698  -0.003017  -0.025189   0.008401  -0.035123
     2  C   -0.032018  -0.032661  -0.028376   0.271301  -0.057600   0.402661
     3  C    0.392471   0.396989   0.382878  -0.040501  -0.007438  -0.044040
     4  H   -0.000226  -0.000506  -0.000288   0.002009   0.000241  -0.007060
     5  H    0.005486  -0.000228   0.000462   0.000666  -0.000292   0.007924
     6  H   -0.000078   0.000106   0.000417   0.002718  -0.000277  -0.002627
     7  H    0.591884  -0.026083  -0.026820   0.001658  -0.000283   0.007591
     8  H   -0.026083   0.570952  -0.027211  -0.005246   0.012528  -0.004785
     9  H   -0.026820  -0.027211   0.610623   0.004247  -0.000273  -0.000060
    10  O    0.001658  -0.005246   0.004247   7.752469   0.120002  -0.040252
    11  O   -0.000283   0.012528  -0.000273   0.120002   8.090297   0.009292
    12  H    0.007591  -0.004785  -0.000060  -0.040252   0.009292   0.630590
          Atomic-Atomic Spin Densities.
               1          2          3          4          5          6
     1  C   -0.004809   0.005932   0.000926   0.001385  -0.000385   0.000291
     2  C    0.005932  -0.025205  -0.002920  -0.000902   0.001112  -0.000270
     3  C    0.000926  -0.002920   0.028908   0.000305  -0.000785   0.001202
     4  H    0.001385  -0.000902   0.000305  -0.001130  -0.000010   0.000245
     5  H   -0.000385   0.001112  -0.000785  -0.000010  -0.000162  -0.000258
     6  H    0.000291  -0.000270   0.001202   0.000245  -0.000258  -0.000129
     7  H   -0.000086   0.000213  -0.000497  -0.000020   0.000052  -0.000092
     8  H   -0.000370   0.001803   0.002170   0.000039  -0.000040   0.000061
     9  H   -0.000256   0.000056   0.002403   0.000031   0.000016  -0.000245
    10  O   -0.000049   0.004395  -0.008819   0.000733  -0.000114   0.000166
    11  O   -0.000170  -0.003319   0.004371  -0.000333  -0.000006  -0.000027
    12  H    0.000062   0.000590  -0.006451  -0.000703   0.000322  -0.001201
               7          8          9         10         11         12
     1  C   -0.000086  -0.000370  -0.000256  -0.000049  -0.000170   0.000062
     2  C    0.000213   0.001803   0.000056   0.004395  -0.003319   0.000590
     3  C   -0.000497   0.002170   0.002403  -0.008819   0.004371  -0.006451
     4  H   -0.000020   0.000039   0.000031   0.000733  -0.000333  -0.000703
     5  H    0.000052  -0.000040   0.000016  -0.000114  -0.000006   0.000322
     6  H   -0.000092   0.000061  -0.000245   0.000166  -0.000027  -0.001201
     7  H   -0.001076  -0.000145   0.000330   0.001028  -0.000535   0.000250
     8  H   -0.000145  -0.002398  -0.000872  -0.001772   0.001005  -0.000993
     9  H    0.000330  -0.000872  -0.002568   0.000036  -0.000220   0.001019
    10  O    0.001028  -0.001772   0.000036   0.427854  -0.131932  -0.004956
    11  O   -0.000535   0.001005  -0.000220  -0.131932   0.830420   0.003112
    12  H    0.000250  -0.000993   0.001019  -0.004956   0.003112   0.018484
 Mulliken charges and spin densities:
               1          2
     1  C   -0.282077   0.002471
     2  C    0.127360  -0.018515
     3  C   -0.273028   0.020811
     4  H    0.100024  -0.000360
     5  H    0.091510  -0.000259
     6  H    0.092590  -0.000257
     7  H    0.091346  -0.000578
     8  H    0.107448  -0.001511
     9  H    0.087419  -0.000271
    10  O   -0.043882   0.286569
    11  O   -0.174598   0.702365
    12  H    0.075890   0.009536
 Sum of Mulliken charges =  -0.00000   1.00000
 Mulliken charges and spin densities with hydrogens summed into heavy atoms:
               1          2
     1  C    0.002047   0.001594
     2  C    0.203250  -0.008979
     3  C    0.013185   0.018451
    10  O   -0.043882   0.286569
    11  O   -0.174598   0.702365
 APT charges:
               1
     1  C   -1.011706
     2  C   -0.233228
     3  C   -0.960885
     4  H    0.346543
     5  H    0.295817
     6  H    0.392585
     7  H    0.299420
     8  H    0.322893
     9  H    0.378669
    10  O    0.003738
    11  O   -0.115913
    12  H    0.282068
 Sum of APT charges =  -0.00000
 APT charges with hydrogens summed into heavy atoms:
               1
     1  C    0.023238
     2  C    0.048840
     3  C    0.040096
    10  O    0.003738
    11  O   -0.115913
 Electronic spatial extent (au):  <R**2>=            445.9971
 Charge=             -0.0000 electrons
 Dipole moment (field-independent basis, Debye):
    X=              2.5482    Y=              0.4673    Z=             -0.4965  Tot=              2.6379
 Quadrupole moment (field-independent basis, Debye-Ang):
   XX=            -34.4356   YY=            -30.7187   ZZ=            -30.7823
   XY=             -0.5911   XZ=             -0.2411   YZ=              0.5483
 Traceless Quadrupole moment (field-independent basis, Debye-Ang):
   XX=             -2.4567   YY=              1.2601   ZZ=              1.1966
   XY=             -0.5911   XZ=             -0.2411   YZ=              0.5483
 Octapole moment (field-independent basis, Debye-Ang**2):
  XXX=             -2.4235  YYY=             -3.4992  ZZZ=              0.9785  XYY=             -3.9500
  XXY=              0.7780  XXZ=             -0.5365  XZZ=             -2.3146  YZZ=             -0.7432
  YYZ=             -0.6491  XYZ=             -0.8292
 Hexadecapole moment (field-independent basis, Debye-Ang**3):
 XXXX=           -326.0691 YYYY=           -196.7524 ZZZZ=            -61.7373 XXXY=              2.6348
 XXXZ=             -3.2461 YYYX=              1.7442 YYYZ=             -0.4796 ZZZX=              1.0284
 ZZZY=             -0.0799 XXYY=            -84.7475 XXZZ=            -61.7067 YYZZ=            -44.1286
 XXYZ=             -0.9737 YYXZ=             -0.4443 ZZXY=              1.5784
 N-N= 1.872095964704D+02 E-N=-1.003566121710D+03  KE= 2.671315692810D+02
  Exact polarizability:       0.000       0.000       0.000       0.000       0.000       0.000
 Approx polarizability:      74.703      -2.369      58.615       4.855      -1.971      60.934
                          Isotropic Fermi Contact Couplings
        Atom                 a.u.       MegaHertz       Gauss      10(-4) cm-1
     1  C(13)              0.00185       2.08502       0.74399       0.69549
     2  C(13)             -0.01067     -12.00018      -4.28196      -4.00283
     3  C(13)              0.00647       7.27152       2.59466       2.42552
     4  H(1)              -0.00012      -0.54549      -0.19464      -0.18196
     5  H(1)              -0.00013      -0.58745      -0.20962      -0.19595
     6  H(1)              -0.00009      -0.41480      -0.14801      -0.13836
     7  H(1)              -0.00011      -0.48866      -0.17437      -0.16300
     8  H(1)              -0.00005      -0.20543      -0.07330      -0.06853
     9  H(1)               0.00015       0.66664       0.23788       0.22237
    10  O(17)              0.03695     -22.39792      -7.99214      -7.47114
    11  O(17)              0.04143     -25.11305      -8.96096      -8.37681
    12  H(1)               0.00222       9.92507       3.54151       3.31065
 --------------------------------------------------------
       Center         ----  Spin Dipole Couplings  ----
                      3XX-RR        3YY-RR        3ZZ-RR
 --------------------------------------------------------
     1   Atom        0.012677     -0.006501     -0.006177
     2   Atom        0.017669     -0.006882     -0.010787
     3   Atom       -0.009905      0.029330     -0.019425
     4   Atom        0.005122     -0.000961     -0.004161
     5   Atom        0.006663     -0.003642     -0.003021
     6   Atom        0.004481     -0.002433     -0.002048
     7   Atom        0.000985      0.000581     -0.001566
     8   Atom        0.000400      0.007942     -0.008342
     9   Atom        0.003155      0.000002     -0.003157
    10   Atom       -0.788152      0.895780     -0.107629
    11   Atom       -1.549783      1.756273     -0.206490
    12   Atom        0.007489     -0.009705      0.002216
 --------------------------------------------------------
                        XY            XZ            YZ
 --------------------------------------------------------
     1   Atom       -0.003134      0.000541     -0.000137
     2   Atom        0.006573     -0.011187     -0.006792
     3   Atom        0.007147     -0.000049     -0.001015
     4   Atom       -0.005619     -0.001823      0.001117
     5   Atom       -0.001750      0.003105     -0.000436
     6   Atom       -0.000289     -0.001467      0.000029
     7   Atom        0.006092      0.003715      0.003888
     8   Atom        0.008235      0.000252     -0.001799
     9   Atom        0.003963     -0.002351     -0.001131
    10   Atom       -0.016380     -0.045271      1.101739
    11   Atom       -0.058860     -0.043257      2.086785
    12   Atom        0.002363     -0.013648     -0.003147
 --------------------------------------------------------


 ---------------------------------------------------------------------------------
              Anisotropic Spin Dipole Couplings in Principal Axis System
 ---------------------------------------------------------------------------------

       Atom             a.u.   MegaHertz   Gauss  10(-4) cm-1        Axes

              Baa    -0.0070    -0.940    -0.335    -0.313  0.1553  0.9860  0.0614
     1 C(13)  Bbb    -0.0062    -0.831    -0.296    -0.277 -0.0379 -0.0562  0.9977
              Bcc     0.0132     1.770     0.632     0.591  0.9871 -0.1573  0.0287
 
              Baa    -0.0169    -2.267    -0.809    -0.756  0.1926  0.4612  0.8661
     2 C(13)  Bbb    -0.0070    -0.939    -0.335    -0.313 -0.3903  0.8458 -0.3636
              Bcc     0.0239     3.205     1.144     1.069  0.9003  0.2680 -0.3430
 
              Baa    -0.0194    -2.610    -0.931    -0.871 -0.0117  0.0225  0.9997
     3 C(13)  Bbb    -0.0112    -1.498    -0.535    -0.500  0.9847 -0.1734  0.0154
              Bcc     0.0306     4.108     1.466     1.370  0.1737  0.9846 -0.0201
 
              Baa    -0.0045    -2.410    -0.860    -0.804  0.0740 -0.1907  0.9789
     4 H(1)   Bbb    -0.0043    -2.297    -0.820    -0.766  0.5256  0.8416  0.1243
              Bcc     0.0088     4.707     1.680     1.570  0.8475 -0.5053 -0.1625
 
              Baa    -0.0040    -2.134    -0.762    -0.712  0.3055  0.6818 -0.6647
     5 H(1)   Bbb    -0.0039    -2.057    -0.734    -0.686 -0.0859  0.7150  0.6938
              Bcc     0.0079     4.191     1.496     1.398  0.9483 -0.1548  0.2770
 
              Baa    -0.0025    -1.310    -0.467    -0.437  0.1052  0.9444  0.3116
     6 H(1)   Bbb    -0.0024    -1.254    -0.448    -0.418  0.1852 -0.3264  0.9269
              Bcc     0.0048     2.565     0.915     0.855  0.9771 -0.0398 -0.2092
 
              Baa    -0.0053    -2.851    -1.017    -0.951 -0.6396  0.7544 -0.1476
     7 H(1)   Bbb    -0.0041    -2.212    -0.789    -0.738 -0.4228 -0.1848  0.8872
              Bcc     0.0095     5.063     1.807     1.689  0.6421  0.6298  0.4372
 
              Baa    -0.0088    -4.689    -1.673    -1.564 -0.2117  0.2070  0.9552
     8 H(1)   Bbb    -0.0045    -2.416    -0.862    -0.806  0.8175 -0.4981  0.2891
              Bcc     0.0133     7.105     2.535     2.370  0.5356  0.8420 -0.0637
 
              Baa    -0.0040    -2.109    -0.753    -0.704  0.3602 -0.0956  0.9279
     9 H(1)   Bbb    -0.0026    -1.376    -0.491    -0.459 -0.4704  0.8404  0.2692
              Bcc     0.0065     3.485     1.244     1.163  0.8056  0.5335 -0.2578
 
              Baa    -0.8350    60.418    21.559    20.153  0.5342 -0.4504  0.7154
    10 O(17)  Bbb    -0.7703    55.739    19.889    18.592  0.8452  0.3005 -0.4419
              Bcc     1.6053  -116.157   -41.448   -38.746 -0.0160  0.8407  0.5412
 
              Baa    -1.5521   112.310    40.075    37.462  0.9729 -0.1108  0.2031
    11 O(17)  Bbb    -1.5300   110.707    39.503    36.928 -0.2308 -0.5245  0.8195
              Bcc     3.0821  -223.016   -79.578   -74.390 -0.0157  0.8442  0.5359
 
              Baa    -0.0107    -5.716    -2.040    -1.907  0.2195  0.8691  0.4433
    12 H(1)   Bbb    -0.0085    -4.560    -1.627    -1.521  0.6094 -0.4770  0.6334
              Bcc     0.0193    10.276     3.667     3.428  0.7619  0.1311 -0.6343
 

 ---------------------------------------------------------------------------------

 No NMR shielding tensors so no spin-rotation constants.
 Leave Link  601 at Thu Apr  7 11:24:34 2022, MaxMem=  1073741824 cpu:               2.2 elap:               0.3
 (Enter /home/saurabh/gaussian/g16/l701.exe)
 ... and contract with generalized density number  0.
 Compute integral second derivatives.
 Leave Link  701 at Thu Apr  7 11:24:35 2022, MaxMem=  1073741824 cpu:               1.6 elap:               0.2
 (Enter /home/saurabh/gaussian/g16/l702.exe)
 L702 exits ... SP integral derivatives will be done elsewhere.
 Leave Link  702 at Thu Apr  7 11:24:35 2022, MaxMem=  1073741824 cpu:               0.1 elap:               0.0
 (Enter /home/saurabh/gaussian/g16/l703.exe)
 Integral derivatives from FoFJK, PRISM(SPDF).
 Compute integral second derivatives, UseDBF=F ICtDFT=           0.
 Calling FoFJK, ICntrl=    100127 FMM=F ISym2X=0 I1Cent= 0 IOpClX= 1 NMat=1 NMatS=1 NMatT=0.
 FoFJK:  IHMeth= 1 ICntrl=  100127 DoSepK=F KAlg= 0 I1Cent=           0 FoldK=F
 IRaf=         0 NMat=       1 IRICut=       1 DoRegI=T DoRafI=F ISym2E= 0 IDoP0=0 IntGTp=1.
 FoFCou: FMM=F IPFlag=           0 FMFlag=      100000 FMFlg1=         800
         NFxFlg=           0 DoJE=F BraDBF=F KetDBF=F FulRan=T
         wScrn=  0.000000 ICntrl=    100127 IOpCl=  1 I1Cent=           0 NGrid=           0
         NMat0=    1 NMatS0=      1 NMatT0=    0 NMatD0=    1 NMtDS0=    0 NMtDT0=    0
 Symmetry not used in FoFCou.
 Leave Link  703 at Thu Apr  7 11:26:04 2022, MaxMem=  1073741824 cpu:             715.4 elap:              89.4
 (Enter /home/saurabh/gaussian/g16/l716.exe)
 Dipole        = 1.00255425D+00 1.83859692D-01-1.95342269D-01
 Polarizability= 0.00000000D+00 0.00000000D+00 0.00000000D+00
                 0.00000000D+00 0.00000000D+00 0.00000000D+00
 ***** Axes restored to original set *****
 -------------------------------------------------------------------
 Center     Atomic                   Forces (Hartrees/Bohr)
 Number     Number              X              Y              Z
 -------------------------------------------------------------------
      1        6          -0.011328214   -0.000373132    0.006083511
      2        6          -0.013361903   -0.034252522   -0.041832310
      3        6           0.011131577   -0.000613223   -0.000389796
      4        1           0.007775033   -0.009813783   -0.000690586
      5        1          -0.000837555    0.007014260   -0.010330263
      6        1           0.002284760    0.007015776    0.012055285
      7        1          -0.000043830    0.007421180   -0.010066214
      8        1          -0.010558285   -0.006959013    0.000528464
      9        1           0.000620654    0.006603671    0.011524848
     10        8           0.005258354    0.015832798    0.001375259
     11        8           0.004979021    0.011063610    0.013629777
     12        1           0.004080387   -0.002939621    0.018112025
 -------------------------------------------------------------------
 Cartesian Forces:  Max     0.041832310 RMS     0.012207904
 Force constants in Cartesian coordinates: 
                1             2             3             4             5 
      1  0.473218D+00
      2 -0.326101D-01  0.512691D+00
      3 -0.126533D-02  0.324685D-02  0.533172D+00
      4 -0.154305D+00 -0.391004D-01  0.128065D-01  0.460701D+00
      5 -0.416997D-01 -0.969791D-01  0.105574D-01  0.279733D-01  0.503614D+00
      6  0.517852D-02  0.446168D-02 -0.829295D-01 -0.208502D-02 -0.452853D-01
      7 -0.343300D-01  0.188176D-01  0.115723D-02 -0.132816D+00  0.459581D-01
      8 -0.944170D-02  0.117256D-01  0.230736D-02  0.440143D-01 -0.112137D+00
      9  0.246771D-02  0.123402D-02  0.228010D-02 -0.426166D-02  0.737324D-02
     10 -0.171948D+00  0.107032D+00  0.113686D-01 -0.234046D-01  0.204138D-01
     11  0.110401D+00 -0.149984D+00 -0.997916D-02 -0.133571D-01  0.109043D-01
     12  0.120245D-01 -0.970663D-02 -0.528841D-01 -0.422991D-03 -0.322477D-03
     13 -0.524146D-01 -0.474662D-02  0.596525D-02 -0.234649D-02 -0.192199D-01
     14 -0.586258D-02 -0.138849D+00  0.106704D+00 -0.189458D-02 -0.124955D-01
     15  0.804382D-02  0.107528D+00 -0.181942D+00  0.177930D-03  0.407339D-03
     16 -0.524389D-01 -0.108858D-01 -0.173708D-01 -0.627001D-03 -0.112901D-01
     17 -0.126487D-01 -0.107151D+00 -0.966452D-01  0.125541D-02 -0.788213D-02
     18 -0.204071D-01 -0.977047D-01 -0.213977D+00  0.122652D-02  0.121881D-02
     19  0.179852D-02  0.646936D-03 -0.102699D-02 -0.143349D-02  0.165583D-01
     20 -0.143562D-02  0.542088D-03 -0.419452D-03  0.110032D-02 -0.163126D-01
     21 -0.274078D-04 -0.341453D-03  0.209707D-03 -0.470802D-04 -0.166778D-02
     22 -0.306137D-02  0.504734D-02  0.560315D-03 -0.235326D-01 -0.132234D-01
     23  0.281677D-02 -0.260104D-02 -0.815223D-03  0.197400D-01  0.100718D-01
     24  0.313282D-03 -0.403604D-03  0.235082D-03  0.221402D-02  0.324073D-03
     25  0.536780D-03 -0.424737D-03  0.230151D-03  0.248930D-02  0.100922D-01
     26 -0.107205D-02  0.471439D-03 -0.183086D-03 -0.518023D-02 -0.921210D-02
     27 -0.638840D-03  0.133837D-03 -0.237635D-03 -0.125366D-02  0.219639D-03
     28 -0.579252D-02 -0.196500D-01 -0.300720D-01 -0.529617D-01 -0.418611D-02
     29 -0.938082D-02 -0.159457D-01 -0.208275D-01  0.402360D-02 -0.756820D-01
     30 -0.642043D-02 -0.478609D-02 -0.187342D-02  0.227155D-01 -0.352683D-01
     31  0.221349D-02 -0.329804D-02 -0.412975D-02 -0.207958D-01 -0.328794D-01
     32  0.300570D-02 -0.347275D-02 -0.580779D-02 -0.401430D-01 -0.526121D-01
     33 -0.569543D-03 -0.527593D-02 -0.341659D-02 -0.301252D-01 -0.340992D-01
     34 -0.347644D-02 -0.208279D-01  0.217768D-01 -0.509680D-01  0.150290D-02
     35 -0.207193D-02 -0.104470D-01  0.118621D-01  0.156839D-02 -0.141277D+00
     36  0.130075D-02  0.161386D-02  0.136283D-02 -0.944859D-03  0.965426D-01
                6             7             8             9            10 
      6  0.536621D+00
      7 -0.505021D-03  0.486027D+00
      8  0.735935D-02  0.424924D-01  0.491680D+00
      9 -0.748378D-01  0.628126D-02 -0.131118D-02  0.533383D+00
     10  0.215747D-02 -0.462924D-02 -0.484432D-02 -0.148773D-03  0.192666D+00
     11  0.131923D-02 -0.217822D-02 -0.120209D-02 -0.577227D-03 -0.119867D+00
     12 -0.164188D-02  0.689073D-04 -0.733558D-05  0.253263D-03 -0.138651D-01
     13  0.252714D-01  0.212031D-02 -0.928173D-03  0.921303D-03  0.173398D-02
     14  0.138485D-01  0.125340D-02  0.512739D-03 -0.709320D-03 -0.163525D-02
     15 -0.100874D-02 -0.199840D-03 -0.331066D-03  0.161285D-03 -0.917348D-03
     16 -0.257282D-01  0.809195D-03  0.199936D-03 -0.390584D-03  0.315850D-02
     17 -0.135270D-01  0.961794D-03  0.104121D-03 -0.172679D-03 -0.282411D-02
     18 -0.959407D-03  0.607183D-03 -0.620848D-04 -0.332568D-03  0.478484D-03
     19 -0.213377D-01 -0.512290D-01 -0.219261D-02  0.327387D-02  0.226848D-03
     20  0.177548D-01 -0.144523D-02 -0.138269D+00  0.107132D+00 -0.121617D-03
     21  0.757455D-03  0.136230D-02  0.108511D+00 -0.183312D+00 -0.873817D-04
     22  0.335464D-03 -0.216277D+00 -0.949705D-01  0.288498D-02 -0.147441D-02
     23 -0.759026D-03 -0.984999D-01 -0.107049D+00  0.175128D-02  0.124612D-02
     24 -0.175326D-02  0.186433D-02  0.205379D-02 -0.520923D-01  0.889194D-04
     25  0.208339D-01 -0.518257D-01 -0.100962D-01 -0.180564D-01  0.362107D-03
     26 -0.169620D-01 -0.817865D-02 -0.109347D+00 -0.966891D-01 -0.816115D-04
     27 -0.326961D-02 -0.155945D-01 -0.981891D-01 -0.212342D+00  0.943864D-04
     28  0.699297D-02  0.345381D-02  0.134914D-01  0.225662D-01  0.208627D-02
     29 -0.638059D-01  0.407006D-03 -0.241874D-01 -0.341379D-01  0.119683D-02
     30 -0.207955D+00  0.752541D-02 -0.196365D-01 -0.168583D-01  0.501285D-03
     31 -0.131663D-01 -0.164932D-03  0.310710D-02  0.305058D-02  0.930043D-04
     32 -0.130046D-01 -0.402755D-03  0.181123D-02  0.962677D-03 -0.480432D-03
     33  0.664104D-02 -0.206012D-02 -0.637965D-03  0.250678D-03  0.709231D-04
     34  0.205262D-02 -0.113889D-02  0.191684D-01 -0.185885D-01  0.112939D-02
     35  0.108600D+00  0.814390D-03 -0.136423D-01  0.151443D-01 -0.338965D-04
     36 -0.169664D+00 -0.507176D-03 -0.563628D-04  0.344675D-02  0.258563D-03
               11            12            13            14            15 
     11  0.160039D+00
     12  0.112977D-01  0.515106D-01
     13  0.137711D-01 -0.186880D-01  0.554791D-01
     14 -0.125739D-01  0.152783D-01  0.963264D-02  0.150776D+00
     15 -0.235531D-02  0.243338D-02 -0.942382D-02 -0.121605D+00  0.196193D+00
     16  0.108390D-01  0.205167D-01 -0.907694D-03  0.130083D-02  0.128355D-02
     17 -0.102541D-01 -0.166828D-01  0.237679D-02  0.115898D-01  0.170064D-01
     18 -0.341692D-03 -0.121802D-02 -0.219321D-02 -0.122887D-01 -0.186853D-01
     19 -0.283043D-03  0.317702D-03 -0.337176D-03 -0.329533D-03  0.503457D-03
     20  0.108414D-03 -0.284112D-03  0.520703D-03  0.758194D-03 -0.253813D-03
     21 -0.238205D-03  0.208624D-03 -0.516889D-03 -0.120194D-03  0.207053D-03
     22 -0.839357D-03  0.665968D-04  0.230636D-03  0.434065D-04  0.244300D-04
     23  0.616626D-03 -0.662334D-04  0.183107D-03  0.482595D-05 -0.217261D-03
     24  0.156069D-04  0.627344D-03 -0.363688D-03 -0.245373D-03  0.229070D-03
     25 -0.584686D-04 -0.194849D-03 -0.139806D-03 -0.148717D-04  0.501467D-04
     26 -0.602218D-04  0.328189D-03  0.842271D-04  0.838337D-04  0.106935D-03
     27  0.210823D-03  0.313242D-03  0.239167D-04 -0.110014D-03  0.000000D+00
     28  0.585230D-03 -0.119461D-03  0.132791D-02  0.615186D-03  0.371620D-03
     29  0.104591D-02  0.574283D-03  0.116754D-02  0.798519D-03  0.365224D-04
     30  0.440558D-03  0.467300D-03  0.274785D-03  0.721281D-03  0.100844D-02
     31  0.311849D-03  0.393532D-04 -0.153813D-03 -0.423477D-04  0.130379D-04
     32  0.280607D-03  0.000000D+00 -0.121523D-03 -0.161429D-03 -0.351110D-05
     33  0.318543D-03 -0.647780D-04 -0.792127D-03 -0.789899D-03  0.211338D-04
     34  0.675465D-03  0.256584D-03 -0.459240D-02 -0.306630D-02  0.730196D-04
     35  0.107963D-02 -0.408976D-03 -0.271993D-02 -0.443829D-03 -0.319681D-03
     36 -0.110901D-03 -0.497650D-05 -0.478910D-03 -0.683531D-03  0.138155D-02
               16            17            18            19            20 
     16  0.555486D-01
     17  0.140390D-01  0.114785D+00
     18  0.205494D-01  0.108769D+00  0.231997D+00
     19 -0.113833D-03 -0.102265D-04 -0.196448D-04  0.533977D-01
     20  0.200098D-04  0.815286D-04 -0.104325D-03 -0.148354D-02  0.151025D+00
     21  0.473101D-05  0.123838D-03  0.426964D-05 -0.193491D-02 -0.121820D+00
     22  0.386767D-03  0.515031D-04 -0.738742D-04  0.977124D-03  0.451147D-03
     23 -0.308477D-04 -0.749083D-04  0.186794D-03 -0.160415D-01 -0.947610D-02
     24  0.232701D-03  0.276415D-03  0.321053D-03  0.214984D-01  0.114655D-01
     25 -0.894910D-03  0.127314D-03 -0.846578D-05 -0.103787D-02  0.127124D-03
     26  0.211439D-03  0.556579D-03  0.270690D-03  0.178288D-02  0.118061D-01
     27  0.239670D-03  0.263150D-03  0.699832D-03 -0.204521D-02 -0.125040D-01
     28 -0.457786D-02 -0.311092D-02  0.118633D-03  0.981470D-03 -0.877504D-03
     29 -0.258710D-02 -0.128141D-02 -0.917775D-04 -0.125062D-02  0.216427D-02
     30  0.144215D-02  0.102964D-02  0.166634D-02 -0.463914D-03  0.384781D-03
     31 -0.129476D-02 -0.664968D-03  0.173418D-03  0.246055D-03 -0.279286D-03
     32 -0.195808D-02 -0.455814D-03  0.383495D-03 -0.454903D-03 -0.651798D-03
     33 -0.122372D-02 -0.742753D-03 -0.182753D-05  0.352960D-03 -0.412631D-03
     34  0.951849D-03  0.447038D-03 -0.451373D-03 -0.347641D-02  0.342349D-02
     35  0.141712D-03 -0.177353D-04 -0.235229D-03  0.305788D-02 -0.177625D-02
     36  0.444440D-03  0.302305D-03  0.485940D-03  0.881960D-03 -0.939071D-03
               21            22            23            24            25 
     21  0.197545D+00
     22  0.457814D-03  0.240551D+00
     23 -0.817563D-03  0.105432D+00  0.113681D+00
     24  0.171954D-03 -0.221308D-02 -0.176272D-02  0.509741D-01
     25  0.584114D-03 -0.109289D-02 -0.129467D-01 -0.235074D-01  0.541205D-01
     26  0.167487D-01 -0.539169D-03 -0.804517D-02 -0.123215D-01  0.927216D-02
     27 -0.185905D-01 -0.570836D-03  0.868510D-03  0.960209D-03  0.187869D-01
     28 -0.137525D-03  0.909031D-03 -0.924375D-03  0.414443D-03 -0.339742D-02
     29  0.365448D-03 -0.118840D-02  0.216035D-02  0.110911D-02  0.453401D-02
     30  0.163957D-02 -0.113803D-02  0.137882D-02  0.355064D-03  0.201599D-02
     31 -0.201779D-03  0.139659D-02 -0.414658D-04 -0.147934D-03  0.952446D-05
     32 -0.189766D-05 -0.168540D-03 -0.385643D-03 -0.118057D-03 -0.361332D-03
     33 -0.546982D-04 -0.264654D-03  0.199602D-03 -0.794150D-04 -0.210552D-03
     34  0.544011D-03  0.987320D-03 -0.933465D-03 -0.394032D-03  0.870424D-03
     35 -0.742302D-03 -0.963906D-04  0.109764D-02 -0.393231D-03 -0.250450D-03
     36  0.121408D-02 -0.691320D-04  0.530252D-04  0.510371D-04 -0.523644D-03
               26            27            28            29            30 
     26  0.117189D+00
     27  0.109990D+00  0.230544D+00
     28  0.335859D-02  0.229469D-03  0.230085D+00
     29 -0.435686D-02 -0.989313D-03  0.196205D+00  0.330642D+00
     30 -0.166605D-02  0.159149D-02 -0.599558D-01  0.585997D-01  0.320063D+00
     31  0.825200D-03  0.326327D-03 -0.170105D+00 -0.191384D+00  0.345761D-01
     32  0.789298D-03  0.460412D-03 -0.180565D+00 -0.221204D+00  0.207707D-01
     33 -0.266243D-03 -0.101434D-04  0.629178D-01  0.538083D-01 -0.630282D-01
     34 -0.482783D-03  0.402289D-03 -0.200940D-02 -0.174353D-02 -0.107302D-02
     35  0.125338D-03 -0.353838D-03 -0.494201D-02  0.584573D-02 -0.219686D-01
     36  0.643759D-03  0.339849D-03 -0.332632D-02  0.535895D-02 -0.370760D-01
               31            32            33            34            35 
     31  0.187570D+00
     32  0.221478D+00  0.272898D+00
     33 -0.252377D-01 -0.805422D-02  0.560542D-01
     34  0.984924D-03  0.171861D-03 -0.285810D-02  0.607376D-01
     35  0.286735D-02  0.316390D-02 -0.404758D-02  0.166489D-02  0.156292D+00
     36  0.470466D-02  0.441268D-02  0.368858D-02 -0.174033D-02 -0.107137D+00
               36 
     36  0.194775D+00
 FormGI is forming the generalized inverse of G from B-inverse, IUseBI=4.
 Leave Link  716 at Thu Apr  7 11:26:04 2022, MaxMem=  1073741824 cpu:               0.2 elap:               0.0
 (Enter /home/saurabh/gaussian/g16/l103.exe)

 GradGradGradGradGradGradGradGradGradGradGradGradGradGradGradGradGradGrad
 Berny optimization.
 Red2BG is reusing G-inverse.
 Internal  Forces:  Max     0.039219486 RMS     0.008679863
 Search for a local minimum.
 Step number   1 out of a maximum of  100
 All quantities printed in internal units (Hartrees-Bohrs-Radians)
 RMS Force = .86799D-02 SwitMx=.10000D-02 MixMth= 1
 Mixed Optimization -- RFO/linear search
 Second derivative matrix not updated -- analytic derivatives used.
 ITU=  0
     Eigenvalues ---    0.00206   0.00286   0.00464   0.04216   0.04302
     Eigenvalues ---    0.04357   0.04446   0.04639   0.05374   0.06032
     Eigenvalues ---    0.11704   0.12017   0.12416   0.13105   0.14303
     Eigenvalues ---    0.14785   0.17820   0.19632   0.26260   0.27857
     Eigenvalues ---    0.28569   0.29601   0.29701   0.29808   0.30198
     Eigenvalues ---    0.30586   0.30678   0.32134   0.36283   0.56499
 RFO step:  Lambda=-1.25140950D-02 EMin= 2.05519295D-03
 Linear search not attempted -- first point.
 Iteration  1 RMS(Cart)=  0.03533644 RMS(Int)=  0.00183524
 Iteration  2 RMS(Cart)=  0.00197554 RMS(Int)=  0.00085215
 Iteration  3 RMS(Cart)=  0.00000326 RMS(Int)=  0.00085215
 Iteration  4 RMS(Cart)=  0.00000000 RMS(Int)=  0.00085215
 ITry= 1 IFail=0 DXMaxC= 1.19D-01 DCOld= 1.00D+10 DXMaxT= 3.00D-01 DXLimC= 3.00D+00 Rises=F
 Variable       Old X    -DE/DX   Delta X   Delta X   Delta X     New X
                                 (Linear)    (Quad)   (Total)
    R1        2.88776  -0.00007   0.00000  -0.01898  -0.01898   2.86878
    R2        2.09912  -0.01233   0.00000  -0.04116  -0.04116   2.05796
    R3        2.10003  -0.01236   0.00000  -0.03994  -0.03994   2.06009
    R4        2.09970  -0.01411   0.00000  -0.04151  -0.04151   2.05820
    R5        2.89496  -0.00344   0.00000  -0.02345  -0.02345   2.87151
    R6        2.66050   0.02734   0.00000   0.08819   0.08819   2.74868
    R7        2.10980  -0.01607   0.00000  -0.05192  -0.05192   2.05788
    R8        2.09978  -0.01249   0.00000  -0.03924  -0.03924   2.06054
    R9        2.09836  -0.01262   0.00000  -0.04152  -0.04152   2.05684
   R10        2.09941  -0.01329   0.00000  -0.03975  -0.03975   2.05966
   R11        2.49504   0.00920   0.00000  -0.00715  -0.00715   2.48789
    A1        1.91649   0.00331   0.00000   0.01960   0.01954   1.93603
    A2        1.92913   0.00236   0.00000   0.00676   0.00666   1.93579
    A3        1.92629  -0.00207   0.00000  -0.01319  -0.01316   1.91312
    A4        1.89661  -0.00219   0.00000  -0.00288  -0.00305   1.89356
    A5        1.89266  -0.00062   0.00000  -0.00032  -0.00026   1.89240
    A6        1.90199  -0.00088   0.00000  -0.01015  -0.01017   1.89182
    A7        1.92777   0.00568   0.00000   0.05528   0.05372   1.98149
[...]
   D16        3.11894   0.00001   0.00000   0.00010   0.00010   3.11903
   D17        1.01256   0.00001   0.00000   0.00010   0.00010   1.01266
   D18       -1.07370   0.00001   0.00000   0.00009   0.00009  -1.07361
   D19       -2.88268  -0.00001   0.00000  -0.00087  -0.00087  -2.88355
   D20        1.24542   0.00000   0.00000  -0.00085  -0.00085   1.24458
   D21       -0.82793  -0.00001   0.00000  -0.00096  -0.00096  -0.82888
         Item               Value     Threshold  Converged?
 Maximum Force            0.000035     0.000450     YES
 RMS     Force            0.000008     0.000300     YES
 Maximum Displacement     0.000787     0.001800     YES
 RMS     Displacement     0.000317     0.001200     YES
 Predicted change in Energy=-2.295988D-08
 Optimization completed.
    -- Stationary point found.
                           ----------------------------
                           !   Optimized Parameters   !
                           ! (Angstroms and Degrees)  !
 --------------------------                            --------------------------
 ! Name  Definition              Value          Derivative Info.                !
 --------------------------------------------------------------------------------
 ! R1    R(1,2)                  1.5154         -DE/DX =    0.0                 !
 ! R2    R(1,4)                  1.0893         -DE/DX =    0.0                 !
 ! R3    R(1,5)                  1.0905         -DE/DX =    0.0                 !
 ! R4    R(1,6)                  1.09           -DE/DX =    0.0                 !
 ! R5    R(2,3)                  1.5165         -DE/DX =    0.0                 !
 ! R6    R(2,10)                 1.4756         -DE/DX =    0.0                 !
 ! R7    R(2,12)                 1.0902         -DE/DX =    0.0                 !
 ! R8    R(3,7)                  1.0908         -DE/DX =    0.0                 !
 ! R9    R(3,8)                  1.0885         -DE/DX =    0.0                 !
 ! R10   R(3,9)                  1.0906         -DE/DX =    0.0                 !
 ! R11   R(10,11)                1.315          -DE/DX =    0.0                 !
 ! A1    A(2,1,4)              111.0679         -DE/DX =    0.0                 !
 ! A2    A(2,1,5)              110.784          -DE/DX =    0.0                 !
 ! A3    A(2,1,6)              109.6956         -DE/DX =    0.0                 !
 ! A4    A(4,1,5)              108.6068         -DE/DX =    0.0                 !
 ! A5    A(4,1,6)              108.3863         -DE/DX =    0.0                 !
 ! A6    A(5,1,6)              108.2195         -DE/DX =    0.0                 !
 ! A7    A(1,2,3)              114.5286         -DE/DX =    0.0                 !
 ! A8    A(1,2,10)             105.3675         -DE/DX =    0.0                 !
 ! A9    A(1,2,12)             111.3004         -DE/DX =    0.0                 !
 ! A10   A(3,2,10)             109.1996         -DE/DX =    0.0                 !
 ! A11   A(3,2,12)             110.6394         -DE/DX =    0.0                 !
 ! A12   A(10,2,12)            105.2329         -DE/DX =    0.0                 !
 ! A13   A(2,3,7)              110.7567         -DE/DX =    0.0                 !
 ! A14   A(2,3,8)              110.2528         -DE/DX =    0.0                 !
 ! A15   A(2,3,9)              109.9031         -DE/DX =    0.0                 !
 ! A16   A(7,3,8)              108.9676         -DE/DX =    0.0                 !
 ! A17   A(7,3,9)              108.4237         -DE/DX =    0.0                 !
 ! A18   A(8,3,9)              108.4811         -DE/DX =    0.0                 !
 ! A19   A(2,10,11)            112.0275         -DE/DX =    0.0                 !
 ! D1    D(4,1,2,3)            178.3597         -DE/DX =    0.0                 !
 ! D2    D(4,1,2,10)            58.3398         -DE/DX =    0.0                 !
 ! D3    D(4,1,2,12)           -55.2147         -DE/DX =    0.0                 !
 ! D4    D(5,1,2,3)             57.5667         -DE/DX =    0.0                 !
 ! D5    D(5,1,2,10)           -62.4532         -DE/DX =    0.0                 !
 ! D6    D(5,1,2,12)          -176.0077         -DE/DX =    0.0                 !
 ! D7    D(6,1,2,3)            -61.844          -DE/DX =    0.0                 !
 ! D8    D(6,1,2,10)           178.1361         -DE/DX =    0.0                 !
 ! D9    D(6,1,2,12)            64.5816         -DE/DX =    0.0                 !
 ! D10   D(1,2,3,7)            -54.5313         -DE/DX =    0.0                 !
 ! D11   D(1,2,3,8)           -175.2179         -DE/DX =    0.0                 !
 ! D12   D(1,2,3,9)             65.2484         -DE/DX =    0.0                 !
 ! D13   D(10,2,3,7)            63.3318         -DE/DX =    0.0                 !
 ! D14   D(10,2,3,8)           -57.3547         -DE/DX =    0.0                 !
 ! D15   D(10,2,3,9)          -176.8884         -DE/DX =    0.0                 !
 ! D16   D(12,2,3,7)           178.7019         -DE/DX =    0.0                 !
 ! D17   D(12,2,3,8)            58.0154         -DE/DX =    0.0                 !
 ! D18   D(12,2,3,9)           -61.5183         -DE/DX =    0.0                 !
 ! D19   D(1,2,10,11)         -165.1654         -DE/DX =    0.0                 !
 ! D20   D(3,2,10,11)           71.3575         -DE/DX =    0.0                 !
 ! D21   D(12,2,10,11)         -47.4366         -DE/DX =    0.0                 !
 --------------------------------------------------------------------------------
 GradGradGradGradGradGradGradGradGradGradGradGradGradGradGradGradGradGrad

 Leave Link  103 at Thu Apr  7 11:32:35 2022, MaxMem=  1073741824 cpu:               0.1 elap:               0.0
 (Enter /home/saurabh/gaussian/g16/l9999.exe)

 ----------------------------------------------------------------------

 Electric dipole moment (input orientation):
 (Debye = 10**-18 statcoulomb cm , SI units = C m)
                  (au)            (Debye)         (10**-30 SI)
   Tot        0.115607D+01      0.293845D+01      0.980160D+01
   x         -0.374565D+00     -0.952049D+00     -0.317569D+01
   y         -0.841294D+00     -0.213836D+01     -0.713279D+01
   z         -0.698879D+00     -0.177637D+01     -0.592534D+01

 Dipole polarizability, Alpha (input orientation).
 (esu units = cm**3 , SI units = C**2 m**2 J**-1)
 Alpha(0;0):
               (au)            (10**-24 esu)      (10**-40 SI)
   iso        0.463490D+02      0.686821D+01      0.764191D+01
   aniso      0.141179D+02      0.209206D+01      0.232773D+01
   xx         0.488283D+02      0.723561D+01      0.805070D+01
   yx         0.513915D+01      0.761544D+00      0.847332D+00
   yy         0.490634D+02      0.727044D+01      0.808946D+01
   zx         0.140296D+01      0.207898D+00      0.231317D+00
   zy         0.422075D+01      0.625450D+00      0.695908D+00
   zz         0.411553D+02      0.609858D+01      0.678559D+01

 ----------------------------------------------------------------------

 Dipole orientation:
     6         -6.39195360         -2.26422301          0.40483386
     6         -4.16705209         -2.87194044         -1.29246346
     6         -1.76341458         -1.44536706         -0.65972408
     1         -8.07130305         -3.30333524         -0.17602897
     1         -6.81744278         -0.24843357          0.35904262
     1         -5.94565403         -2.78426409          2.34730422
     1         -2.10608602          0.58706207         -0.63157713
     1         -0.30377839         -1.85810363         -2.04901879
     1         -1.07724038         -2.01600583          1.19798486
     8         -4.99127288         -2.18395081         -3.86601611
     8         -3.50078797         -3.14086727         -5.60904490
     1         -3.81090924         -4.89994933         -1.36214755

 Electric dipole moment (dipole orientation):
 (Debye = 10**-18 statcoulomb cm , SI units = C m)
                  (au)            (Debye)         (10**-30 SI)
   Tot        0.115607D+01      0.293845D+01      0.980160D+01
   x          0.000000D+00      0.000000D+00      0.000000D+00
   y          0.000000D+00      0.000000D+00      0.000000D+00
   z          0.115607D+01      0.293845D+01      0.980160D+01

 Dipole polarizability, Alpha (dipole orientation).
 (esu units = cm**3 , SI units = C**2 m**2 J**-1)
 Alpha(0;0):
               (au)            (10**-24 esu)      (10**-40 SI)
   iso        0.463490D+02      0.686821D+01      0.764191D+01
   aniso      0.141179D+02      0.209206D+01      0.232773D+01
   xx         0.461686D+02      0.684149D+01      0.761218D+01
   yx        -0.144232D+00     -0.213730D-01     -0.237807D-01
   yy         0.400430D+02      0.593377D+01      0.660221D+01
   zx        -0.400351D+01     -0.593259D+00     -0.660089D+00
   zy         0.307494D+01      0.455659D+00      0.506989D+00
   zz         0.528353D+02      0.782938D+01      0.871136D+01

 ----------------------------------------------------------------------
 Unable to Open any file for archive entry.
 1\1\GINC-MEDIAWIKI\Freq\UB3LYP\CC-pVTZ\C3H7O2(2)\SAURABH\07-Apr-2022\0
 \\#P Geom=AllCheck Guess=TCheck SCRF=Check GenChk UB3LYP/CC-pVTZ Freq\
 \Mol_02\\0,2\C,-3.4066579404,1.1438615832,0.0944738172\C,-2.0625697916
 ,1.8399167213,0.0219528835\C,-0.8713891223,0.9035935947,-0.0432097199\
 H,-4.2184025519,1.8665227247,0.1680681915\H,-3.4524870491,0.4799374383
 ,0.9583361492\H,-3.5594166045,0.5454957374,-0.8037092939\H,-0.88764312
 7,0.1988574258,0.7892081336\H,0.0565862313,1.4714216556,-0.0079697526\
 H,-0.8949182168,0.3371539557,-0.9748891621\O,-1.9754544492,2.651152353
 2,1.2514915977\O,-1.0138898109,3.5457258539,1.1850440239\H,-2.03218806
 96,2.5580338573,-0.7977846454\\Version=ES64L-G16RevC.01\State=2-A\HF=-
 268.9608441\S2=0.753924\S2-1=0.\S2A=0.75001\RMSD=1.163e-09\RMSF=1.122e
 -05\ZeroPoint=0.09909\Thermal=0.1053403\ETot=-268.8555038\HTot=-268.85
 45596\GTot=-268.8917217\Dipole=-0.3745647,-0.841294,-0.6988787\DipoleD
 eriv=-0.0554215,-0.0518582,-0.0097374,-0.0363569,0.0307296,-0.03282,-0
 .0046666,-0.0541556,0.0622741,0.4856536,0.0357395,0.0479598,0.0353941,
 0.4809537,0.1142462,0.0850669,0.1951113,0.3883643,-0.1077844,0.0302829
 ,-0.0000087,0.0219095,0.0149714,-0.0354218,-0.0431132,-0.0613738,0.068
 3064,-0.0697579,0.064075,0.0082073,0.0973559,-0.014905,-0.0022728,0.02
 7588,0.0034062,0.0801022,0.0413986,0.0103605,-0.0283706,-0.0178977,0.0
 052972,0.0807803,0.0220188,0.1066616,-0.0407196,0.0531392,-0.0208018,0
 .0032357,-0.0317147,0.0088433,-0.0803105,-0.0201603,-0.087043,-0.05399
 61,0.0481663,-0.0097861,0.0355249,0.0250318,-0.0128875,0.0727314,0.000
 9184,0.1126736,-0.0426274,-0.065743,-0.0255983,0.0050888,-0.072947,0.0
 235806,0.0061977,-0.0160636,0.004932,0.0782036,0.0779915,0.0234724,-0.
 018724,0.0082307,0.0028069,-0.0800178,-0.0084193,-0.0928541,-0.070968,
 -0.3579079,-0.1500489,0.0281144,-0.1202908,-0.3334968,-0.0194236,0.009
 7334,-0.0842423,-0.2087061,-0.0444222,0.1097439,-0.0786733,0.0998331,-
 0.1200542,-0.1121747,-0.0197364,-0.0430686,-0.2094204,-0.0053124,-0.01
 5581,0.0073831,-0.0085481,-0.0858391,0.0884856,-0.033166,-0.0000474,-0
 .050813\Polar=48.8283021,5.139151,49.0633672,1.4029629,4.2207491,41.15
 5269\Quadrupole=0.7767323,-0.9379014,0.1611691,-1.0379039,-0.1024057,-
 1.1772903\PG=C01 [X(C3H7O2)]\NImag=0\\0.49931132,-0.04395977,0.5544736
 4,0.00388651,0.00423306,0.57078259,-0.17054167,-0.04235651,0.01737336,
 0.49935131,-0.04465557,-0.10111436,0.01563143,0.01683984,0.49463690,0.
 00996019,0.00890451,-0.08210585,-0.02428442,-0.12908979,0.47399739,-0.
 03007790,0.01909839,0.00132578,-0.14949085,0.05193995,-0.00356399,0.51
 254672,-0.01063038,0.01345319,0.00201365,0.05150638,-0.11985740,0.0098
 1372,0.05536613,0.53500886,0.00192137,0.00128457,0.00193405,-0.0057895
 2,0.00924503,-0.07447469,0.00512854,-0.00326421,0.57060286,-0.19066859
 ,0.12924254,0.01273168,-0.02304398,0.02146205,0.00175331,-0.00419188,-
 0.00494122,-0.00007004,0.20965531,0.13235826,-0.16831093,-0.01072106,-
 0.01350878,0.01207002,0.00111127,-0.00235060,-0.00148996,-0.00047247,-
 0.14221311,0.17940245,0.01347980,-0.01044466,-0.04873570,0.00058845,-0
 .00162656,-0.00212425,0.00023905,0.00034086,0.00040605,-0.01513966,0.0
 1217222,0.04747241,-0.04900111,-0.00325918,0.00509949,-0.00193707,-0.0
 1981790,0.02715655,0.00214708,-0.00065000,0.00086507,0.00139075,0.0132
 8964,-0.01996993,0.05201813,-0.00412812,-0.14272183,0.12565634,-0.0019
 3050,-0.01243158,0.01348200,0.00105492,0.00050096,-0.00085269,-0.00139
 349,-0.01265803,0.01709993,0.00754990,0.15323588,0.00716471,0.12650021
 ,-0.21200977,0.00020486,0.00082590,-0.00191596,-0.00020797,-0.00027875
 ,0.00021841,-0.00079383,-0.00247570,0.00272112,-0.00801808,-0.14015163
 ,0.22852222,-0.05165787,-0.01923745,-0.02840571,-0.00201497,-0.0136527
 8,-0.02640942,0.00117985,0.00051948,-0.00008765,0.00437735,0.01217886,
 0.02077012,-0.00087077,0.00109121,0.00086811,0.05453761,-0.02033651,-0
 .12454275,-0.11943022,0.00000991,-0.00892358,-0.01328343,0.00080669,0.
 00020487,-0.00012103,-0.00394252,-0.01164914,-0.01736106,0.00330724,0.
 01242362,0.01657725,0.02332657,0.13351607,-0.03010851,-0.11995030,-0.2
 2655047,0.00070047,0.00151023,0.00048169,0.00032704,-0.00003527,-0.000
 13543,0.00044778,-0.00002691,-0.00106112,-0.00335880,-0.01453219,-0.02
 006120,0.03204844,0.13219466,0.24468552,0.00188009,0.00033009,-0.00100
 291,-0.00065324,0.01829219,-0.02298796,-0.04880812,-0.00555303,0.00669
 207,0.00026291,-0.00023729,0.00030632,-0.00033103,-0.00030903,0.000519
 65,-0.00011393,-0.00001005,-0.00003911,0.05065398,-0.00136870,0.000631
 60,-0.00050806,0.00085861,-0.01663272,0.01719737,-0.00495795,-0.153833
 67,0.12734526,-0.00014454,0.00008742,-0.00027080,0.00056142,0.00070211
 ,-0.00027003,-0.00000536,0.00006586,-0.00010256,0.00168175,0.16674336,
 0.00004022,-0.00035049,0.00029880,-0.00001256,-0.00142048,0.00023112,0
 .00474382,0.12856475,-0.20050256,-0.00006090,-0.00022787,0.00019389,-0
 .00051346,-0.00007802,0.00019256,-0.00004352,0.00012078,-0.00004877,-0
 .00558604,-0.14235649,0.21526290,-0.00279217,0.00503151,0.00024963,-0.
 02449872,-0.01447793,-0.00009700,-0.23830153,-0.11846234,-0.00679100,-
 0.00140071,-0.00086196,0.00010106,0.00022997,0.00005949,0.00000167,0.0
 0036087,0.00001864,-0.00011686,0.00082638,0.00054906,0.00047130,0.2615
 4730,0.00280320,-0.00298310,-0.00088352,0.01964899,0.01219693,0.000882
 12,-0.12218144,-0.12258832,-0.00332825,0.00126753,0.00059711,-0.000172
 24,0.00014677,-0.00000598,-0.00019224,-0.00009692,-0.00011281,0.000150
 68,-0.01617006,-0.01030067,-0.00194573,0.12946427,0.13022773,0.0003743
 3,-0.00037544,0.00033579,0.00166945,-0.00029483,-0.00194813,-0.0082578
 2,-0.00287485,-0.04816753,0.00013257,-0.00002979,0.00056597,-0.0004018
 1,-0.00019566,0.00023724,0.00025026,0.00024453,0.00020992,0.02213305,0
 .01275702,0.00151297,0.00841417,0.00436658,0.04742295,0.00087102,-0.00
 080444,-0.00008371,0.00105668,0.01202634,0.02308456,-0.04663246,-0.003
 46272,-0.00690188,0.00030162,-0.00001802,-0.00028884,-0.00011687,0.000
 07813,0.00003824,-0.00075664,-0.00001977,-0.00009582,-0.00106394,0.000
 36565,0.00096376,0.00087496,-0.01322745,-0.02447751,0.04807076,-0.0008
 3311,0.00040097,0.00000191,-0.00344985,-0.01019306,-0.01729758,-0.0022
 6912,-0.11615047,-0.11512368,-0.00002834,-0.00007929,0.00025565,0.0000
 4187,0.00007551,0.00008652,0.00022927,0.00046823,0.00016707,0.00040804
 ,0.01251622,0.01804133,0.00062964,-0.00885852,-0.01383248,0.00179523,0
 .12454400,-0.00034508,0.00002220,-0.00013801,-0.00044384,0.00014950,-0
 .00247731,-0.00585615,-0.11621468,-0.23881183,0.00013777,0.00014234,0.
 00022618,-0.00001206,-0.00011596,0.00002364,0.00028887,0.00020337,0.00
 048647,-0.00073132,-0.01313453,-0.01983786,-0.00053116,0.00047052,-0.0
 0017213,0.00688474,0.12858712,0.25821496,-0.00770867,-0.02164925,-0.02
 965692,-0.06120734,-0.00136989,0.02500616,0.00292830,0.01342155,0.0223
 6348,0.00199943,0.00029089,-0.00034677,0.00140847,0.00068791,-0.000009
 47,-0.00485507,-0.00303000,0.00026130,0.00099984,-0.00070555,-0.000336
 58,0.00040398,-0.00124026,0.00050087,-0.00403475,0.00331672,-0.0002423
 2,0.29127007,-0.01058324,-0.01701395,-0.02012458,0.00719206,-0.0443661
 3,-0.02026325,0.00291613,-0.02287198,-0.03058971,0.00120746,0.00070339
 ,0.00028899,0.00125746,0.00102002,-0.00025681,-0.00240351,-0.00111790,
 0.00021669,-0.00130872,0.00218603,0.00036525,-0.00178886,0.00107587,0.
 00056901,0.00389039,-0.00378513,-0.00019216,0.19937649,0.26278043,-0.0
 0664859,-0.00435832,-0.00083915,0.03992210,-0.00054155,-0.13403566,0.0
 0730545,-0.01730650,-0.01641929,0.00052159,0.00019634,0.00047742,0.000
 24108,0.00081766,0.00098177,0.00180801,0.00139513,0.00132342,-0.000406
 41,0.00050566,0.00163389,-0.00115270,0.00059824,0.00034643,0.00205077,
 -0.00155787,0.00210448,-0.06580767,0.05067976,0.23981941,0.00230760,-0
 .00263119,-0.00442657,-0.01668103,-0.02186635,-0.01600676,-0.00054134,
 0.00311798,0.00267842,0.00014605,0.00027708,0.00012838,-0.00002666,0.0
 0009350,0.00012566,-0.00124234,-0.00061130,0.00050900,0.00018635,-0.00
 036833,-0.00006583,0.00170486,0.00041625,-0.00000706,0.00036242,0.0007
 5492,0.00037641,-0.22050397,-0.19905891,0.02450196,0.23286436,0.002202
 32,-0.00334710,-0.00694842,-0.03004235,-0.03825829,-0.00800479,-0.0002
 7339,0.00112537,0.00025554,-0.00038689,0.00036082,0.00013859,0.0001915
 5,0.00002673,0.00005562,-0.00213040,-0.00041295,0.00064895,-0.00048889
 ,-0.00078603,0.00001069,-0.00023778,-0.00029522,0.00003177,-0.00025015
 ,0.00076126,0.00042404,-0.18572449,-0.18415917,-0.00516358,0.21636430,
 0.22160745,-0.00048179,-0.00549651,-0.00541420,-0.03242462,-0.02227427
 ,0.01010595,-0.00084988,-0.00034684,0.00154418,0.00007510,0.00029572,-
 0.00014746,-0.00040084,-0.00055552,-0.00004626,-0.00168933,-0.00096660
 ,0.00034661,0.00014505,-0.00048448,-0.00012363,-0.00055707,-0.00009748
 ,-0.00037669,-0.00056113,0.00002911,-0.00002664,0.04803014,0.01502093,
 -0.05427070,-0.01046617,0.01534603,0.04373680,-0.00192205,-0.01980475,
 0.02290938,-0.05033912,-0.00471996,0.00638879,-0.00075787,0.01976817,-
 0.02000886,0.00117174,0.00079502,0.00013201,-0.00491089,-0.00285391,0.
 00010643,0.00105592,0.00048107,-0.00057491,-0.00383930,0.00353394,0.00
 039979,0.00104481,-0.00083087,-0.00033050,0.00106720,-0.00059527,0.000
 47414,-0.00070030,-0.00069675,-0.00233558,0.00142370,0.00077618,-0.000
 81945,0.05670617,-0.00086839,-0.00892538,0.01107947,-0.00476780,-0.167
 12672,0.13654785,0.00085029,-0.01350146,0.01562165,-0.00012948,0.00096
 615,-0.00042091,-0.00261876,-0.00016742,-0.00042034,0.00018102,0.00008
 048,-0.00024107,0.00336499,-0.00137952,-0.00072372,0.00007625,0.001046
 97,-0.00036584,-0.00037318,0.00030028,-0.00034176,-0.00337413,0.005548
 52,-0.02526496,0.00351206,0.00337713,-0.00047008,0.00414713,0.17978097
 ,0.00075684,0.00003118,0.00244192,0.00249629,0.12788539,-0.18573429,-0
 .00033387,-0.00041188,0.00380577,0.00026463,0.00003591,0.00000550,-0.0
 0068720,-0.00057425,0.00113623,0.00060182,0.00042662,0.00032336,0.0009
 5761,-0.00067835,0.00118668,0.00000796,0.00015134,0.00003321,-0.000613
 17,0.00064289,0.00040805,0.00023777,0.00428589,-0.04112202,0.00265255,
 0.00320558,0.00467204,-0.00634124,-0.13500031,0.21284356\\-0.00000579,
 0.00000840,0.00001803,-0.00000795,-0.00002622,-0.00002227,0.00001000,0
 .00000940,0.00001526,-0.00000514,0.00000058,-0.00000139,-0.00000062,-0
 .00000034,0.00000167,-0.00000046,-0.00000185,-0.00000206,0.00000064,-0
 .00000294,0.00000006,0.00000250,-0.00000095,0.00000130,-0.00000022,0.0
 0000084,-0.00000015,0.00000873,-0.00000667,-0.00002643,-0.00001075,-0.
 00000842,-0.00000551,0.00000905,0.00002816,0.00002150\\\@
 The archive entry for this job was punched.


 I WANT IT ALL - RICH, THIN, AND CHOCOLATE.
 Job cpu time:       0 days  0 hours 26 minutes  8.0 seconds.
 Elapsed time:       0 days  0 hours  3 minutes 17.9 seconds.
 File lengths (MBytes):  RWF=    113 Int=      0 D2E=      0 Chk=      8 Scr=      1
 Normal termination of Gaussian 16 at Thu Apr  7 11:32:35 2022.
