 Entering Gaussian System, Link 0=g16
 Input=Mol_03.com
 Output=Mol_03.log
 Initial command:
 /home/saurabh/gaussian/g16/l1.exe "/home/saurabh/gaussian/gauss_scr/Gau-22779.inp" -scrdir="/home/saurabh/gaussian/gauss_scr/"
 Entering Link 1 = /home/saurabh/gaussian/g16/l1.exe PID=     22780.
  
 Copyright (c) 1988-2019, Gaussian, Inc.  All Rights Reserved.
  
 This is part of the Gaussian(R) 16 program.  It is based on
 the Gaussian(R) 09 system (copyright 2009, Gaussian, Inc.),
 the Gaussian(R) 03 system (copyright 2003, Gaussian, Inc.),
 the Gaussian(R) 98 system (copyright 1998, Gaussian, Inc.),
 the Gaussian(R) 94 system (copyright 1995, Gaussian, Inc.),
 the Gaussian 92(TM) system (copyright 1992, Gaussian, Inc.),
 the Gaussian 90(TM) system (copyright 1990, Gaussian, Inc.),
 the Gaussian 88(TM) system (copyright 1988, Gaussian, Inc.),
 the Gaussian 86(TM) system (copyright 1986, Carnegie Mellon
 University), and the Gaussian 82(TM) system (copyright 1983,
 Carnegie Mellon University). Gaussian is a federally registered
 trademark of Gaussian, Inc.
  
 This software contains proprietary and confidential information,
 including trade secrets, belonging to Gaussian, Inc.
  
 This software is provided under written license and may be
 used, copied, transmitted, or stored only in accord with that
 written license.
  
 The following legend is applicable only to US Government
 contracts under FAR:
  
                    RESTRICTED RIGHTS LEGEND
  
 Use, reproduction and disclosure by the US Government is
 subject to restrictions as set forth in subparagraphs (a)
 and (c) of the Commercial Computer Software - Restricted
 Rights clause in FAR 52.227-19.
  
 Gaussian, Inc.
 340 Quinnipiac St., Bldg. 40, Wallingford CT 06492
  
  
 ---------------------------------------------------------------
 Warning -- This program may not be used in any manner that
 competes with the business of Gaussian, Inc. or will provide
 assistance to any competitor of Gaussian, Inc.  The licensee
 of this program is prohibited from giving any competitor of
 Gaussian, Inc. access to this program.  By using this program,
 the user acknowledges that Gaussian, Inc. is engaged in the
 business of creating and licensing software in the field of
 computational chemistry and represents and warrants to the
 licensee that it is not a competitor of Gaussian, Inc. and that
 it will not use this program in any manner prohibited above.
 ---------------------------------------------------------------
  

 Cite this work as:
 Gaussian 16, Revision C.01,
 M. J. Frisch, G. W. Trucks, H. B. Schlegel, G. E. Scuseria, 
 M. A. Robb, J. R. Cheeseman, G. Scalmani, V. Barone, 
 G. A. Petersson, H. Nakatsuji, X. Li, M. Caricato, A. V. Marenich, 
 J. Bloino, B. G. Janesko, R. Gomperts, B. Mennucci, H. P. Hratchian, 
 J. V. Ortiz, A. F. Izmaylov, J. L. Sonnenberg, D. Williams-Young, 
 F. Ding, F. Lipparini, F. Egidi, J. Goings, B. Peng, A. Petrone, 
 T. Henderson, D. Ranasinghe, V. G. Zakrzewski, J. Gao, N. Rega, 
 G. Zheng, W. Liang, M. Hada, M. Ehara, K. Toyota, R. Fukuda, 
 J. Hasegawa, M. Ishida, T. Nakajima, Y. Honda, O. Kitao, H. Nakai, 
 T. Vreven, K. Throssell, J. A. Montgomery, Jr., J. E. Peralta, 
 F. Ogliaro, M. J. Bearpark, J. J. Heyd, E. N. Brothers, K. N. Kudin, 
 V. N. Staroverov, T. A. Keith, R. Kobayashi, J. Normand, 
 K. Raghavachari, A. P. Rendell, J. C. Burant, S. S. Iyengar, 
 J. Tomasi, M. Cossi, J. M. Millam, M. Klene, C. Adamo, R. Cammi, 
 J. W. Ochterski, R. L. Martin, K. Morokuma, O. Farkas, 
 J. B. Foresman, and D. J. Fox, Gaussian, Inc., Wallingford CT, 2019.
 
 ******************************************
 Gaussian 16:  ES64L-G16RevC.01  3-Jul-2019
                 7-Apr-2022 
 ******************************************
 %mem=8gb
 %nproc=8
 Will use up to    8 processors via shared memory.
 %chk=Mol_03.chk
 ----------------------------------------------------------------------
 #p B3LYP/cc-PVTZ scf(verytight, maxcycles=1000) opt(calcfc, maxcyc=100
 0) freq(hpmodes) int(grid=ultrafine)
 ----------------------------------------------------------------------
 1/6=1000,10=4,18=20,19=15,26=4,38=1/1,3;
 2/9=110,12=2,17=6,18=5,40=1/2;
 3/5=16,6=1,11=2,25=1,30=1,71=2,74=-5,75=-5,140=1/1,2,3;
 4//1;
 5/5=2,7=1000,17=3,38=5/2;
 8/6=4,10=90,11=11/1;
 11/6=1,8=1,9=11,15=111,16=1/1,2,10;
 10/6=1,13=1/2;
 6/7=2,8=2,9=2,10=2,28=1/1;
 7/10=1,25=1/1,2,3,16;
 1/6=1000,10=4,18=20,19=15,26=4/3(2);
 2/9=110/2;
 99//99;
 2/9=110/2;
 3/5=16,6=1,11=2,25=1,30=1,71=1,74=-5,75=-5/1,2,3;
 4/5=5,16=3,69=1/1;
 5/5=2,7=1000,17=3,38=5/2;
 7//1,2,3,16;
 1/6=1000,18=20,19=15,26=4/3(-5);
 2/9=110/2;
 6/7=2,8=2,9=2,10=2,19=2,28=1/1;
 99/9=1/99;
 Leave Link    1 at Thu Apr  7 11:32:35 2022, MaxMem=  1073741824 cpu:               0.5 elap:               0.1
 (Enter /home/saurabh/gaussian/g16/l101.exe)
 ------
 Mol_03
 ------
 Symbolic Z-matrix:
 Charge =  0 Multiplicity = 2
 C                    -3.33996   1.20214   0.17603 
 C                    -1.97637   1.56893  -0.40733 
 C                    -1.04539   0.35594  -0.39768 
 H                    -4.00977   2.08795   0.15267 
 H                    -3.23481   0.86326   1.22916 
 H                    -3.80949   0.39026  -0.41977 
 H                    -0.86991  -0.00065   0.63992 
 H                    -1.46745  -0.46963  -1.00954 
 O                    -1.41955   2.60968   0.36072 
 O                    -0.5001    3.18788  -0.39174 
 H                    -2.14764   1.89935  -1.45906 
 H                     0.36414   2.93611   0.02414 
 
 ITRead=  0  0  0  0  0  0  0  0  0  0  0  0
 MicOpt= -1 -1 -1 -1 -1 -1 -1 -1 -1 -1 -1 -1
 NAtoms=     12 NQM=       12 NQMF=       0 NMMI=      0 NMMIF=      0
                NMic=       0 NMicF=      0.
                    Isotopes and Nuclear Properties:
 (Nuclear quadrupole moments (NQMom) in fm**2, nuclear magnetic moments (NMagM)
  in nuclear magnetons)

  Atom         1           2           3           4           5           6           7           8           9          10
 IAtWgt=          12          12          12           1           1           1           1           1          16          16
 AtmWgt=  12.0000000  12.0000000  12.0000000   1.0078250   1.0078250   1.0078250   1.0078250   1.0078250  15.9949146  15.9949146
 NucSpn=           0           0           0           1           1           1           1           1           0           0
 AtZEff=  -0.0000000  -0.0000000  -0.0000000  -0.0000000  -0.0000000  -0.0000000  -0.0000000  -0.0000000  -0.0000000  -0.0000000
 NQMom=    0.0000000   0.0000000   0.0000000   0.0000000   0.0000000   0.0000000   0.0000000   0.0000000   0.0000000   0.0000000
 NMagM=    0.0000000   0.0000000   0.0000000   2.7928460   2.7928460   2.7928460   2.7928460   2.7928460   0.0000000   0.0000000
 AtZNuc=   6.0000000   6.0000000   6.0000000   1.0000000   1.0000000   1.0000000   1.0000000   1.0000000   8.0000000   8.0000000

  Atom        11          12
 IAtWgt=           1           1
 AtmWgt=   1.0078250   1.0078250
 NucSpn=           1           1
 AtZEff=  -0.0000000  -0.0000000
 NQMom=    0.0000000   0.0000000
 NMagM=    2.7928460   2.7928460
 AtZNuc=   1.0000000   1.0000000
 Leave Link  101 at Thu Apr  7 11:32:35 2022, MaxMem=  1073741824 cpu:               1.4 elap:               0.2
 (Enter /home/saurabh/gaussian/g16/l103.exe)

 GradGradGradGradGradGradGradGradGradGradGradGradGradGradGradGradGradGrad
 Berny optimization.
 Initialization pass.
                           ----------------------------
                           !    Initial Parameters    !
                           ! (Angstroms and Degrees)  !
 --------------------------                            --------------------------
 ! Name  Definition              Value          Derivative Info.                !
 --------------------------------------------------------------------------------
 ! R1    R(1,2)                  1.5278         calculate D2E/DX2 analytically  !
 ! R2    R(1,4)                  1.1108         calculate D2E/DX2 analytically  !
 ! R3    R(1,5)                  1.1113         calculate D2E/DX2 analytically  !
 ! R4    R(1,6)                  1.1111         calculate D2E/DX2 analytically  !
 ! R5    R(2,3)                  1.5291         calculate D2E/DX2 analytically  !
 ! R6    R(2,9)                  1.4082         calculate D2E/DX2 analytically  !
 ! R7    R(2,11)                 1.1156         calculate D2E/DX2 analytically  !
 ! R8    R(3,7)                  1.1111         calculate D2E/DX2 analytically  !
 ! R9    R(3,8)                  1.1109         calculate D2E/DX2 analytically  !
 ! R10   R(9,10)                 1.3213         calculate D2E/DX2 analytically  !
 ! R11   R(10,12)                0.9916         calculate D2E/DX2 analytically  !
 ! A1    A(2,1,4)              109.7979         calculate D2E/DX2 analytically  !
 ! A2    A(2,1,5)              110.5246         calculate D2E/DX2 analytically  !
 ! A3    A(2,1,6)              110.3546         calculate D2E/DX2 analytically  !
 ! A4    A(4,1,5)              108.6726         calculate D2E/DX2 analytically  !
 ! A5    A(4,1,6)              108.4573         calculate D2E/DX2 analytically  !
 ! A6    A(5,1,6)              108.9849         calculate D2E/DX2 analytically  !
 ! A7    A(1,2,3)              110.5206         calculate D2E/DX2 analytically  !
 ! A8    A(1,2,9)              108.789          calculate D2E/DX2 analytically  !
 ! A9    A(1,2,11)             107.1002         calculate D2E/DX2 analytically  !
 ! A10   A(3,2,9)              110.0039         calculate D2E/DX2 analytically  !
 ! A11   A(3,2,11)             109.5334         calculate D2E/DX2 analytically  !
 ! A12   A(9,2,11)             110.8529         calculate D2E/DX2 analytically  !
 ! A13   A(2,3,7)              110.8931         calculate D2E/DX2 analytically  !
 ! A14   A(2,3,8)              110.7771         calculate D2E/DX2 analytically  !
 ! A15   A(7,3,8)              109.6236         calculate D2E/DX2 analytically  !
 ! A16   A(2,9,10)             106.7358         calculate D2E/DX2 analytically  !
 ! A17   A(9,10,12)            104.8646         calculate D2E/DX2 analytically  !
 ! D1    D(4,1,2,3)           -179.3617         calculate D2E/DX2 analytically  !
 ! D2    D(4,1,2,9)             59.7636         calculate D2E/DX2 analytically  !
 ! D3    D(4,1,2,11)           -60.1083         calculate D2E/DX2 analytically  !
 ! D4    D(5,1,2,3)             60.7636         calculate D2E/DX2 analytically  !
 ! D5    D(5,1,2,9)            -60.1111         calculate D2E/DX2 analytically  !
 ! D6    D(5,1,2,11)          -179.983          calculate D2E/DX2 analytically  !
 ! D7    D(6,1,2,3)            -59.8601         calculate D2E/DX2 analytically  !
 ! D8    D(6,1,2,9)            179.2652         calculate D2E/DX2 analytically  !
 ! D9    D(6,1,2,11)            59.3933         calculate D2E/DX2 analytically  !
 ! D10   D(1,2,3,7)            -61.4866         calculate D2E/DX2 analytically  !
 ! D11   D(1,2,3,8)             60.4721         calculate D2E/DX2 analytically  !
 ! D12   D(9,2,3,7)             58.6622         calculate D2E/DX2 analytically  !
 ! D13   D(9,2,3,8)           -179.379          calculate D2E/DX2 analytically  !
 ! D14   D(11,2,3,7)          -179.2571         calculate D2E/DX2 analytically  !
 ! D15   D(11,2,3,8)           -57.2983         calculate D2E/DX2 analytically  !
 ! D16   D(1,2,9,10)          -159.7922         calculate D2E/DX2 analytically  !
 ! D17   D(3,2,9,10)            79.0161         calculate D2E/DX2 analytically  !
 ! D18   D(11,2,9,10)          -42.2785         calculate D2E/DX2 analytically  !
 ! D19   D(2,9,10,12)         -109.6889         calculate D2E/DX2 analytically  !
 --------------------------------------------------------------------------------
 Trust Radius=3.00D-01 FncErr=1.00D-07 GrdErr=1.00D-06 EigMax=2.50D+02 EigMin=1.00D-04
 Number of steps in this run=    100 maximum allowed number of steps=    100.
 GradGradGradGradGradGradGradGradGradGradGradGradGradGradGradGradGradGrad

 Leave Link  103 at Thu Apr  7 11:32:35 2022, MaxMem=  1073741824 cpu:               0.1 elap:               0.0
 (Enter /home/saurabh/gaussian/g16/l202.exe)
                          Input orientation:                          
 ---------------------------------------------------------------------
 Center     Atomic      Atomic             Coordinates (Angstroms)
 Number     Number       Type             X           Y           Z
 ---------------------------------------------------------------------
      1          6           0       -3.339956    1.202136    0.176034
      2          6           0       -1.976373    1.568927   -0.407326
      3          6           0       -1.045388    0.355938   -0.397681
      4          1           0       -4.009766    2.087948    0.152675
      5          1           0       -3.234815    0.863255    1.229157
      6          1           0       -3.809490    0.390263   -0.419771
      7          1           0       -0.869915   -0.000650    0.639921
      8          1           0       -1.467450   -0.469632   -1.009535
      9          8           0       -1.419551    2.609681    0.360719
     10          8           0       -0.500101    3.187882   -0.391738
     11          1           0       -2.147643    1.899348   -1.459056
     12          1           0        0.364136    2.936111    0.024142
 ---------------------------------------------------------------------
                    Distance matrix (angstroms):
                    1          2          3          4          5
     1  C    0.000000
     2  C    1.527810   0.000000
     3  C    2.512020   1.529107   0.000000
     4  H    1.110790   2.172020   3.477109   0.000000
     5  H    1.111289   2.181679   2.774449   1.805335   0.000000
     6  H    1.111117   2.179385   2.764403   1.802758   1.809126
     7  H    2.786214   2.187361   1.111110   3.802409   2.585785
     8  H    2.776087   2.185722   1.110886   3.788841   3.148319
     9  O    2.388147   1.408230   2.407182   2.650415   2.664464
    10  O    3.511457   2.191036   2.883969   3.718062   3.938255
    11  H    2.140382   1.115638   2.173383   2.469970   3.079273
    12  H    4.092682   2.744693   2.970183   4.457233   4.324493
                    6          7          8          9         10
     6  H    0.000000
     7  H    3.149105   0.000000
     8  H    2.563668   1.815956   0.000000
     9  O    3.353623   2.682142   3.370766   0.000000
    10  O    4.333533   3.371620   3.833386   1.321324   0.000000
    11  H    2.473699   3.106169   2.505354   2.084771   2.348166
    12  H    4.908926   3.244477   4.002785   1.844283   0.991590
                   11         12
    11  H    0.000000
    12  H    3.095770   0.000000
 Stoichiometry    C3H7O2(2)
 Framework group  C1[X(C3H7O2)]
 Deg. of freedom    30
 Full point group                 C1      NOp   1
 Largest Abelian subgroup         C1      NOp   1
 Largest concise Abelian subgroup C1      NOp   1
                         Standard orientation:                         
 ---------------------------------------------------------------------
 Center     Atomic      Atomic             Coordinates (Angstroms)
 Number     Number       Type             X           Y           Z
 ---------------------------------------------------------------------
      1          6           0        1.604489   -0.782253    0.025038
      2          6           0        0.345700    0.015356   -0.311817
      3          6           0        0.527972    1.487124    0.060799
      4          1           0        1.463390   -1.846320   -0.260806
      5          1           0        1.817822   -0.731791    1.114490
      6          1           0        2.477311   -0.380813   -0.533182
      7          1           0        0.702665    1.600866    1.152178
      8          1           0        1.375657    1.933864   -0.501270
      9          8           0       -0.740774   -0.530464    0.398653
     10          8           0       -1.838235   -0.136980   -0.223155
     11          1           0        0.185576   -0.073752   -1.412302
     12          1           0       -2.259314    0.516141    0.392781
 ---------------------------------------------------------------------
 Rotational constants (GHZ):           8.5281872           3.9703113           3.0303324
 Leave Link  202 at Thu Apr  7 11:32:35 2022, MaxMem=  1073741824 cpu:               0.1 elap:               0.0
 (Enter /home/saurabh/gaussian/g16/l301.exe)
 Standard basis: CC-pVTZ (5D, 7F)
 Ernie: Thresh=  0.10000D-02 Tol=  0.10000D-05 Strict=F.
 Ernie:  15 primitive shells out of 186 were deleted.
 There are   280 symmetry adapted cartesian basis functions of A   symmetry.
 There are   248 symmetry adapted basis functions of A   symmetry.
   248 basis functions,   379 primitive gaussians,   280 cartesian basis functions
    21 alpha electrons       20 beta electrons
       nuclear repulsion energy       188.0746884884 Hartrees.
 IExCor=  402 DFT=T Ex+Corr=B3LYP ExCW=0 ScaHFX=  0.200000
 ScaDFX=  0.800000  0.720000  1.000000  0.810000 ScalE2=  1.000000  1.000000
 IRadAn=      5 IRanWt=     -1 IRanGd=            0 ICorTp=0 IEmpDi=  4
 NAtoms=   12 NActive=   12 NUniq=   12 SFac= 1.00D+00 NAtFMM=   60 NAOKFM=F Big=F
 Integral buffers will be    131072 words long.
 Raffenetti 2 integral format.
 Two-electron integral symmetry is turned on.
 Leave Link  301 at Thu Apr  7 11:32:35 2022, MaxMem=  1073741824 cpu:               0.4 elap:               0.1
 (Enter /home/saurabh/gaussian/g16/l302.exe)
 NPDir=0 NMtPBC=     1 NCelOv=     1 NCel=       1 NClECP=     1 NCelD=      1
         NCelK=      1 NCelE2=     1 NClLst=     1 CellRange=     0.0.
 One-electron integrals computed using PRISM.
 One-electron integral symmetry used in STVInt
 NBasis=   248 RedAO= T EigKep=  8.55D-04  NBF=   248
 NBsUse=   248 1.00D-06 EigRej= -1.00D+00 NBFU=   248
 Precomputing XC quadrature grid using
 IXCGrd= 4 IRadAn=           5 IRanWt=          -1 IRanGd=           0 AccXCQ= 0.00D+00.
 Generated NRdTot=       0 NPtTot=           0 NUsed=           0 NTot=          32
 NSgBfM=   280   280   280   280   280 MxSgAt=    12 MxSgA2=    12.
 Leave Link  302 at Thu Apr  7 11:32:36 2022, MaxMem=  1073741824 cpu:               1.7 elap:               0.2
 (Enter /home/saurabh/gaussian/g16/l303.exe)
 DipDrv:  MaxL=1.
 Leave Link  303 at Thu Apr  7 11:32:36 2022, MaxMem=  1073741824 cpu:               0.3 elap:               0.1
 (Enter /home/saurabh/gaussian/g16/l401.exe)
 ExpMin= 1.03D-01 ExpMax= 1.53D+04 ExpMxC= 5.22D+02 IAcc=3 IRadAn=         5 AccDes= 0.00D+00
 Harris functional with IExCor=  402 and IRadAn=       5 diagonalized for initial guess.
 HarFok:  IExCor=  402 AccDes= 0.00D+00 IRadAn=         5 IDoV= 1 UseB2=F ITyADJ=14
 ICtDFT=  3500011 ScaDFX=  1.000000  1.000000  1.000000  1.000000
 FoFCou: FMM=F IPFlag=           0 FMFlag=      100000 FMFlg1=           0
         NFxFlg=           0 DoJE=T BraDBF=F KetDBF=T FulRan=T
         wScrn=  0.000000 ICntrl=       500 IOpCl=  0 I1Cent=   200000004 NGrid=           0
         NMat0=    1 NMatS0=      1 NMatT0=    0 NMatD0=    1 NMtDS0=    0 NMtDT0=    0
 Petite list used in FoFCou.
 Harris En= -268.903446769556    
 JPrj=0 DoOrth=F DoCkMO=F.
 Initial guess <Sx>= 0.0000 <Sy>= 0.0000 <Sz>= 0.5000 <S**2>= 0.7500 S= 0.5000
 Leave Link  401 at Thu Apr  7 11:32:36 2022, MaxMem=  1073741824 cpu:               5.0 elap:               0.6
 (Enter /home/saurabh/gaussian/g16/l502.exe)
 Keep R1 and R2 ints in memory in canonical form, NReq=964453764.
 FoFCou: FMM=F IPFlag=           0 FMFlag=           0 FMFlg1=           0
         NFxFlg=           0 DoJE=F BraDBF=F KetDBF=F FulRan=T
         wScrn=  0.000000 ICntrl=       600 IOpCl=  0 I1Cent=           0 NGrid=           0
         NMat0=    1 NMatS0=  30876 NMatT0=    0 NMatD0=    1 NMtDS0=    0 NMtDT0=    0
 Symmetry not used in FoFCou.
 Two-electron integral symmetry not used.
 UHF open shell SCF:
 Using DIIS extrapolation, IDIIS=  1040.
 NGot=  1073741824 LenX=   120221698 LenY=   120142857
 Requested convergence on RMS density matrix=1.00D-08 within1000 cycles.
 Requested convergence on MAX density matrix=1.00D-06.
 Requested convergence on             energy=1.00D-06.
 No special actions if energy rises.
 Integral accuracy reduced to 1.0D-05 until final iterations.

 Cycle   1  Pass 0  IDiag  1:
 E= -268.768510650333    
 DIIS: error= 2.61D-02 at cycle   1 NSaved=   1.
 NSaved= 1 IEnMin= 1 EnMin= -268.768510650333     IErMin= 1 ErrMin= 2.61D-02
 ErrMax= 2.61D-02  0.00D+00 EMaxC= 1.00D-01 BMatC= 6.18D-01 BMatP= 6.18D-01
 IDIUse=3 WtCom= 7.39D-01 WtEn= 2.61D-01
 Coeff-Com:  0.100D+01
 Coeff-En:   0.100D+01
 Coeff:      0.100D+01
 Gap=     0.254 Goal=   None    Shift=    0.000
 Gap=     0.189 Goal=   None    Shift=    0.000
 GapD=    0.189 DampG=1.000 DampE=0.500 DampFc=0.5000 IDamp=-1.
 Damping current iteration by 5.00D-01
 RMSDP=2.43D-03 MaxDP=9.63D-02              OVMax= 1.70D-01

 Cycle   2  Pass 0  IDiag  1:
 E= -268.828279138884     Delta-E=       -0.059768488551 Rises=F Damp=T
 DIIS: error= 4.20D-03 at cycle   2 NSaved=   2.
 NSaved= 2 IEnMin= 2 EnMin= -268.828279138884     IErMin= 2 ErrMin= 4.20D-03
 ErrMax= 4.20D-03  0.00D+00 EMaxC= 1.00D-01 BMatC= 3.72D-02 BMatP= 6.18D-01
 IDIUse=3 WtCom= 9.58D-01 WtEn= 4.20D-02
 Coeff-Com:  0.239D-01 0.976D+00
 Coeff-En:   0.864D-01 0.914D+00
 Coeff:      0.266D-01 0.973D+00
 Gap=     0.277 Goal=   None    Shift=    0.000
 Gap=     0.172 Goal=   None    Shift=    0.000
 RMSDP=4.30D-04 MaxDP=2.51D-02 DE=-5.98D-02 OVMax= 9.41D-02

 Cycle   3  Pass 0  IDiag  1:
 E= -268.898975170623     Delta-E=       -0.070696031738 Rises=F Damp=F
 DIIS: error= 3.18D-03 at cycle   3 NSaved=   3.
 NSaved= 3 IEnMin= 3 EnMin= -268.898975170623     IErMin= 3 ErrMin= 3.18D-03
 ErrMax= 3.18D-03  0.00D+00 EMaxC= 1.00D-01 BMatC= 1.16D-02 BMatP= 3.72D-02
 IDIUse=3 WtCom= 9.68D-01 WtEn= 3.18D-02
 Coeff-Com: -0.467D-01 0.330D+00 0.717D+00
 Coeff-En:   0.000D+00 0.000D+00 0.100D+01
 Coeff:     -0.453D-01 0.320D+00 0.726D+00
 Gap=     0.281 Goal=   None    Shift=    0.000
 Gap=     0.162 Goal=   None    Shift=    0.000
 RMSDP=1.68D-04 MaxDP=5.08D-03 DE=-7.07D-02 OVMax= 1.18D-02

 Cycle   4  Pass 0  IDiag  1:
 E= -268.900664349089     Delta-E=       -0.001689178466 Rises=F Damp=F
 DIIS: error= 1.16D-03 at cycle   4 NSaved=   4.
 NSaved= 4 IEnMin= 4 EnMin= -268.900664349089     IErMin= 4 ErrMin= 1.16D-03
 ErrMax= 1.16D-03  0.00D+00 EMaxC= 1.00D-01 BMatC= 3.20D-03 BMatP= 1.16D-02
 IDIUse=3 WtCom= 9.88D-01 WtEn= 1.16D-02
 Coeff-Com: -0.260D-01 0.102D+00 0.397D+00 0.527D+00
 Coeff-En:   0.000D+00 0.000D+00 0.132D+00 0.868D+00
 Coeff:     -0.257D-01 0.101D+00 0.394D+00 0.531D+00
 Gap=     0.277 Goal=   None    Shift=    0.000
 Gap=     0.165 Goal=   None    Shift=    0.000
 RMSDP=7.62D-05 MaxDP=2.17D-03 DE=-1.69D-03 OVMax= 5.07D-03

 Cycle   5  Pass 0  IDiag  1:
 E= -268.901162646357     Delta-E=       -0.000498297268 Rises=F Damp=F
 DIIS: error= 4.22D-04 at cycle   5 NSaved=   5.
 NSaved= 5 IEnMin= 5 EnMin= -268.901162646357     IErMin= 5 ErrMin= 4.22D-04
 ErrMax= 4.22D-04  0.00D+00 EMaxC= 1.00D-01 BMatC= 3.09D-04 BMatP= 3.20D-03
 IDIUse=3 WtCom= 9.96D-01 WtEn= 4.22D-03
 Coeff-Com: -0.727D-02 0.112D-01 0.110D+00 0.282D+00 0.604D+00
 Coeff-En:   0.000D+00 0.000D+00 0.000D+00 0.138D-01 0.986D+00
 Coeff:     -0.724D-02 0.111D-01 0.109D+00 0.281D+00 0.606D+00
 Gap=     0.278 Goal=   None    Shift=    0.000
 Gap=     0.167 Goal=   None    Shift=    0.000
 RMSDP=2.54D-05 MaxDP=7.11D-04 DE=-4.98D-04 OVMax= 1.75D-03

 Cycle   6  Pass 0  IDiag  1:
 E= -268.901212275615     Delta-E=       -0.000049629258 Rises=F Damp=F
 DIIS: error= 1.29D-04 at cycle   6 NSaved=   6.
 NSaved= 6 IEnMin= 6 EnMin= -268.901212275615     IErMin= 6 ErrMin= 1.29D-04
 ErrMax= 1.29D-04  0.00D+00 EMaxC= 1.00D-01 BMatC= 2.86D-05 BMatP= 3.09D-04
 IDIUse=3 WtCom= 9.99D-01 WtEn= 1.29D-03
 Coeff-Com: -0.168D-02-0.268D-02 0.255D-01 0.103D+00 0.314D+00 0.562D+00
 Coeff-En:   0.000D+00 0.000D+00 0.000D+00 0.000D+00 0.000D+00 0.100D+01
 Coeff:     -0.168D-02-0.268D-02 0.255D-01 0.103D+00 0.313D+00 0.563D+00
 Gap=     0.278 Goal=   None    Shift=    0.000
 Gap=     0.166 Goal=   None    Shift=    0.000
 RMSDP=8.61D-06 MaxDP=4.02D-04 DE=-4.96D-05 OVMax= 9.45D-04

 Initial convergence to 1.0D-05 achieved.  Increase integral accuracy.
 Cycle   7  Pass 1  IDiag  1:
 E= -268.901219283144     Delta-E=       -0.000007007528 Rises=F Damp=F
 DIIS: error= 4.06D-05 at cycle   1 NSaved=   1.
 NSaved= 1 IEnMin= 1 EnMin= -268.901219283144     IErMin= 1 ErrMin= 4.06D-05
 ErrMax= 4.06D-05  0.00D+00 EMaxC= 1.00D-01 BMatC= 1.64D-06 BMatP= 1.64D-06
 IDIUse=1 WtCom= 1.00D+00 WtEn= 0.00D+00
 Coeff-Com:  0.100D+01
 Coeff:      0.100D+01
 Gap=     0.278 Goal=   None    Shift=    0.000
 Gap=     0.166 Goal=   None    Shift=    0.000
 RMSDP=8.61D-06 MaxDP=4.02D-04 DE=-7.01D-06 OVMax= 5.03D-04

 Cycle   8  Pass 1  IDiag  1:
 E= -268.901219545151     Delta-E=       -0.000000262008 Rises=F Damp=F
 DIIS: error= 3.26D-05 at cycle   2 NSaved=   2.
 NSaved= 2 IEnMin= 2 EnMin= -268.901219545151     IErMin= 2 ErrMin= 3.26D-05
 ErrMax= 3.26D-05  0.00D+00 EMaxC= 1.00D-01 BMatC= 1.96D-06 BMatP= 1.64D-06
 IDIUse=1 WtCom= 1.00D+00 WtEn= 0.00D+00
 Coeff-Com:  0.528D+00 0.472D+00
 Coeff:      0.528D+00 0.472D+00
 Gap=     0.278 Goal=   None    Shift=    0.000
 Gap=     0.166 Goal=   None    Shift=    0.000
 RMSDP=2.02D-06 MaxDP=8.42D-05 DE=-2.62D-07 OVMax= 1.90D-04

 Cycle   9  Pass 1  IDiag  1:
 E= -268.901219978031     Delta-E=       -0.000000432879 Rises=F Damp=F
 DIIS: error= 9.97D-06 at cycle   3 NSaved=   3.
 NSaved= 3 IEnMin= 3 EnMin= -268.901219978031     IErMin= 3 ErrMin= 9.97D-06
 ErrMax= 9.97D-06  0.00D+00 EMaxC= 1.00D-01 BMatC= 1.27D-07 BMatP= 1.64D-06
 IDIUse=1 WtCom= 1.00D+00 WtEn= 0.00D+00
 Coeff-Com: -0.276D-01 0.125D+00 0.902D+00
 Coeff:     -0.276D-01 0.125D+00 0.902D+00
 Gap=     0.278 Goal=   None    Shift=    0.000
 Gap=     0.166 Goal=   None    Shift=    0.000
 RMSDP=9.10D-07 MaxDP=3.88D-05 DE=-4.33D-07 OVMax= 6.35D-05

 Cycle  10  Pass 1  IDiag  1:
 E= -268.901220012599     Delta-E=       -0.000000034569 Rises=F Damp=F
 DIIS: error= 7.22D-06 at cycle   4 NSaved=   4.
 NSaved= 4 IEnMin= 4 EnMin= -268.901220012599     IErMin= 4 ErrMin= 7.22D-06
 ErrMax= 7.22D-06  0.00D+00 EMaxC= 1.00D-01 BMatC= 9.22D-08 BMatP= 1.27D-07
 IDIUse=1 WtCom= 1.00D+00 WtEn= 0.00D+00
 Coeff-Com: -0.179D+00-0.579D-01 0.623D+00 0.614D+00
 Coeff:     -0.179D+00-0.579D-01 0.623D+00 0.614D+00
 Gap=     0.278 Goal=   None    Shift=    0.000
 Gap=     0.166 Goal=   None    Shift=    0.000
 RMSDP=4.93D-07 MaxDP=2.86D-05 DE=-3.46D-08 OVMax= 4.78D-05

 Cycle  11  Pass 1  IDiag  1:
 E= -268.901220032524     Delta-E=       -0.000000019925 Rises=F Damp=F
 DIIS: error= 1.75D-06 at cycle   5 NSaved=   5.
 NSaved= 5 IEnMin= 5 EnMin= -268.901220032524     IErMin= 5 ErrMin= 1.75D-06
 ErrMax= 1.75D-06  0.00D+00 EMaxC= 1.00D-01 BMatC= 4.24D-09 BMatP= 9.22D-08
 IDIUse=1 WtCom= 1.00D+00 WtEn= 0.00D+00
 Coeff-Com: -0.765D-01-0.395D-01 0.182D+00 0.269D+00 0.665D+00
 Coeff:     -0.765D-01-0.395D-01 0.182D+00 0.269D+00 0.665D+00
 Gap=     0.278 Goal=   None    Shift=    0.000
 Gap=     0.166 Goal=   None    Shift=    0.000
 RMSDP=1.08D-07 MaxDP=4.56D-06 DE=-1.99D-08 OVMax= 8.64D-06

 Cycle  12  Pass 1  IDiag  1:
 E= -268.901220033455     Delta-E=       -0.000000000932 Rises=F Damp=F
 DIIS: error= 5.65D-07 at cycle   6 NSaved=   6.
 NSaved= 6 IEnMin= 6 EnMin= -268.901220033455     IErMin= 6 ErrMin= 5.65D-07
 ErrMax= 5.65D-07  0.00D+00 EMaxC= 1.00D-01 BMatC= 2.13D-10 BMatP= 4.24D-09
 IDIUse=1 WtCom= 1.00D+00 WtEn= 0.00D+00
 Coeff-Com: -0.626D-02-0.523D-02 0.119D-02 0.261D-01 0.176D+00 0.808D+00
 Coeff:     -0.626D-02-0.523D-02 0.119D-02 0.261D-01 0.176D+00 0.808D+00
 Gap=     0.278 Goal=   None    Shift=    0.000
 Gap=     0.166 Goal=   None    Shift=    0.000
 RMSDP=3.38D-08 MaxDP=1.18D-06 DE=-9.32D-10 OVMax= 2.95D-06

 Cycle  13  Pass 1  IDiag  1:
 E= -268.901220033510     Delta-E=       -0.000000000055 Rises=F Damp=F
 DIIS: error= 3.29D-07 at cycle   7 NSaved=   7.
 NSaved= 7 IEnMin= 7 EnMin= -268.901220033510     IErMin= 7 ErrMin= 3.29D-07
 ErrMax= 3.29D-07  0.00D+00 EMaxC= 1.00D-01 BMatC= 6.76D-11 BMatP= 2.13D-10
 IDIUse=1 WtCom= 1.00D+00 WtEn= 0.00D+00
 Coeff-Com:  0.119D-01 0.531D-02-0.355D-01-0.407D-01-0.474D-01 0.396D+00
 Coeff-Com:  0.710D+00
 Coeff:      0.119D-01 0.531D-02-0.355D-01-0.407D-01-0.474D-01 0.396D+00
 Coeff:      0.710D+00
 Gap=     0.278 Goal=   None    Shift=    0.000
 Gap=     0.166 Goal=   None    Shift=    0.000
 RMSDP=1.54D-08 MaxDP=9.75D-07 DE=-5.50D-11 OVMax= 1.46D-06

 Cycle  14  Pass 1  IDiag  1:
 E= -268.901220033528     Delta-E=       -0.000000000018 Rises=F Damp=F
 DIIS: error= 3.17D-08 at cycle   8 NSaved=   8.
 NSaved= 8 IEnMin= 8 EnMin= -268.901220033528     IErMin= 8 ErrMin= 3.17D-08
 ErrMax= 3.17D-08  0.00D+00 EMaxC= 1.00D-01 BMatC= 1.63D-12 BMatP= 6.76D-11
 IDIUse=1 WtCom= 1.00D+00 WtEn= 0.00D+00
 Coeff-Com:  0.322D-02 0.159D-02-0.860D-02-0.112D-01-0.203D-01 0.582D-01
 Coeff-Com:  0.156D+00 0.821D+00
 Coeff:      0.322D-02 0.159D-02-0.860D-02-0.112D-01-0.203D-01 0.582D-01
 Coeff:      0.156D+00 0.821D+00
 Gap=     0.278 Goal=   None    Shift=    0.000
 Gap=     0.166 Goal=   None    Shift=    0.000
 RMSDP=3.66D-09 MaxDP=1.30D-07 DE=-1.77D-11 OVMax= 2.81D-07

 SCF Done:  E(UB3LYP) =  -268.901220034     A.U. after   14 cycles
            NFock= 14  Conv=0.37D-08     -V/T= 2.0062
 <Sx>= 0.0000 <Sy>= 0.0000 <Sz>= 0.5000 <S**2>= 0.7530 S= 0.5015
 <L.S>=  0.00000000000    
 KE= 2.672420355038D+02 PE=-1.005744170441D+03 EE= 2.815262264155D+02
 Annihilation of the first spin contaminant:
 S**2 before annihilation     0.7530,   after     0.7500
 Leave Link  502 at Thu Apr  7 11:33:14 2022, MaxMem=  1073741824 cpu:             139.6 elap:              38.0
 (Enter /home/saurabh/gaussian/g16/l801.exe)
 DoSCS=F DFT=T ScalE2(SS,OS)=  1.000000  1.000000
 Range of M.O.s used for correlation:     1   248
 NBasis=   248 NAE=    21 NBE=    20 NFC=     0 NFV=     0
 NROrb=    248 NOA=    21 NOB=    20 NVA=   227 NVB=   228

 **** Warning!!: The largest alpha MO coefficient is  0.11559941D+02


 **** Warning!!: The largest beta MO coefficient is  0.11559285D+02

 Leave Link  801 at Thu Apr  7 11:33:14 2022, MaxMem=  1073741824 cpu:               0.2 elap:               0.1
 (Enter /home/saurabh/gaussian/g16/l1101.exe)
 Using compressed storage, NAtomX=    12.
 Will process     13 centers per pass.
 Leave Link 1101 at Thu Apr  7 11:33:15 2022, MaxMem=  1073741824 cpu:               1.8 elap:               0.3
 (Enter /home/saurabh/gaussian/g16/l1102.exe)
 Symmetrizing basis deriv contribution to polar:
 IMax=3 JMax=2 DiffMx= 0.00D+00
 Leave Link 1102 at Thu Apr  7 11:33:15 2022, MaxMem=  1073741824 cpu:               0.3 elap:               0.1
 (Enter /home/saurabh/gaussian/g16/l1110.exe)
 Forming Gx(P) for the SCF density, NAtomX=    12.
 Integral derivatives from FoFJK, PRISM(SPDF).
 Do as many integral derivatives as possible in FoFJK.
 G2DrvN: MDV=    1073740452.
 G2DrvN: will do    13 centers at a time, making    1 passes.
 Calling FoFCou, ICntrl=  3107 FMM=F I1Cent=   0 AccDes= 0.00D+00.
 FoFJK:  IHMeth= 1 ICntrl=    3107 DoSepK=F KAlg= 0 I1Cent=           0 FoldK=F
 IRaf=         0 NMat=       1 IRICut=       1 DoRegI=T DoRafI=F ISym2E= 0 IDoP0=0 IntGTp=1.
 FoFCou: FMM=F IPFlag=           0 FMFlag=      100000 FMFlg1=           0
         NFxFlg=           0 DoJE=F BraDBF=F KetDBF=F FulRan=T
         wScrn=  0.000000 ICntrl=      3107 IOpCl=  1 I1Cent=           0 NGrid=           0
         NMat0=    1 NMatS0=      1 NMatT0=    0 NMatD0=    1 NMtDS0=    0 NMtDT0=    0
 Symmetry not used in FoFCou.
 End of G2Drv F.D. properties file   721 does not exist.
 End of G2Drv F.D. properties file   722 does not exist.
 End of G2Drv F.D. properties file   788 does not exist.
 Leave Link 1110 at Thu Apr  7 11:33:58 2022, MaxMem=  1073741824 cpu:             346.5 elap:              43.3
 (Enter /home/saurabh/gaussian/g16/l1002.exe)
 Minotr:  UHF open shell wavefunction.
          IDoAtm=111111111111
          Direct CPHF calculation.
          Differentiating once with respect to nuclear coordinates.
          Requested convergence is 1.0D-08 RMS, and 1.0D-07 maximum.
          Secondary convergence is 1.0D-12 RMS, and 1.0D-12 maximum.
          NewPWx=T KeepS1=F KeepF1=F KeepIn=T MapXYZ=F SortEE=F KeepMc=T.
         3563 words used for storage of precomputed grid.
 Keep R1 and R2 ints in memory in canonical form, NReq=964459531.
 FoFCou: FMM=F IPFlag=           0 FMFlag=           0 FMFlg1=           0
         NFxFlg=           0 DoJE=F BraDBF=F KetDBF=F FulRan=T
         wScrn=  0.000000 ICntrl=       600 IOpCl=  0 I1Cent=           0 NGrid=           0
         NMat0=    1 NMatS0=  30876 NMatT0=    0 NMatD0=    1 NMtDS0=    0 NMtDT0=    0
 Symmetry not used in FoFCou.
 Two-electron integral symmetry not used.
          MDV=    1073741824 using IRadAn=       1.
          Solving linear equations simultaneously, MaxMat=       0.
          There are    39 degrees of freedom in the 1st order CPHF.  IDoFFX=6 NUNeed=     0.
     33 vectors produced by pass  0 Test12= 2.39D-14 2.56D-09 XBig12= 2.00D-01 1.25D-01.
 AX will form    33 AO Fock derivatives at one time.
     33 vectors produced by pass  1 Test12= 2.39D-14 2.56D-09 XBig12= 4.65D-02 2.83D-02.
     33 vectors produced by pass  2 Test12= 2.39D-14 2.56D-09 XBig12= 7.47D-04 6.43D-03.
     33 vectors produced by pass  3 Test12= 2.39D-14 2.56D-09 XBig12= 5.12D-06 3.97D-04.
     33 vectors produced by pass  4 Test12= 2.39D-14 2.56D-09 XBig12= 5.22D-08 3.31D-05.
     33 vectors produced by pass  5 Test12= 2.39D-14 2.56D-09 XBig12= 2.78D-10 2.10D-06.
     25 vectors produced by pass  6 Test12= 2.39D-14 2.56D-09 XBig12= 1.63D-12 1.47D-07.
      6 vectors produced by pass  7 Test12= 2.39D-14 2.56D-09 XBig12= 8.63D-15 9.61D-09.
 InvSVY:  IOpt=1 It=  1 EMax= 9.99D-16
 Solved reduced A of dimension   229 with    33 vectors.
 End of Minotr F.D. properties file   721 does not exist.
 End of Minotr F.D. properties file   722 does not exist.
 End of Minotr F.D. properties file   788 does not exist.
 Leave Link 1002 at Thu Apr  7 11:34:51 2022, MaxMem=  1073741824 cpu:             421.3 elap:              52.7
 (Enter /home/saurabh/gaussian/g16/l601.exe)
 Copying SCF densities to generalized density rwf, IOpCl= 1 IROHF=0.

 **********************************************************************

            Population analysis using the SCF Density.

 **********************************************************************

 Orbital symmetries:
 Alpha Orbitals:
       Occupied  (A) (A) (A) (A) (A) (A) (A) (A) (A) (A) (A) (A)
                 (A) (A) (A) (A) (A) (A) (A) (A) (A)
       Virtual   (A) (A) (A) (A) (A) (A) (A) (A) (A) (A) (A) (A)
                 (A) (A) (A) (A) (A) (A) (A) (A) (A) (A) (A) (A)
                 (A) (A) (A) (A) (A) (A) (A) (A) (A) (A) (A) (A)
                 (A) (A) (A) (A) (A) (A) (A) (A) (A) (A) (A) (A)
                 (A) (A) (A) (A) (A) (A) (A) (A) (A) (A) (A) (A)
                 (A) (A) (A) (A) (A) (A) (A) (A) (A) (A) (A) (A)
                 (A) (A) (A) (A) (A) (A) (A) (A) (A) (A) (A) (A)
                 (A) (A) (A) (A) (A) (A) (A) (A) (A) (A) (A) (A)
                 (A) (A) (A) (A) (A) (A) (A) (A) (A) (A) (A) (A)
                 (A) (A) (A) (A) (A) (A) (A) (A) (A) (A) (A) (A)
                 (A) (A) (A) (A) (A) (A) (A) (A) (A) (A) (A) (A)
                 (A) (A) (A) (A) (A) (A) (A) (A) (A) (A) (A) (A)
                 (A) (A) (A) (A) (A) (A) (A) (A) (A) (A) (A) (A)
                 (A) (A) (A) (A) (A) (A) (A) (A) (A) (A) (A) (A)
                 (A) (A) (A) (A) (A) (A) (A) (A) (A) (A) (A) (A)
                 (A) (A) (A) (A) (A) (A) (A) (A) (A) (A) (A) (A)
                 (A) (A) (A) (A) (A) (A) (A) (A) (A) (A) (A) (A)
                 (A) (A) (A) (A) (A) (A) (A) (A) (A) (A) (A) (A)
                 (A) (A) (A) (A) (A) (A) (A) (A) (A) (A) (A)
 Beta  Orbitals:
       Occupied  (A) (A) (A) (A) (A) (A) (A) (A) (A) (A) (A) (A)
                 (A) (A) (A) (A) (A) (A) (A) (A)
       Virtual   (A) (A) (A) (A) (A) (A) (A) (A) (A) (A) (A) (A)
                 (A) (A) (A) (A) (A) (A) (A) (A) (A) (A) (A) (A)
                 (A) (A) (A) (A) (A) (A) (A) (A) (A) (A) (A) (A)
                 (A) (A) (A) (A) (A) (A) (A) (A) (A) (A) (A) (A)
                 (A) (A) (A) (A) (A) (A) (A) (A) (A) (A) (A) (A)
                 (A) (A) (A) (A) (A) (A) (A) (A) (A) (A) (A) (A)
                 (A) (A) (A) (A) (A) (A) (A) (A) (A) (A) (A) (A)
                 (A) (A) (A) (A) (A) (A) (A) (A) (A) (A) (A) (A)
                 (A) (A) (A) (A) (A) (A) (A) (A) (A) (A) (A) (A)
                 (A) (A) (A) (A) (A) (A) (A) (A) (A) (A) (A) (A)
                 (A) (A) (A) (A) (A) (A) (A) (A) (A) (A) (A) (A)
                 (A) (A) (A) (A) (A) (A) (A) (A) (A) (A) (A) (A)
                 (A) (A) (A) (A) (A) (A) (A) (A) (A) (A) (A) (A)
                 (A) (A) (A) (A) (A) (A) (A) (A) (A) (A) (A) (A)
                 (A) (A) (A) (A) (A) (A) (A) (A) (A) (A) (A) (A)
                 (A) (A) (A) (A) (A) (A) (A) (A) (A) (A) (A) (A)
                 (A) (A) (A) (A) (A) (A) (A) (A) (A) (A) (A) (A)
                 (A) (A) (A) (A) (A) (A) (A) (A) (A) (A) (A) (A)
                 (A) (A) (A) (A) (A) (A) (A) (A) (A) (A) (A) (A)
 The electronic state is 2-A.
 Alpha  occ. eigenvalues --  -19.18054 -19.17946 -10.23648 -10.19931 -10.18379
 Alpha  occ. eigenvalues --   -1.18173  -0.90475  -0.76972  -0.68789  -0.59731
 Alpha  occ. eigenvalues --   -0.56281  -0.48212  -0.47300  -0.44155  -0.40902
 Alpha  occ. eigenvalues --   -0.39798  -0.37702  -0.35916  -0.29743  -0.25834
 Alpha  occ. eigenvalues --   -0.24730
 Alpha virt. eigenvalues --    0.03095   0.03887   0.07042   0.08016   0.09886
 Alpha virt. eigenvalues --    0.11052   0.12627   0.13927   0.15443   0.18965
 Alpha virt. eigenvalues --    0.20950   0.25016   0.26134   0.29796   0.31024
 Alpha virt. eigenvalues --    0.32584   0.34878   0.36625   0.39315   0.40706
 Alpha virt. eigenvalues --    0.42374   0.44091   0.44208   0.45139   0.45874
 Alpha virt. eigenvalues --    0.46855   0.47363   0.49160   0.49916   0.54364
 Alpha virt. eigenvalues --    0.60577   0.61693   0.64313   0.66252   0.67840
 Alpha virt. eigenvalues --    0.70956   0.73080   0.75131   0.78120   0.79630
 Alpha virt. eigenvalues --    0.83784   0.85478   0.88104   0.89718   0.92882
 Alpha virt. eigenvalues --    0.94160   0.98287   1.00463   1.01273   1.04781
 Alpha virt. eigenvalues --    1.06559   1.08673   1.09830   1.11203   1.13974
 Alpha virt. eigenvalues --    1.15988   1.18607   1.20378   1.22208   1.23229
 Alpha virt. eigenvalues --    1.27521   1.29180   1.30210   1.32219   1.34651
 Alpha virt. eigenvalues --    1.37332   1.38928   1.40871   1.44496   1.48894
 Alpha virt. eigenvalues --    1.49693   1.50818   1.56066   1.61281   1.65303
 Alpha virt. eigenvalues --    1.75401   1.80566   1.93638   1.95835   2.00586
 Alpha virt. eigenvalues --    2.02719   2.10689   2.17279   2.19906   2.22632
 Alpha virt. eigenvalues --    2.25827   2.29449   2.30024   2.36571   2.39684
 Alpha virt. eigenvalues --    2.44482   2.47636   2.51334   2.51938   2.55083
 Alpha virt. eigenvalues --    2.59934   2.62172   2.63938   2.65525   2.68245
 Alpha virt. eigenvalues --    2.72547   2.77494   2.79300   2.81045   2.84068
 Alpha virt. eigenvalues --    2.89398   2.90914   2.91395   2.93175   2.93872
 Alpha virt. eigenvalues --    2.98368   3.01030   3.02859   3.05746   3.07107
 Alpha virt. eigenvalues --    3.09232   3.12391   3.13864   3.16948   3.21176
 Alpha virt. eigenvalues --    3.21956   3.23194   3.25600   3.28842   3.29193
 Alpha virt. eigenvalues --    3.31736   3.33836   3.37652   3.40586   3.43102
 Alpha virt. eigenvalues --    3.45296   3.46523   3.46988   3.49823   3.52759
 Alpha virt. eigenvalues --    3.56855   3.61504   3.65509   3.68005   3.70876
 Alpha virt. eigenvalues --    3.71225   3.73712   3.74794   3.76050   3.77624
 Alpha virt. eigenvalues --    3.80650   3.81580   3.86594   3.87726   3.88751
 Alpha virt. eigenvalues --    3.92396   3.95154   3.96861   3.99318   4.01022
 Alpha virt. eigenvalues --    4.03771   4.05430   4.07959   4.09258   4.11749
 Alpha virt. eigenvalues --    4.14065   4.15512   4.16780   4.21653   4.28643
 Alpha virt. eigenvalues --    4.31895   4.32361   4.34211   4.38713   4.42073
 Alpha virt. eigenvalues --    4.49943   4.53292   4.59980   4.65753   4.70808
 Alpha virt. eigenvalues --    4.72702   4.76625   4.76874   4.79518   4.81151
 Alpha virt. eigenvalues --    4.84214   4.87493   4.91825   4.97560   5.00595
 Alpha virt. eigenvalues --    5.03905   5.08678   5.10923   5.12347   5.14716
 Alpha virt. eigenvalues --    5.18725   5.23618   5.25326   5.27463   5.29271
 Alpha virt. eigenvalues --    5.33168   5.37965   5.44746   5.55039   5.62648
 Alpha virt. eigenvalues --    5.75769   5.78335   5.84048   5.85715   5.93847
 Alpha virt. eigenvalues --    6.05056   6.08729   6.28164   6.35460   6.39732
 Alpha virt. eigenvalues --    6.47057   6.51039   6.60606   6.68716   6.78777
 Alpha virt. eigenvalues --    6.82201   6.94831   6.96423   7.22137   7.36039
 Alpha virt. eigenvalues --    7.51355   7.77852  10.42621  10.90574  11.71066
 Alpha virt. eigenvalues --   11.85858  13.12903
  Beta  occ. eigenvalues --  -19.18051 -19.17931 -10.23668 -10.18468 -10.18268
  Beta  occ. eigenvalues --   -1.18151  -0.90347  -0.76110  -0.66914  -0.59002
  Beta  occ. eigenvalues --   -0.56168  -0.47928  -0.47070  -0.43393  -0.40451
  Beta  occ. eigenvalues --   -0.39321  -0.36808  -0.35559  -0.29695  -0.25521
  Beta virt. eigenvalues --   -0.08899   0.03235   0.04074   0.07273   0.08396
  Beta virt. eigenvalues --    0.10085   0.11298   0.12810   0.14113   0.15888
  Beta virt. eigenvalues --    0.19146   0.21350   0.25260   0.26724   0.30529
  Beta virt. eigenvalues --    0.32933   0.33798   0.35961   0.37346   0.39638
  Beta virt. eigenvalues --    0.41634   0.43074   0.44375   0.44622   0.45304
  Beta virt. eigenvalues --    0.46223   0.47570   0.48079   0.49618   0.50163
  Beta virt. eigenvalues --    0.54972   0.61112   0.61840   0.64584   0.66388
  Beta virt. eigenvalues --    0.68176   0.71227   0.73359   0.75482   0.79056
  Beta virt. eigenvalues --    0.80170   0.84432   0.86176   0.88364   0.90052
  Beta virt. eigenvalues --    0.93108   0.94507   0.98449   1.00878   1.01842
  Beta virt. eigenvalues --    1.05490   1.07683   1.09180   1.10274   1.11858
  Beta virt. eigenvalues --    1.14605   1.16730   1.18913   1.21036   1.23572
  Beta virt. eigenvalues --    1.24032   1.27882   1.29330   1.30517   1.32790
  Beta virt. eigenvalues --    1.35075   1.37536   1.39355   1.41573   1.44881
  Beta virt. eigenvalues --    1.49212   1.50572   1.51093   1.56480   1.61830
  Beta virt. eigenvalues --    1.65592   1.75668   1.80724   1.94356   1.95985
  Beta virt. eigenvalues --    2.00759   2.03122   2.12587   2.18461   2.21603
  Beta virt. eigenvalues --    2.23392   2.26508   2.30011   2.30667   2.36832
  Beta virt. eigenvalues --    2.40511   2.44825   2.48721   2.52032   2.52766
  Beta virt. eigenvalues --    2.55824   2.60624   2.62812   2.64617   2.66664
  Beta virt. eigenvalues --    2.69293   2.73954   2.77785   2.81153   2.81903
  Beta virt. eigenvalues --    2.85253   2.90121   2.91656   2.92185   2.94761
  Beta virt. eigenvalues --    2.95570   2.99686   3.02535   3.03661   3.06596
  Beta virt. eigenvalues --    3.08768   3.09949   3.12994   3.14916   3.17399
  Beta virt. eigenvalues --    3.22032   3.23347   3.24610   3.25860   3.29322
  Beta virt. eigenvalues --    3.29384   3.32464   3.34554   3.38264   3.41003
  Beta virt. eigenvalues --    3.43496   3.45694   3.47098   3.47371   3.50542
  Beta virt. eigenvalues --    3.53243   3.57266   3.61857   3.66096   3.68160
  Beta virt. eigenvalues --    3.71155   3.71588   3.74586   3.75121   3.76387
  Beta virt. eigenvalues --    3.78207   3.80880   3.81993   3.86795   3.88473
  Beta virt. eigenvalues --    3.89236   3.92736   3.95717   3.97375   3.99645
  Beta virt. eigenvalues --    4.01623   4.04117   4.05870   4.08106   4.09454
  Beta virt. eigenvalues --    4.12073   4.14286   4.15888   4.16966   4.21996
  Beta virt. eigenvalues --    4.28952   4.32095   4.32551   4.34426   4.39235
  Beta virt. eigenvalues --    4.42447   4.50449   4.53658   4.60398   4.66003
  Beta virt. eigenvalues --    4.71316   4.72823   4.77089   4.77896   4.80216
  Beta virt. eigenvalues --    4.81381   4.84712   4.88200   4.92113   4.97985
  Beta virt. eigenvalues --    5.01776   5.04181   5.08934   5.11176   5.12591
  Beta virt. eigenvalues --    5.14939   5.19328   5.23794   5.25602   5.27934
  Beta virt. eigenvalues --    5.29522   5.33294   5.38145   5.45238   5.55247
  Beta virt. eigenvalues --    5.62819   5.76161   5.78927   5.84288   5.85782
  Beta virt. eigenvalues --    5.94053   6.05090   6.08764   6.28191   6.35502
  Beta virt. eigenvalues --    6.39760   6.47081   6.51063   6.60625   6.68738
  Beta virt. eigenvalues --    6.78804   6.82216   6.94854   6.96452   7.22158
  Beta virt. eigenvalues --    7.36054   7.51371   7.77864  10.42706  10.91420
  Beta virt. eigenvalues --   11.71456  11.86559  13.13032
          Condensed to atoms (all electrons):
               1          2          3          4          5          6
     1  C    4.934464   0.317410  -0.063025   0.385606   0.382146   0.391017
     2  C    0.317410   4.698291   0.314780  -0.031398  -0.024916  -0.032571
     3  C   -0.063025   0.314780   5.338894   0.011748  -0.007772   0.002628
     4  H    0.385606  -0.031398   0.011748   0.588441  -0.027280  -0.025675
     5  H    0.382146  -0.024916  -0.007772  -0.027280   0.600384  -0.028894
     6  H    0.391017  -0.032571   0.002628  -0.025675  -0.028894   0.603036
     7  H   -0.001419  -0.041654   0.381837  -0.000608   0.005981  -0.000048
     8  H    0.001051  -0.032164   0.373965  -0.000711   0.000735  -0.000245
     9  O   -0.038880   0.337144  -0.071441   0.005923   0.001015   0.003009
    10  O    0.010337  -0.067932   0.015911  -0.000074  -0.000386  -0.000288
    11  H   -0.036185   0.403965  -0.064135  -0.009854   0.009346  -0.003280
    12  H   -0.001026  -0.008757   0.010885   0.000078  -0.000035   0.000072
               7          8          9         10         11         12
     1  C   -0.001419   0.001051  -0.038880   0.010337  -0.036185  -0.001026
     2  C   -0.041654  -0.032164   0.337144  -0.067932   0.403965  -0.008757
     3  C    0.381837   0.373965  -0.071441   0.015911  -0.064135   0.010885
     4  H   -0.000608  -0.000711   0.005923  -0.000074  -0.009854   0.000078
     5  H    0.005981   0.000735   0.001015  -0.000386   0.009346  -0.000035
     6  H   -0.000048  -0.000245   0.003009  -0.000288  -0.003280   0.000072
     7  H    0.586648  -0.037005   0.004202  -0.000572   0.008767  -0.000304
     8  H   -0.037005   0.599918   0.005157  -0.000028   0.000360  -0.000377
     9  O    0.004202   0.005157   7.972210   0.042932  -0.049458  -0.036976
    10  O   -0.000572  -0.000028   0.042932   7.877757   0.010421   0.331981
    11  H    0.008767   0.000360  -0.049458   0.010421   0.677399  -0.002476
    12  H   -0.000304  -0.000377  -0.036976   0.331981  -0.002476   0.477435
          Atomic-Atomic Spin Densities.
               1          2          3          4          5          6
     1  C    0.070272   0.021219  -0.034416  -0.008515  -0.004242   0.000320
     2  C    0.021219  -0.009991  -0.033552  -0.006108  -0.000961   0.000297
     3  C   -0.034416  -0.033552   1.041295   0.004329   0.003600   0.000176
     4  H   -0.008515  -0.006108   0.004329   0.024276   0.002378   0.000298
     5  H   -0.004242  -0.000961   0.003600   0.002378  -0.002087   0.000468
     6  H    0.000320   0.000297   0.000176   0.000298   0.000468  -0.002430
     7  H   -0.003622   0.000799   0.005973   0.000319   0.000462   0.000048
     8  H   -0.002511   0.002078   0.007043   0.000225   0.000102   0.000089
     9  O   -0.003701   0.002241  -0.000822   0.000772   0.000221   0.000025
    10  O    0.000088  -0.000278  -0.002277  -0.000091  -0.000006   0.000000
    11  H   -0.005193   0.002608  -0.002199   0.001190   0.000110   0.000117
    12  H    0.000171  -0.000410   0.001578  -0.000037  -0.000009  -0.000002
               7          8          9         10         11         12
     1  C   -0.003622  -0.002511  -0.003701   0.000088  -0.005193   0.000171
     2  C    0.000799   0.002078   0.002241  -0.000278   0.002608  -0.000410
     3  C    0.005973   0.007043  -0.000822  -0.002277  -0.002199   0.001578
     4  H    0.000319   0.000225   0.000772  -0.000091   0.001190  -0.000037
     5  H    0.000462   0.000102   0.000221  -0.000006   0.000110  -0.000009
     6  H    0.000048   0.000089   0.000025   0.000000   0.000117  -0.000002
     7  H   -0.019944   0.004976   0.000640   0.000067   0.000093  -0.000133
     8  H    0.004976  -0.029286  -0.000099   0.000007   0.000804  -0.000004
     9  O    0.000640  -0.000099   0.000395  -0.000052   0.000815   0.000180
    10  O    0.000067   0.000007  -0.000052   0.005666   0.000205   0.000462
    11  H    0.000093   0.000804   0.000815   0.000205   0.006673  -0.000096
    12  H   -0.000133  -0.000004   0.000180   0.000462  -0.000096  -0.001352
 Mulliken charges and spin densities:
               1          2
     1  C   -0.281496   0.029868
     2  C    0.167803  -0.022059
     3  C   -0.244274   0.990730
     4  H    0.103803   0.019035
     5  H    0.089675   0.000035
     6  H    0.091237  -0.000591
     7  H    0.094174  -0.010321
     8  H    0.089343  -0.016576
     9  O   -0.174837   0.000615
    10  O   -0.220059   0.003790
    11  H    0.055131   0.005126
    12  H    0.229501   0.000349
 Sum of Mulliken charges =  -0.00000   1.00000
 Mulliken charges and spin densities with hydrogens summed into heavy atoms:
               1          2
     1  C    0.003219   0.048347
     2  C    0.222934  -0.016933
     3  C   -0.060757   0.963832
     9  O   -0.174837   0.000615
    10  O    0.009442   0.004139
 APT charges:
               1
     1  C   -0.988905
     2  C   -0.219025
     3  C   -0.683747
     4  H    0.347979
     5  H    0.289344
     6  H    0.395124
     7  H    0.290634
     8  H    0.374249
     9  O   -0.006144
    10  O   -0.578040
    11  H    0.254433
    12  H    0.524097
 Sum of APT charges =  -0.00000
 APT charges with hydrogens summed into heavy atoms:
               1
     1  C    0.043542
     2  C    0.035408
     3  C   -0.018864
     9  O   -0.006144
    10  O   -0.053943
 Electronic spatial extent (au):  <R**2>=            447.3682
 Charge=             -0.0000 electrons
 Dipole moment (field-independent basis, Debye):
    X=              1.0849    Y=              0.9596    Z=              0.3085  Tot=              1.4809
 Quadrupole moment (field-independent basis, Debye-Ang):
   XX=            -28.8440   YY=            -32.7995   ZZ=            -31.0609
   XY=             -2.4750   XZ=             -2.3561   YZ=              1.1843
 Traceless Quadrupole moment (field-independent basis, Debye-Ang):
   XX=              2.0575   YY=             -1.8980   ZZ=             -0.1595
   XY=             -2.4750   XZ=             -2.3561   YZ=              1.1843
 Octapole moment (field-independent basis, Debye-Ang**2):
  XXX=            -18.3946  YYY=             -8.0815  ZZZ=              1.3611  XYY=             -2.8803
  XXY=              5.8446  XXZ=              4.6999  XZZ=             -2.9963  YZZ=             -0.5812
  YYZ=              0.1175  XYZ=             -1.5611
 Hexadecapole moment (field-independent basis, Debye-Ang**3):
 XXXX=           -310.3287 YYYY=           -192.3376 ZZZZ=            -63.4133 XXXY=            -11.1063
 XXXZ=            -16.1650 YYYX=              1.7132 YYYZ=              1.2287 ZZZX=              0.0820
 ZZZY=              0.7050 XXYY=            -84.1219 XXZZ=            -64.5872 YYZZ=            -41.6076
 XXYZ=              0.5694 YYXZ=             -1.6804 ZZXY=              0.6385
 N-N= 1.880746884884D+02 E-N=-1.005744166630D+03  KE= 2.672420355038D+02
  Exact polarizability:       0.000       0.000       0.000       0.000       0.000       0.000
 Approx polarizability:      66.259      -2.157      62.730      -1.064       1.270      61.571
                          Isotropic Fermi Contact Couplings
        Atom                 a.u.       MegaHertz       Gauss      10(-4) cm-1
     1  C(13)              0.05069      56.98929      20.33520      19.00958
     2  C(13)             -0.01514     -17.02469      -6.07483      -5.67882
     3  C(13)              0.23373     262.76040      93.75945      87.64744
     4  H(1)               0.00691      30.87179      11.01582      10.29772
     5  H(1)              -0.00056      -2.50443      -0.89364      -0.83539
     6  H(1)               0.00028       1.25623       0.44826       0.41903
     7  H(1)              -0.00071      -3.15730      -1.12660      -1.05316
     8  H(1)              -0.00486     -21.71112      -7.74707      -7.24205
     9  O(17)              0.00923      -5.59300      -1.99572      -1.86562
    10  O(17)             -0.00148       0.89794       0.32041       0.29952
    11  H(1)               0.00423      18.92153       6.75167       6.31154
    12  H(1)               0.00011       0.47764       0.17043       0.15932
 --------------------------------------------------------
       Center         ----  Spin Dipole Couplings  ----
                      3XX-RR        3YY-RR        3ZZ-RR
 --------------------------------------------------------
     1   Atom        0.006412      0.025750     -0.032162
     2   Atom       -0.025511      0.051495     -0.025984
     3   Atom        0.543926     -0.110738     -0.433187
     4   Atom       -0.002799      0.007241     -0.004443
     5   Atom       -0.003703      0.002989      0.000715
     6   Atom        0.007738     -0.000905     -0.006833
     7   Atom       -0.021561     -0.043711      0.065272
     8   Atom        0.037504     -0.018548     -0.018956
     9   Atom        0.003355     -0.001288     -0.002067
    10   Atom       -0.012988      0.030953     -0.017965
    11   Atom       -0.009110      0.006314      0.002796
    12   Atom        0.007705     -0.002620     -0.005085
 --------------------------------------------------------
                        XY            XZ            YZ
 --------------------------------------------------------
     1   Atom       -0.048706      0.006708     -0.010008
     2   Atom       -0.007784      0.003120     -0.010181
     3   Atom       -0.666528      0.315572     -0.199541
     4   Atom       -0.000864      0.001170      0.002506
     5   Atom       -0.006492      0.006154     -0.005588
     6   Atom       -0.006506     -0.005736      0.002337
     7   Atom       -0.023093      0.014432      0.016060
     8   Atom        0.016349     -0.036322     -0.040751
     9   Atom        0.007194     -0.008145     -0.010789
    10   Atom        0.004189      0.000536     -0.001344
    11   Atom        0.001518      0.003005      0.015688
    12   Atom        0.006507     -0.003358     -0.000097
 --------------------------------------------------------


 ---------------------------------------------------------------------------------
              Anisotropic Spin Dipole Couplings in Principal Axis System
 ---------------------------------------------------------------------------------

       Atom             a.u.   MegaHertz   Gauss  10(-4) cm-1        Axes

              Baa    -0.0348    -4.663    -1.664    -1.555  0.4890  0.5106  0.7072
     1 C(13)  Bbb    -0.0324    -4.353    -1.553    -1.452 -0.6045 -0.3862  0.6968
              Bcc     0.0672     9.016     3.217     3.007 -0.6289  0.7682 -0.1198
 
              Baa    -0.0290    -3.886    -1.387    -1.296 -0.6201  0.0391  0.7835
     2 C(13)  Bbb    -0.0247    -3.312    -1.182    -1.105  0.7778  0.1607  0.6076
              Bcc     0.0536     7.199     2.569     2.401 -0.1021  0.9862 -0.1301
 
              Baa    -0.5290   -70.981   -25.328   -23.677  0.1733  0.6353  0.7526
     3 C(13)  Bbb    -0.5240   -70.316   -25.091   -23.455 -0.5410 -0.5771  0.6118
              Bcc     1.0530   141.297    50.418    47.132  0.8230 -0.5132  0.2437
 
              Baa    -0.0056    -2.982    -1.064    -0.995 -0.4312 -0.2009  0.8796
     4 H(1)   Bbb    -0.0022    -1.176    -0.419    -0.392  0.9004 -0.0328  0.4338
              Bcc     0.0078     4.157     1.483     1.387 -0.0583  0.9791  0.1950
 
              Baa    -0.0087    -4.638    -1.655    -1.547  0.8704  0.2952 -0.3940
     5 H(1)   Bbb    -0.0038    -2.021    -0.721    -0.674  0.0943  0.6856  0.7219
              Bcc     0.0125     6.659     2.376     2.221 -0.4833  0.6655 -0.5689
 
              Baa    -0.0088    -4.707    -1.679    -1.570  0.3221 -0.0147  0.9466
     6 H(1)   Bbb    -0.0043    -2.299    -0.820    -0.767  0.4226  0.8970 -0.1299
              Bcc     0.0131     7.006     2.500     2.337  0.8472 -0.4418 -0.2951
 
              Baa    -0.0618   -32.983   -11.769   -11.002  0.5347  0.8287 -0.1654
     7 H(1)   Bbb    -0.0072    -3.836    -1.369    -1.280  0.8353 -0.5479 -0.0449
              Bcc     0.0690    36.819    13.138    12.281  0.1279  0.1142  0.9852
 
              Baa    -0.0619   -33.048   -11.792   -11.024  0.1684  0.6403  0.7494
     8 H(1)   Bbb    -0.0068    -3.615    -1.290    -1.206 -0.6036  0.6681 -0.4352
              Bcc     0.0687    36.664    13.083    12.230  0.7793  0.3790 -0.4990
 
              Baa    -0.0125     0.908     0.324     0.303  0.0824  0.6616  0.7453
     9 O(17)  Bbb    -0.0049     0.355     0.127     0.119  0.7882 -0.5009  0.3575
              Bcc     0.0175    -1.263    -0.451    -0.421  0.6098  0.5580 -0.5628
 
              Baa    -0.0181     1.309     0.467     0.437 -0.1357  0.0387  0.9900
    10 O(17)  Bbb    -0.0133     0.962     0.343     0.321  0.9863 -0.0892  0.1387
              Bcc     0.0314    -2.271    -0.810    -0.757  0.0936  0.9953 -0.0261
 
              Baa    -0.0119    -6.323    -2.256    -2.109 -0.4501 -0.5618  0.6941
    11 H(1)   Bbb    -0.0088    -4.706    -1.679    -1.570  0.8868 -0.3725  0.2735
              Bcc     0.0207    11.029     3.936     3.679  0.1048  0.7387  0.6659
 
              Baa    -0.0071    -3.768    -1.345    -1.257  0.4191 -0.5990  0.6823
    12 H(1)   Bbb    -0.0044    -2.326    -0.830    -0.776 -0.1726  0.6852  0.7076
              Bcc     0.0114     6.094     2.175     2.033  0.8914  0.4143 -0.1838
 

 ---------------------------------------------------------------------------------

 No NMR shielding tensors so no spin-rotation constants.
 Leave Link  601 at Thu Apr  7 11:34:51 2022, MaxMem=  1073741824 cpu:               2.3 elap:               0.3
 (Enter /home/saurabh/gaussian/g16/l701.exe)
 ... and contract with generalized density number  0.
 Compute integral second derivatives.
 Leave Link  701 at Thu Apr  7 11:34:51 2022, MaxMem=  1073741824 cpu:               1.6 elap:               0.2
 (Enter /home/saurabh/gaussian/g16/l702.exe)
 L702 exits ... SP integral derivatives will be done elsewhere.
 Leave Link  702 at Thu Apr  7 11:34:51 2022, MaxMem=  1073741824 cpu:               0.1 elap:               0.0
 (Enter /home/saurabh/gaussian/g16/l703.exe)
 Integral derivatives from FoFJK, PRISM(SPDF).
 Compute integral second derivatives, UseDBF=F ICtDFT=           0.
 Calling FoFJK, ICntrl=    100127 FMM=F ISym2X=0 I1Cent= 0 IOpClX= 1 NMat=1 NMatS=1 NMatT=0.
 FoFJK:  IHMeth= 1 ICntrl=  100127 DoSepK=F KAlg= 0 I1Cent=           0 FoldK=F
 IRaf=         0 NMat=       1 IRICut=       1 DoRegI=T DoRafI=F ISym2E= 0 IDoP0=0 IntGTp=1.
 FoFCou: FMM=F IPFlag=           0 FMFlag=      100000 FMFlg1=         800
         NFxFlg=           0 DoJE=F BraDBF=F KetDBF=F FulRan=T
         wScrn=  0.000000 ICntrl=    100127 IOpCl=  1 I1Cent=           0 NGrid=           0
         NMat0=    1 NMatS0=      1 NMatT0=    0 NMatD0=    1 NMtDS0=    0 NMtDT0=    0
 Symmetry not used in FoFCou.
 Leave Link  703 at Thu Apr  7 11:36:17 2022, MaxMem=  1073741824 cpu:             681.1 elap:              85.2
 (Enter /home/saurabh/gaussian/g16/l716.exe)
 Dipole        = 4.26845868D-01 3.77537254D-01 1.21374318D-01
 Polarizability= 0.00000000D+00 0.00000000D+00 0.00000000D+00
                 0.00000000D+00 0.00000000D+00 0.00000000D+00
 ***** Axes restored to original set *****
 -------------------------------------------------------------------
 Center     Atomic                   Forces (Hartrees/Bohr)
 Number     Number              X              Y              Z
 -------------------------------------------------------------------
      1        6          -0.009013644   -0.001430783    0.008727499
      2        6           0.004512189   -0.022863931   -0.019485601
      3        6          -0.041649345   -0.014480709    0.014068776
      4        1           0.007432491   -0.009824363    0.000715522
      5        1          -0.002862738    0.003366231   -0.011864505
      6        1           0.006130088    0.009838787    0.007790476
      7        1           0.010964396    0.006264394   -0.012800513
      8        1           0.015864245    0.009058818   -0.000035420
      9        8          -0.067721395   -0.027726781    0.047167131
     10        8           0.087550420    0.041544113   -0.037023483
     11        1           0.005485713    0.002018322    0.012811699
     12        1          -0.016692420    0.004235902   -0.010071582
 -------------------------------------------------------------------
 Cartesian Forces:  Max     0.087550420 RMS     0.025455297
 Force constants in Cartesian coordinates: 
                1             2             3             4             5 
      1  0.457632D+00
      2 -0.126863D-01  0.521132D+00
      3  0.274187D-01  0.995663D-02  0.513438D+00
      4 -0.140611D+00 -0.628986D-02  0.398128D-01  0.430462D+00
      5 -0.292747D-01 -0.738798D-01  0.119142D-01  0.234341D-01  0.453167D+00
      6  0.365045D-01  0.925425D-03 -0.981655D-01  0.114648D-01 -0.250727D-01
      7 -0.291739D-01  0.245532D-01  0.165821D-02 -0.103358D+00  0.316271D-01
      8  0.974637D-02  0.431114D-02 -0.144147D-02  0.551881D-01 -0.116829D+00
      9  0.922525D-02 -0.821876D-02  0.723795D-03 -0.166396D-01  0.153704D-01
     10 -0.126310D+00  0.105356D+00 -0.426310D-02 -0.214142D-01  0.241250D-01
     11  0.107195D+00 -0.193016D+00  0.534412D-02 -0.665894D-02  0.557840D-02
     12 -0.425284D-02  0.616111D-02 -0.507980D-01  0.929657D-02 -0.111274D-01
     13 -0.541486D-01  0.786997D-02 -0.240647D-01  0.232190D-02 -0.798967D-02
     14  0.768548D-02 -0.715497D-01  0.627403D-01  0.220766D-03 -0.352164D-02
     15 -0.220890D-01  0.628194D-01 -0.246863D+00  0.353130D-03  0.374829D-02
     16 -0.883391D-01 -0.666835D-01 -0.485831D-01 -0.974858D-02 -0.196167D-01
     17 -0.690335D-01 -0.168153D+00 -0.878122D-01 -0.123252D-02 -0.681796D-02
     18 -0.506746D-01 -0.891061D-01 -0.115941D+00  0.361296D-02  0.996083D-02
     19  0.246347D-02 -0.230809D-02 -0.987681D-03 -0.185758D-02  0.121677D-01
     20 -0.481196D-03 -0.959649D-03  0.545863D-03  0.758915D-02 -0.435601D-02
     21 -0.102874D-03  0.182642D-03  0.470763D-03  0.736172D-03 -0.212696D-02
     22  0.846401D-04 -0.181831D-02  0.242428D-03  0.975383D-02  0.146432D-01
     23 -0.642802D-03 -0.423012D-03  0.204022D-04 -0.133942D-01 -0.107883D-01
     24 -0.501398D-03  0.126954D-02 -0.278950D-03 -0.400341D-02 -0.187321D-02
     25 -0.201544D-01 -0.269587D-01 -0.143263D-01 -0.738496D-01 -0.374785D-01
     26 -0.127601D-01 -0.928965D-02 -0.502275D-02 -0.218086D-01 -0.140433D+00
     27  0.601866D-02  0.119244D-01  0.852091D-02 -0.356844D-02 -0.581949D-01
     28 -0.139442D-02 -0.933029D-02 -0.507372D-02 -0.364320D-01 -0.248308D-01
     29  0.380067D-03 -0.423045D-02 -0.341593D-02 -0.406996D-01 -0.255945D-01
     30 -0.302764D-02 -0.209425D-02  0.386976D-03 -0.121105D-01 -0.735454D-03
     31  0.137741D-03 -0.107594D-01  0.287418D-01 -0.514101D-01  0.119945D-01
     32  0.589656D-03 -0.177692D-02  0.763828D-02  0.986038D-02 -0.782538D-01
     33  0.106913D-02  0.602079D-02 -0.123658D-01 -0.280741D-01  0.598777D-01
     34 -0.186668D-03 -0.944612D-03 -0.575348D-03 -0.385738D-02  0.119867D-02
     35 -0.718337D-03 -0.216520D-02 -0.467436D-03 -0.620886D-02  0.172795D-02
     36  0.412020D-03  0.159142D-03  0.871372D-03 -0.880360D-03 -0.174075D-02
                6             7             8             9            10 
      6  0.554140D+00
      7 -0.491796D-02  0.240058D+00
      8  0.184498D-02 -0.175276D-01  0.415739D+00
      9 -0.800222D-01  0.101734D+00  0.352949D-01  0.452217D+00
     10  0.598380D-03 -0.545616D-02 -0.212568D-02  0.259820D-02  0.140290D+00
     11  0.565859D-03 -0.756179D-04 -0.636754D-04 -0.510419D-03 -0.118404D+00
     12 -0.131238D-02  0.229120D-02  0.861883D-03 -0.136171D-03  0.170486D-02
     13  0.300023D-01  0.215666D-02 -0.155290D-02  0.744931D-03 -0.189987D-02
     14  0.852892D-02  0.422677D-03 -0.209832D-03 -0.122125D-02  0.168531D-02
     15 -0.146641D-01 -0.135515D-02  0.511773D-03  0.772834D-03 -0.481433D-03
     16 -0.185451D-01  0.661001D-03 -0.393725D-03 -0.511098D-03  0.862539D-02
     17 -0.441291D-02  0.100789D-02 -0.222987D-03 -0.748296D-04 -0.108051D-01
     18  0.660170D-02  0.120205D-03 -0.114590D-03  0.000000D+00  0.112030D-02
     19 -0.211123D-01 -0.406100D-01  0.845337D-02 -0.201209D-01  0.757607D-03
     20  0.249638D-01  0.193185D-01 -0.746402D-01  0.668839D-01  0.135919D-03
     21 -0.305843D-02 -0.484431D-01  0.644307D-01 -0.252546D+00 -0.139095D-03
     22  0.755914D-02 -0.741971D-01 -0.716883D-01 -0.683807D-01  0.789410D-03
     23 -0.161804D-01 -0.537030D-01 -0.178196D+00 -0.982196D-01  0.260610D-03
     24  0.266887D-02 -0.489732D-01 -0.871220D-01 -0.116695D+00 -0.358297D-03
     25 -0.435497D-01  0.113301D-01  0.892296D-02  0.108394D-01  0.216231D-02
     26 -0.917331D-01 -0.129686D-01 -0.428919D-01 -0.331797D-01  0.166844D-03
     27 -0.150485D+00  0.164695D-03 -0.174806D-01 -0.509796D-02 -0.502122D-03
     28  0.253539D-01  0.343871D-02  0.984794D-03 -0.216925D-03  0.859325D-03
     29  0.307433D-01  0.173059D-02  0.800260D-03  0.412303D-03 -0.523636D-03
     30  0.129156D-01 -0.473951D-03  0.459168D-03 -0.607380D-04 -0.664845D-04
     31 -0.248598D-01 -0.448142D-02  0.101867D-01 -0.188328D-01  0.137318D-02
     32  0.688430D-01  0.535332D-02 -0.766846D-02  0.231423D-01 -0.251248D-03
     33 -0.226546D+00 -0.108362D-02  0.282159D-02  0.167537D-03 -0.206327D-03
     34  0.150179D-02 -0.368145D-03 -0.194072D-03 -0.439629D-03  0.223064D-03
     35  0.983948D-03  0.261567D-03 -0.128592D-03  0.320795D-03  0.379679D-03
     36 -0.207175D-02 -0.721036D-03 -0.662373D-04  0.678163D-03 -0.488438D-05
               11            12            13            14            15 
     11  0.209615D+00
     12 -0.608961D-02  0.508706D-01
     13  0.432486D-02 -0.174083D-01  0.573914D-01
     14 -0.691090D-02  0.237201D-01 -0.759520D-02  0.727057D-01
     15 -0.131428D-04  0.332467D-03  0.216549D-01 -0.719677D-01  0.272334D+00
     16  0.128459D-01  0.106191D-01 -0.187590D-02 -0.123782D-02 -0.140114D-02
     17 -0.171864D-01 -0.129356D-01  0.508541D-02  0.811295D-02  0.499684D-02
     18  0.117174D-02  0.433199D-04 -0.117004D-01 -0.218120D-01 -0.142045D-01
     19 -0.263297D-04 -0.190484D-03 -0.188571D-03 -0.676847D-05  0.521238D-03
     20  0.187550D-03 -0.437855D-03  0.312767D-03  0.479843D-03 -0.593928D-03
     21 -0.118660D-03  0.297238D-03 -0.386692D-03 -0.125675D-03  0.359542D-03
     22 -0.245134D-04 -0.144676D-03 -0.248802D-03  0.490534D-04  0.157478D-03
     23  0.248729D-03  0.227333D-03  0.585050D-04  0.306622D-04  0.365205D-04
     24  0.123336D-03  0.721425D-04  0.640490D-04 -0.124582D-03 -0.258739D-04
     25 -0.593911D-04 -0.111689D-02  0.131843D-02  0.329987D-03 -0.934961D-04
     26  0.696271D-03  0.380911D-03  0.110746D-02  0.604356D-03 -0.197029D-03
     27  0.237595D-03  0.435563D-03 -0.170064D-03  0.532810D-03  0.996789D-03
     28  0.393164D-03 -0.211864D-03 -0.640180D-04  0.377883D-04  0.349449D-04
     29  0.131291D-03 -0.178443D-04 -0.116366D-03 -0.205591D-03  0.879373D-04
     30 -0.109605D-03 -0.722733D-04 -0.656298D-03 -0.516919D-03  0.400358D-03
     31  0.465258D-03 -0.521722D-03 -0.475165D-02 -0.156225D-02  0.266625D-02
     32  0.662105D-03 -0.612706D-03 -0.145516D-02  0.431159D-03  0.535289D-03
     33 -0.648340D-03  0.334624D-03  0.203788D-02  0.269896D-03  0.578354D-03
     34  0.238355D-04 -0.650455D-04 -0.109855D-04 -0.290302D-04  0.323169D-04
     35  0.579155D-04 -0.130362D-03 -0.496730D-04  0.329918D-04  0.356914D-04
     36  0.471314D-04 -0.671278D-04 -0.117581D-03 -0.239302D-04 -0.168109D-04
               16            17            18            19            20 
     16  0.962637D-01
     17  0.762273D-01  0.183347D+00
     18  0.539555D-01  0.984769D-01  0.123058D+00
     19 -0.388719D-03 -0.276230D-04  0.734172D-05  0.376295D-01
     20 -0.220969D-04  0.843279D-04 -0.101794D-03 -0.224697D-01  0.724987D-01
     21  0.148872D-03  0.687609D-04 -0.717702D-05  0.510421D-01 -0.703816D-01
     22 -0.400562D-03  0.583800D-03  0.398997D-03  0.366449D-02 -0.552844D-02
     23  0.669208D-03  0.561290D-03  0.100551D-03  0.249376D-02  0.777608D-02
     24  0.246919D-03 -0.198550D-04  0.301355D-03 -0.114058D-01 -0.203492D-01
     25 -0.338480D-02 -0.106770D-02  0.227172D-02  0.481763D-03 -0.171998D-02
     26 -0.143498D-03  0.122164D-03  0.669581D-03 -0.136935D-02  0.356650D-02
     27  0.413099D-02  0.181029D-02 -0.647266D-03  0.114743D-02 -0.706193D-03
     28 -0.220329D-02 -0.733649D-03  0.127157D-02 -0.240487D-03 -0.668809D-03
     29 -0.132029D-02  0.361347D-03  0.453731D-03 -0.302356D-03 -0.434673D-03
     30 -0.455008D-03 -0.612642D-03  0.375964D-03 -0.184128D-03  0.233961D-04
     31  0.102392D-02  0.163104D-03 -0.620601D-03 -0.172640D-02  0.346158D-02
     32  0.131722D-03  0.156123D-04  0.935862D-04  0.341555D-02 -0.373081D-02
     33  0.281465D-03  0.371435D-03  0.532311D-03  0.102862D-02 -0.857398D-04
     34 -0.233040D-03 -0.167375D-03  0.237029D-03  0.149651D-04  0.723545D-04
     35 -0.456488D-03 -0.224384D-03  0.207459D-03 -0.201632D-04 -0.471628D-03
     36  0.112600D-03  0.143702D-03 -0.111767D-03  0.254518D-03  0.239274D-03
               21            22            23            24            25 
     21  0.264674D+00
     22 -0.352553D-02  0.622105D-01
     23  0.658691D-02  0.602213D-01  0.187582D+00
     24 -0.132462D-01  0.628100D-01  0.108251D+00  0.125153D+00
     25  0.970332D-03 -0.170033D-02  0.421658D-02  0.738033D-03  0.385637D+00
     26  0.669369D-03  0.496891D-02 -0.836259D-02 -0.330324D-03  0.223974D+00
     27  0.198404D-02  0.146426D-02 -0.204485D-02  0.210400D-02 -0.164173D+00
     28  0.828767D-04 -0.390533D-03  0.659705D-04  0.577544D-03 -0.257960D+00
     29  0.194846D-03 -0.103122D-02  0.715848D-03  0.383465D-03 -0.130178D+00
     30 -0.288925D-04 -0.243525D-03 -0.954467D-04 -0.143153D-04  0.168693D+00
     31 -0.351686D-03  0.214482D-03 -0.212908D-03  0.898291D-03 -0.618469D-02
     32  0.290606D-03 -0.653309D-03  0.624047D-03 -0.496127D-03 -0.119700D-01
     33  0.131432D-02 -0.471455D-03  0.114831D-02  0.239137D-03 -0.824750D-02
     34 -0.313776D-04  0.220040D-03 -0.330172D-04 -0.927343D-04 -0.376958D-01
     35  0.329051D-03  0.277814D-03  0.231566D-03  0.288281D-03 -0.280109D-01
     36 -0.212672D-03  0.133548D-03  0.169639D-03 -0.278207D-03  0.479944D-01
               26            27            28            29            30 
     26  0.288609D+00
     27  0.116242D-01  0.338041D+00
     28 -0.169180D+00  0.168016D+00  0.582334D+00
     29 -0.955903D-01  0.973096D-01  0.968781D-01  0.182506D+00
     30  0.124043D+00 -0.176463D+00 -0.209293D-01 -0.198131D+00  0.281925D+00
     31 -0.607589D-02 -0.150806D-01  0.145881D-02  0.137719D-02 -0.255478D-02
     32 -0.111325D-03 -0.324457D-01  0.379328D-02  0.279519D-02 -0.216399D-02
     33 -0.595538D-02 -0.255825D-01  0.315485D-02  0.107469D-02  0.376038D-02
     34 -0.591087D-02  0.255184D-02 -0.289406D+00  0.738056D-01 -0.127991D+00
     35  0.308076D-02 -0.125665D-01  0.102591D+00 -0.612546D-01  0.799338D-01
     36 -0.968268D-03  0.619383D-02 -0.172060D+00  0.709047D-01 -0.123125D+00
               31            32            33            34            35 
     31  0.642397D-01
     32 -0.906822D-02  0.872417D-01
     33  0.301896D-01 -0.651896D-01  0.257176D+00
     34  0.106411D-03  0.254017D-03  0.321524D-03  0.331194D+00
     35  0.302545D-04 -0.228533D-03  0.294681D-03 -0.680755D-01  0.593417D-01
     36  0.326083D-03  0.365065D-03  0.391656D-03  0.124551D+00 -0.692294D-01
               36 
     36  0.117749D+00
 FormGI is forming the generalized inverse of G from B-inverse, IUseBI=4.
 Leave Link  716 at Thu Apr  7 11:36:17 2022, MaxMem=  1073741824 cpu:               0.2 elap:               0.0
 (Enter /home/saurabh/gaussian/g16/l103.exe)

 GradGradGradGradGradGradGradGradGradGradGradGradGradGradGradGradGradGrad
 Berny optimization.
 Red2BG is reusing G-inverse.
 Internal  Forces:  Max     0.096159217 RMS     0.016179423
 Search for a local minimum.
 Step number   1 out of a maximum of  100
 All quantities printed in internal units (Hartrees-Bohrs-Radians)
 RMS Force = .16179D-01 SwitMx=.10000D-02 MixMth= 1
 Mixed Optimization -- RFO/linear search
 Second derivative matrix not updated -- analytic derivatives used.
 ITU=  0
     Eigenvalues ---    0.00192   0.00271   0.00493   0.00779   0.03548
     Eigenvalues ---    0.04301   0.04406   0.04780   0.05751   0.06505
     Eigenvalues ---    0.10771   0.12017   0.13049   0.13915   0.14211
     Eigenvalues ---    0.17624   0.18296   0.23421   0.24004   0.27420
     Eigenvalues ---    0.28349   0.29641   0.29758   0.30007   0.30145
     Eigenvalues ---    0.30644   0.33373   0.40207   0.41234   0.64078
 RFO step:  Lambda=-3.06162123D-02 EMin= 1.92359524D-03
 Linear search not attempted -- first point.
 Iteration  1 RMS(Cart)=  0.05718076 RMS(Int)=  0.00601176
 Iteration  2 RMS(Cart)=  0.00514171 RMS(Int)=  0.00348110
 Iteration  3 RMS(Cart)=  0.00005845 RMS(Int)=  0.00348081
 Iteration  4 RMS(Cart)=  0.00000083 RMS(Int)=  0.00348081
 ITry= 1 IFail=0 DXMaxC= 1.70D-01 DCOld= 1.00D+10 DXMaxT= 3.00D-01 DXLimC= 3.00D+00 Rises=F
 Variable       Old X    -DE/DX   Delta X   Delta X   Delta X     New X
                                 (Linear)    (Quad)   (Total)
    R1        2.88714   0.00008   0.00000   0.00683   0.00683   2.89397
    R2        2.09909  -0.01233   0.00000  -0.03749  -0.03749   2.06159
    R3        2.10003  -0.01254   0.00000  -0.03883  -0.03883   2.06120
    R4        2.09971  -0.01396   0.00000  -0.04035  -0.04035   2.05936
    R5        2.88959  -0.00968   0.00000  -0.06730  -0.06730   2.82229
    R6        2.66117   0.01462   0.00000   0.03870   0.03870   2.69987
    R7        2.10825  -0.01232   0.00000  -0.03929  -0.03929   2.06896
    R8        2.09969  -0.01223   0.00000  -0.04464  -0.04464   2.05506
    R9        2.09927  -0.01274   0.00000  -0.04675  -0.04675   2.05252
   R10        2.49694   0.09616   0.00000   0.16375   0.16375   2.66069
   R11        1.87383  -0.01985   0.00000  -0.05015  -0.05015   1.82369
    A1        1.91634  -0.00005   0.00000   0.00021   0.00020   1.91654
    A2        1.92902   0.00248   0.00000   0.00436   0.00436   1.93338
    A3        1.92605  -0.00050   0.00000  -0.00463  -0.00462   1.92143
    A4        1.89670  -0.00107   0.00000   0.00000  -0.00000   1.89670
    A5        1.89294   0.00021   0.00000   0.00524   0.00524   1.89818
    A6        1.90215  -0.00113   0.00000  -0.00513  -0.00513   1.89701
    A7        1.92895  -0.00096   0.00000   0.02160   0.02157   1.95051
    A8        1.89873  -0.00630   0.00000  -0.05330  -0.05340   1.84533
    A9        1.86925   0.00485   0.00000   0.02846   0.02754   1.89679
   A10        1.91993   0.00701   0.00000   0.03023   0.03068   1.95061
   A11        1.91172  -0.00123   0.00000   0.00455   0.00403   1.91575
   A12        1.93475  -0.00354   0.00000  -0.03212  -0.03203   1.90272
   A13        1.93545   0.01230   0.00000   0.09048   0.07915   2.01460
   A14        1.93343   0.01454   0.00000   0.09823   0.08693   2.02035
   A15        1.91329  -0.00215   0.00000   0.07284   0.05717   1.97046
   A16        1.86289   0.02064   0.00000   0.01620   0.01620   1.87910
   A17        1.83023   0.00207   0.00000  -0.04009  -0.04009   1.79015
    D1       -3.13045   0.00112   0.00000  -0.00569  -0.00601  -3.13646
    D2        1.04307  -0.00291   0.00000  -0.02233  -0.02234   1.02073
    D3       -1.04909   0.00201   0.00000   0.02905   0.02938  -1.01971
    D4        1.06052   0.00091   0.00000  -0.00858  -0.00890   1.05162
    D5       -1.04914  -0.00312   0.00000  -0.02522  -0.02523  -1.07437
    D6       -3.14130   0.00180   0.00000   0.02616   0.02649  -3.11481
    D7       -1.04476   0.00103   0.00000  -0.00198  -0.00230  -1.04705
    D8        3.12877  -0.00300   0.00000  -0.01862  -0.01862   3.11014
    D9        1.03661   0.00192   0.00000   0.03277   0.03310   1.06970
   D10       -1.07314  -0.00524   0.00000  -0.08536  -0.08878  -1.16192
   D11        1.05544   0.01044   0.00000   0.13668   0.13978   1.19522
   D12        1.02385  -0.00918   0.00000  -0.11840  -0.12161   0.90224
   D13       -3.13075   0.00651   0.00000   0.10364   0.10695  -3.02380
   D14       -3.12863  -0.00986   0.00000  -0.13588  -0.13904   3.01552
   D15       -1.00004   0.00583   0.00000   0.08616   0.08952  -0.91052
   D16       -2.78890  -0.00194   0.00000  -0.01993  -0.02082  -2.80972
   D17        1.37909  -0.00111   0.00000  -0.03155  -0.03156   1.34753
   D18       -0.73790  -0.00191   0.00000  -0.03630  -0.03539  -0.77329
   D19       -1.91443   0.00306   0.00000   0.03819   0.03819  -1.87624
         Item               Value     Threshold  Converged?
 Maximum Force            0.096159     0.000450     NO 
 RMS     Force            0.016179     0.000300     NO 
 Maximum Displacement     0.169932     0.001800     NO 
 RMS     Displacement     0.055464     0.001200     NO 
 Predicted change in Energy=-1.775016D-02
 Lowest energy point so far.  Saving SCF results.
 GradGradGradGradGradGradGradGradGradGradGradGradGradGradGradGradGradGrad

 Leave Link  103 at Thu Apr  7 11:36:17 2022, MaxMem=  1073741824 cpu:               0.2 elap:               0.0
 (Enter /home/saurabh/gaussian/g16/l202.exe)
                          Input orientation:                          
 ---------------------------------------------------------------------
 Center     Atomic      Atomic             Coordinates (Angstroms)
 Number     Number       Type             X           Y           Z
 ---------------------------------------------------------------------
      1          6           0       -3.367936    1.214818    0.188680
      2          6           0       -1.996579    1.527015   -0.417266
      3          6           0       -1.096363    0.335575   -0.392845
      4          1           0       -4.000089    2.103109    0.150079
      5          1           0       -3.269071    0.901490    1.228762
      6          1           0       -3.851897    0.415653   -0.372308
      7          1           0       -0.794418   -0.001331    0.596072
      8          1           0       -1.377526   -0.482004   -1.050287
      9          8           0       -1.468150    2.606096    0.355748
     10          8           0       -0.448055    3.214078   -0.400662
     11          1           0       -2.137728    1.863290   -1.449584
     12          1           0        0.351499    2.933418    0.061152
 ---------------------------------------------------------------------
                    Distance matrix (angstroms):
                    1          2          3          4          5
     1  C    0.000000
[...]
    D9        1.08442  -0.00000   0.00000  -0.00014  -0.00014   1.08428
   D10       -1.06376  -0.00000   0.00000   0.00077   0.00077  -1.06299
   D11        2.05592   0.00000   0.00000   0.00182   0.00182   2.05774
   D12        0.96842  -0.00000   0.00000   0.00077   0.00077   0.96920
   D13       -2.19509   0.00000   0.00000   0.00183   0.00183  -2.19326
   D14        3.06043  -0.00000   0.00000   0.00079   0.00079   3.06122
   D15       -0.10308   0.00000   0.00000   0.00185   0.00185  -0.10123
   D16       -2.93776  -0.00000   0.00000  -0.00003  -0.00003  -2.93778
   D17        1.21500   0.00000   0.00000  -0.00000  -0.00000   1.21500
   D18       -0.90552  -0.00000   0.00000  -0.00003  -0.00003  -0.90555
   D19       -1.73042  -0.00000   0.00000  -0.00062  -0.00062  -1.73104
         Item               Value     Threshold  Converged?
 Maximum Force            0.000037     0.000450     YES
 RMS     Force            0.000007     0.000300     YES
 Maximum Displacement     0.002027     0.001800     NO 
 RMS     Displacement     0.000479     0.001200     YES
 Predicted change in Energy=-8.034846D-09
                           ----------------------------
                           ! Non-Optimized Parameters !
                           ! (Angstroms and Degrees)  !
 --------------------------                            --------------------------
 ! Name  Definition              Value          Derivative Info.                !
 --------------------------------------------------------------------------------
 ! R1    R(1,2)                  1.5292         -DE/DX =    0.0                 !
 ! R2    R(1,4)                  1.0898         -DE/DX =    0.0                 !
 ! R3    R(1,5)                  1.0901         -DE/DX =    0.0                 !
 ! R4    R(1,6)                  1.0893         -DE/DX =    0.0                 !
 ! R5    R(2,3)                  1.4859         -DE/DX =    0.0                 !
 ! R6    R(2,9)                  1.4451         -DE/DX =    0.0                 !
 ! R7    R(2,11)                 1.0922         -DE/DX =    0.0                 !
 ! R8    R(3,7)                  1.0824         -DE/DX =    0.0                 !
 ! R9    R(3,8)                  1.0796         -DE/DX =    0.0                 !
 ! R10   R(9,10)                 1.4483         -DE/DX =    0.0                 !
 ! R11   R(10,12)                0.9669         -DE/DX =    0.0                 !
 ! A1    A(2,1,4)              110.1536         -DE/DX =    0.0                 !
 ! A2    A(2,1,5)              110.5528         -DE/DX =    0.0                 !
 ! A3    A(2,1,6)              109.8786         -DE/DX =    0.0                 !
 ! A4    A(4,1,5)              108.8119         -DE/DX =    0.0                 !
 ! A5    A(4,1,6)              108.9386         -DE/DX =    0.0                 !
 ! A6    A(5,1,6)              108.4626         -DE/DX =    0.0                 !
 ! A7    A(1,2,3)              113.1057         -DE/DX =    0.0                 !
 ! A8    A(1,2,9)              103.6274         -DE/DX =    0.0                 !
 ! A9    A(1,2,11)             109.9112         -DE/DX =    0.0                 !
 ! A10   A(3,2,9)              111.6726         -DE/DX =    0.0                 !
 ! A11   A(3,2,11)             110.5028         -DE/DX =    0.0                 !
 ! A12   A(9,2,11)             107.7031         -DE/DX =    0.0                 !
 ! A13   A(2,3,7)              119.365          -DE/DX =    0.0                 !
 ! A14   A(2,3,8)              121.9362         -DE/DX =    0.0                 !
 ! A15   A(7,3,8)              118.6883         -DE/DX =    0.0                 !
 ! A16   A(2,9,10)             108.201          -DE/DX =    0.0                 !
 ! A17   A(9,10,12)            101.3217         -DE/DX =    0.0                 !
 ! D1    D(4,1,2,3)            178.0781         -DE/DX =    0.0                 !
 ! D2    D(4,1,2,9)             56.9753         -DE/DX =    0.0                 !
 ! D3    D(4,1,2,11)           -57.8971         -DE/DX =    0.0                 !
 ! D4    D(5,1,2,3)             57.7834         -DE/DX =    0.0                 !
 ! D5    D(5,1,2,9)            -63.3194         -DE/DX =    0.0                 !
 ! D6    D(5,1,2,11)          -178.1919         -DE/DX =    0.0                 !
 ! D7    D(6,1,2,3)            -61.9002         -DE/DX =    0.0                 !
 ! D8    D(6,1,2,9)            176.997          -DE/DX =    0.0                 !
 ! D9    D(6,1,2,11)            62.1246         -DE/DX =    0.0                 !
 ! D10   D(1,2,3,7)            -60.9047         -DE/DX =    0.0                 !
 ! D11   D(1,2,3,8)            117.9            -DE/DX =    0.0                 !
 ! D12   D(9,2,3,7)             55.5308         -DE/DX =    0.0                 !
 ! D13   D(9,2,3,8)           -125.6645         -DE/DX =    0.0                 !
 ! D14   D(11,2,3,7)           175.3951         -DE/DX =    0.0                 !
 ! D15   D(11,2,3,8)            -5.8002         -DE/DX =    0.0                 !
 ! D16   D(1,2,9,10)          -168.3226         -DE/DX =    0.0                 !
 ! D17   D(3,2,9,10)            69.6144         -DE/DX =    0.0                 !
 ! D18   D(11,2,9,10)          -51.8844         -DE/DX =    0.0                 !
 ! D19   D(2,9,10,12)          -99.1811         -DE/DX =    0.0                 !
 --------------------------------------------------------------------------------
 GradGradGradGradGradGradGradGradGradGradGradGradGradGradGradGradGradGrad

 Leave Link  103 at Thu Apr  7 11:46:17 2022, MaxMem=  1073741824 cpu:               0.1 elap:               0.0
 (Enter /home/saurabh/gaussian/g16/l9999.exe)

 ----------------------------------------------------------------------

 Electric dipole moment (input orientation):
 (Debye = 10**-18 statcoulomb cm , SI units = C m)
                  (au)            (Debye)         (10**-30 SI)
   Tot        0.781654D+00      0.198677D+01      0.662714D+01
   x          0.858492D-01      0.218207D+00      0.727860D+00
   y         -0.776639D+00     -0.197402D+01     -0.658462D+01
   z          0.210959D-01      0.536204D-01      0.178858D+00

 Dipole polarizability, Alpha (input orientation).
 (esu units = cm**3 , SI units = C**2 m**2 J**-1)
 Alpha(0;0):
               (au)            (10**-24 esu)      (10**-40 SI)
   iso        0.471796D+02      0.699129D+01      0.777886D+01
   aniso      0.120413D+02      0.178434D+01      0.198535D+01
   xx         0.533807D+02      0.791021D+01      0.880129D+01
   yx         0.250359D+01      0.370994D+00      0.412787D+00
   yy         0.469713D+02      0.696043D+01      0.774452D+01
   zx        -0.217124D+01     -0.321744D+00     -0.357989D+00
   zy        -0.377708D+00     -0.559706D-01     -0.622757D-01
   zz         0.411867D+02      0.610323D+01      0.679076D+01

 ----------------------------------------------------------------------

 Dipole orientation:
     6         -6.20354004         -0.14844248         -3.05136663
     6         -3.48692239         -1.11325762         -3.25025237
     6         -2.04837352         -0.85763162         -0.85243384
     1         -7.15212579         -0.31921098         -4.87122199
     1         -6.22836581          1.82829497         -2.47221650
     1         -7.23710529         -1.25041261         -1.65320601
     1         -1.75758401          1.00137086         -0.05054211
     1         -1.31114583         -2.47939812          0.14182363
     8         -2.40676849          0.41155656         -5.24170810
     8         -0.00257229         -0.68688952         -5.95113361
     1         -3.48298657         -3.07562979         -3.88996144
     1          1.16347149          0.37601270         -5.02951822

 Electric dipole moment (dipole orientation):
 (Debye = 10**-18 statcoulomb cm , SI units = C m)
                  (au)            (Debye)         (10**-30 SI)
   Tot        0.781654D+00      0.198677D+01      0.662714D+01
   x          0.000000D+00      0.000000D+00      0.000000D+00
   y          0.000000D+00      0.000000D+00      0.000000D+00
   z          0.781654D+00      0.198677D+01      0.662714D+01

 Dipole polarizability, Alpha (dipole orientation).
 (esu units = cm**3 , SI units = C**2 m**2 J**-1)
 Alpha(0;0):
               (au)            (10**-24 esu)      (10**-40 SI)
   iso        0.471796D+02      0.699129D+01      0.777886D+01
   aniso      0.120413D+02      0.178434D+01      0.198535D+01
   xx         0.541672D+02      0.802676D+01      0.893097D+01
   yx        -0.716490D+00     -0.106173D+00     -0.118133D+00
   yy         0.408661D+02      0.605573D+01      0.673791D+01
   zx        -0.179029D+01     -0.265293D+00     -0.295179D+00
   zy        -0.204669D+00     -0.303289D-01     -0.337454D-01
   zz         0.465054D+02      0.689139D+01      0.766770D+01

 ----------------------------------------------------------------------
 Unable to Open any file for archive entry.
 1\1\GINC-MEDIAWIKI\Freq\UB3LYP\CC-pVTZ\C3H7O2(2)\SAURABH\07-Apr-2022\0
 \\#P Geom=AllCheck Guess=TCheck SCRF=Check GenChk UB3LYP/CC-pVTZ Freq\
 \Mol_03\\0,2\C,-3.4299047611,1.2524909054,0.2389199334\C,-2.0750277708
 ,1.4900384138,-0.4290917134\C,-1.1689878889,0.3154367805,-0.3440508393
 \H,-4.0413502348,2.1524995073,0.1782735093\H,-3.2980773915,0.987106228
 7,1.2879669988\H,-3.9511220585,0.4366592722,-0.2604373372\H,-0.8657803
 08,-0.0517278802,0.6279310158\H,-0.8168507744,-0.1991141095,-1.2253939
 679\O,-1.5401523165,2.6291007398,0.2814082628\O,-0.385846108,3.1147745
 609,-0.4459977461\H,-2.2204917022,1.7863837136,-1.4702365514\H,0.33728
 01506,2.7175582087,0.0582493835\\Version=ES64L-G16RevC.01\State=2-A\HF
 =-268.9256299\S2=0.753926\S2-1=0.\S2A=0.75001\RMSD=1.619e-09\RMSF=1.16
 3e-05\ZeroPoint=0.0959457\Thermal=0.1030845\ETot=-268.8225455\HTot=-26
 8.8216013\GTot=-268.8605518\Dipole=0.0858492,-0.7766386,0.0210959\Dipo
 leDeriv=-0.0305205,-0.0396293,0.0403175,-0.0132412,0.003523,-0.0065784
 ,-0.0097414,-0.0276348,0.1071941,0.3809393,0.0574399,0.0536039,0.08089
 21,0.6473682,0.0519881,0.1142153,0.1331224,0.272256,-0.255296,-0.13257
 42,0.0074592,-0.1942138,-0.1472359,0.0085276,-0.0381732,0.0215847,0.13
 94709,-0.0249871,0.0805214,0.0144647,0.1112003,-0.0433028,0.0080894,0.
 0291058,0.0139354,0.0595284,0.0377205,0.018229,-0.0537276,0.010092,0.0
 598698,0.0428778,0.015692,0.0484412,-0.1071557,0.008271,-0.0649083,-0.
 0112512,-0.0772685,-0.0333836,-0.0606611,-0.0306598,-0.0634244,0.02241
 76,0.0744857,0.0696967,-0.0103612,0.0638933,0.051673,0.0027901,-0.0378
 666,0.0495777,-0.066338,0.0947702,0.0855004,0.0130351,0.0812829,0.0277
 314,-0.0268595,0.03295,-0.0583502,-0.0307056,-0.1151649,0.0941622,-0.0
 877192,-0.0022184,-0.49089,-0.0441006,-0.0848561,-0.1559165,-0.2938512
 ,-0.4117261,-0.2294476,0.0515934,-0.1230172,-0.3229003,-0.1320598,0.06
 36394,-0.0755543,-0.1856715,0.0085545,0.0076679,0.0024074,-0.0038386,-
 0.0197593,0.0691869,-0.0564009,0.0056732,-0.1281001,0.2329534,0.053341
 8,-0.0198221,0.066437,0.2673065,0.0867995,0.0020956,0.1085458,0.210955
 \Polar=53.3807383,2.5035941,46.9713126,-2.1712375,-0.3777082,41.186660
 1\Quadrupole=2.8237663,-2.6354016,-0.1883647,-0.3826779,1.1853638,0.33
 15181\PG=C01 [X(C3H7O2)]\NImag=0\\0.47397805,-0.01296288,0.57275339,0.
 04875312,0.00871649,0.54388754,-0.14121912,0.00355799,0.03906295,0.429
 87484,-0.01478129,-0.07103025,0.01305670,-0.06272135,0.41087859,0.0380
 7189,0.00451883,-0.10279579,-0.00170950,-0.06716372,0.58982899,-0.0244
 1596,0.02107540,0.00235028,-0.11504096,0.08147428,-0.01392379,0.238693
 44,0.00842148,0.00260436,-0.00440606,0.08481545,-0.14256283,0.02099199
 ,-0.22343928,0.36623855,0.00981257,-0.01055208,0.00195193,-0.01096197,
 0.01425157,-0.09569436,0.00003035,0.02561714,0.63292173,-0.12608797,0.
 12009892,-0.00974869,-0.01984595,0.02489148,-0.00190062,-0.00353271,-0
 .00123241,0.00333457,0.13833208,0.12254566,-0.22855495,0.01423648,-0.0
 0507894,0.00460627,-0.00020360,0.00028991,-0.00004015,-0.00041581,-0.1
 3355711,0.24655530,-0.00970110,0.01480878,-0.04942122,0.01019910,-0.01
 342014,-0.00012195,0.00192374,0.00115256,-0.00029380,0.00776233,-0.015
 60756,0.04880708,-0.05213914,0.00992452,-0.03513114,0.00314638,-0.0074
 1254,0.03152768,0.00199074,-0.00115860,0.00030259,-0.00244396,0.002819
 14,-0.01721321,0.05563962,0.00998629,-0.06290471,0.06143262,-0.0001494
 1,-0.00293519,0.00538578,-0.00012174,-0.00003498,-0.00129186,0.0026123
 0,-0.00545678,0.02615775,-0.00954950,0.06304096,-0.03332592,0.06141902
 ,-0.28878585,-0.00073378,0.00377822,-0.01614557,-0.00089511,0.00037951
 ,0.00101794,-0.00045698,0.00007958,-0.00033825,0.03441161,-0.06825763,
 0.31518663,-0.10491555,-0.09337433,-0.05765167,-0.01225229,-0.02073063
 ,-0.01608777,0.00098594,0.00003163,-0.00016748,0.00985568,0.01306310,0
 .00927282,-0.00242216,-0.00219607,-0.00172867,0.11435874,-0.09486546,-
 0.19487270,-0.09269534,-0.00075577,-0.00419905,-0.00206537,0.00112425,
 0.00014346,0.00022391,-0.01326593,-0.01839031,-0.01208025,0.00505329,0
 .00684304,0.00364805,0.10435506,0.21013994,-0.05881762,-0.09333864,-0.
 10299269,0.00610388,0.01202160,0.00678372,0.00002008,0.00021200,0.0002
 8657,0.00188456,0.00235714,0.00048207,-0.01461583,-0.02397708,-0.01310
 535,0.06224902,0.10172022,0.10924424,0.00207293,-0.00052996,-0.0010194
 6,-0.00326809,0.00379296,-0.01991235,-0.05023782,0.04694083,-0.0689958
 4,0.00011434,-0.00020749,0.00027038,-0.00026298,-0.00002034,0.00065270
 ,-0.00030037,-0.00003940,-0.00003793,0.04629766,-0.00030235,0.00001671
 ,0.00021409,0.00494168,-0.00369994,0.02200269,0.04742045,-0.07128696,0
 .08427294,0.00001490,-0.00001066,-0.00029984,0.00032037,0.00027260,-0.
 00048626,-0.00012417,-0.00000296,-0.00008673,-0.05050541,0.06773979,-0
 .00009225,-0.00020732,0.00070463,0.00126150,-0.00168479,-0.00077074,-0
 .07170536,0.08437297,-0.28649107,-0.00005433,-0.00002553,0.00005540,-0
 .00039413,0.00003140,0.00017511,-0.00001016,0.00004430,-0.00004286,0.0
 7797869,-0.09284202,0.29710238,-0.00152098,0.00073518,-0.00000805,0.00
 257615,0.00615530,0.01447274,-0.05607941,0.06695026,0.07615082,-0.0005
 7035,0.00011833,-0.00008177,0.00009780,0.00008376,-0.00010036,-0.00035
 151,-0.00013778,0.00004074,0.00580168,-0.00354338,-0.00736333,0.052212
 94,-0.00016878,-0.00249721,0.00087156,0.00613137,-0.00052625,-0.017167
 89,0.06647558,-0.10357905,-0.11297872,0.00064910,0.00018659,-0.0003696
 5,0.00000035,0.00006078,-0.00014851,0.00006640,0.00009182,-0.00001589,
 -0.00250590,0.00748512,0.00919024,-0.07024241,0.10318081,-0.00025969,0
 .00011546,0.00004468,-0.00341784,0.00460613,0.00534098,0.07692316,-0.1
 1448594,-0.25381409,-0.00010402,0.00001574,0.00014216,-0.00018939,0.00
 002330,0.00023494,0.00008859,-0.00000403,0.00002807,0.00870828,-0.0125
 5065,-0.01331627,-0.08212704,0.12174743,0.25961838,-0.02745731,-0.0302
 2058,-0.00908680,-0.05918779,-0.01571851,-0.02178238,0.00894136,0.0073
 3237,0.01245195,0.00152214,-0.00086094,-0.00142779,0.00131703,0.000140
 49,-0.00084089,-0.00385765,-0.00099266,0.00191777,0.00153394,-0.000892
 17,0.00038300,-0.00273369,0.00150614,-0.00034643,0.27530401,-0.0173390
 5,-0.00747787,-0.00249861,-0.01044431,-0.11125467,-0.06578296,0.000857
 79,-0.04338122,-0.02589148,0.00011311,0.00025241,0.00041900,0.00113787
 ,0.00051403,-0.00055782,0.00080049,-0.00027085,0.00004904,-0.00020530,
 0.00314375,0.00082409,0.00112495,-0.00482077,0.00081233,0.09287387,0.2
 1611839,0.00740802,0.01171709,0.00741871,0.00217257,-0.04139672,-0.123
 04771,0.00437438,-0.01506070,0.00084967,-0.00051801,0.00027670,0.00055
 294,0.00004404,0.00087277,0.00093815,0.00392418,0.00142413,-0.00147278
 ,0.00186039,-0.00056089,0.00131302,-0.00008095,-0.00138987,0.00115505,
 -0.07338016,0.07283947,0.22703704,-0.00013771,-0.00930658,-0.00689166,
 -0.02914109,-0.00903516,0.01799954,0.00205332,0.00160740,-0.00065984,0
 .00114513,0.00045061,-0.00029246,0.00024184,0.00012531,0.00015530,-0.0
 0225686,-0.00038009,0.00188938,-0.00007821,-0.00060765,0.00010403,0.00
 027294,-0.00094729,0.00018263,-0.15946850,-0.06654940,0.07770761,0.457
 45153,-0.00076030,-0.00524030,-0.00421821,-0.02742605,-0.01146864,0.02
 251473,-0.00235306,-0.00110356,0.00114103,-0.00046979,0.00034793,-0.00
 002389,0.00012805,-0.00012993,-0.00002412,-0.00161979,0.00068266,0.000
 77673,0.00020154,0.00002095,0.00002910,-0.00042092,0.00040002,0.000173
 20,-0.02251814,-0.05171969,0.01608293,-0.07611957,0.16895811,-0.002907
 93,-0.00173206,0.00078313,-0.00934263,0.00483991,0.01113847,0.00023789
 ,-0.00090124,0.00009954,0.00000220,-0.00022691,-0.00014124,-0.00060447
 ,-0.00046030,0.00041247,-0.00030938,-0.00074696,0.00053038,-0.00000515
 ,0.00007927,-0.00005433,-0.00000791,0.00028393,0.00000878,0.06433546,0
 .03449833,-0.09865587,0.11532394,-0.16796378,0.25257006,0.00206026,-0.
 00838721,0.02963983,-0.05167478,0.01406428,-0.02648496,-0.00389894,0.0
 0966814,-0.02086015,0.00131578,0.00046599,-0.00063505,-0.00511291,-0.0
 0085224,0.00279500,0.00121261,0.00007326,-0.00087009,-0.00160493,0.003
 36335,-0.00016856,0.00029530,-0.00090093,0.00052654,-0.00479795,-0.007
 85542,-0.01699662,0.00201845,0.00188347,-0.00134941,0.06020158,0.00073
 604,-0.00096130,0.00568872,0.01173066,-0.07168641,0.07603506,0.0058722
 0,-0.00740512,0.02546168,-0.00026424,0.00051246,-0.00058219,-0.0012573
 0,0.00065370,0.00013542,0.00015360,0.00004076,0.00005649,0.00323628,-0
 .00306821,-0.00007336,-0.00062756,0.00050018,-0.00051518,-0.01097914,-
 0.00342438,-0.03663312,0.00271772,0.00184176,0.00001145,-0.01158737,0.
 08327620,0.00070051,0.00404311,-0.01164191,-0.03189235,0.07286009,-0.2
 7258530,0.00035068,0.00166333,-0.00134623,-0.00010986,-0.00050224,0.00
 032347,0.00194471,0.00008611,0.00046478,0.00026004,0.00036071,0.000432
 05,0.00051527,0.00006847,0.00143545,-0.00058666,0.00005638,0.00081068,
 -0.00648519,-0.00940215,-0.02291054,0.00068974,0.00071564,0.00311132,0
 .03413059,-0.06994661,0.30170165,-0.00021752,-0.00061048,-0.00026871,-
 0.00396731,0.00002119,-0.00027048,0.00054100,0.00006272,-0.00043758,0.
 00019579,-0.00004826,-0.00007700,-0.00005226,-0.00005885,0.00006711,-0
 .00005659,-0.00016877,0.00023605,-0.00006818,-0.00008563,0.00006089,-0
 .00000089,-0.00006363,0.00001519,-0.03111560,0.00548540,-0.00651546,-0
 .27210084,0.12947456,-0.16537260,-0.00001447,0.00026913,0.00048251,0.3
 0685686,-0.00050936,-0.00183518,-0.00039844,-0.00460132,0.00387836,0.0
 0093446,0.00132421,0.00040749,0.00016168,0.00040966,-0.00000812,-0.000
 15457,-0.00000564,0.00007647,0.00003455,-0.00042527,-0.00020581,0.0002
 2512,-0.00015783,-0.00061021,0.00034092,-0.00019572,-0.00048205,0.0000
 6221,-0.01967072,0.00232086,-0.00817179,0.15804471,-0.10258932,0.13231
 838,0.00006467,-0.00027966,-0.00000283,-0.13427739,0.09932718,0.000358
 40,0.00049131,0.00084685,-0.00074192,-0.00174886,-0.00193073,0.0003137
 0,0.00046444,0.00051217,-0.00009114,0.00001601,-0.00004665,-0.00008247
 ,-0.00000285,-0.00005499,0.00016048,0.00017064,-0.00017343,-0.00001498
 ,0.00018895,-0.00011071,-0.00030824,-0.00007901,-0.00025336,0.03426144
 ,-0.00530921,0.00682232,-0.20620822,0.13079665,-0.16980270,0.00027289,
 0.00036164,0.00020457,0.17208007,-0.12534969,0.16398665\\-0.00000032,0
 .00000161,0.00000224,-0.00001609,-0.00001447,-0.00001650,0.00001933,-0
 .00000193,-0.00000424,-0.00000064,-0.00000076,0.00000024,-0.00000028,-
 0.00000030,-0.00000082,0.00000149,0.00000037,0.00000095,-0.00000388,0.
 00000033,-0.00000575,-0.00000780,0.00000544,0.00001044,0.00003650,0.00
 002102,-0.00001281,-0.00003345,-0.00000779,0.00001684,0.00000196,-0.00
 000107,0.00000661,0.00000316,-0.00000246,0.00000280\\\@
 The archive entry for this job was punched.


 IT IS BETTER TO THINK YOU ARE HALF DRY THAN TO KNOW YOU
 ARE ALL WET.  -- SNOOPY
 Job cpu time:       0 days  0 hours 25 minutes 49.3 seconds.
 Elapsed time:       0 days  0 hours  3 minutes 15.6 seconds.
 File lengths (MBytes):  RWF=    113 Int=      0 D2E=      0 Chk=      8 Scr=      1
 Normal termination of Gaussian 16 at Thu Apr  7 11:46:17 2022.
