 Entering Gaussian System, Link 0=g16
 Input=Mol_05.com
 Output=Mol_05.log
 Initial command:
 /home/saurabh/gaussian/g16/l1.exe "/home/saurabh/gaussian/gauss_scr/Gau-24998.inp" -scrdir="/home/saurabh/gaussian/gauss_scr/"
 Entering Link 1 = /home/saurabh/gaussian/g16/l1.exe PID=     24999.
  
 Copyright (c) 1988-2019, Gaussian, Inc.  All Rights Reserved.
  
 This is part of the Gaussian(R) 16 program.  It is based on
 the Gaussian(R) 09 system (copyright 2009, Gaussian, Inc.),
 the Gaussian(R) 03 system (copyright 2003, Gaussian, Inc.),
 the Gaussian(R) 98 system (copyright 1998, Gaussian, Inc.),
 the Gaussian(R) 94 system (copyright 1995, Gaussian, Inc.),
 the Gaussian 92(TM) system (copyright 1992, Gaussian, Inc.),
 the Gaussian 90(TM) system (copyright 1990, Gaussian, Inc.),
 the Gaussian 88(TM) system (copyright 1988, Gaussian, Inc.),
 the Gaussian 86(TM) system (copyright 1986, Carnegie Mellon
 University), and the Gaussian 82(TM) system (copyright 1983,
 Carnegie Mellon University). Gaussian is a federally registered
 trademark of Gaussian, Inc.
  
 This software contains proprietary and confidential information,
 including trade secrets, belonging to Gaussian, Inc.
  
 This software is provided under written license and may be
 used, copied, transmitted, or stored only in accord with that
 written license.
  
 The following legend is applicable only to US Government
 contracts under FAR:
  
                    RESTRICTED RIGHTS LEGEND
  
 Use, reproduction and disclosure by the US Government is
 subject to restrictions as set forth in subparagraphs (a)
 and (c) of the Commercial Computer Software - Restricted
 Rights clause in FAR 52.227-19.
  
 Gaussian, Inc.
 340 Quinnipiac St., Bldg. 40, Wallingford CT 06492
  
  
 ---------------------------------------------------------------
 Warning -- This program may not be used in any manner that
 competes with the business of Gaussian, Inc. or will provide
 assistance to any competitor of Gaussian, Inc.  The licensee
 of this program is prohibited from giving any competitor of
 Gaussian, Inc. access to this program.  By using this program,
 the user acknowledges that Gaussian, Inc. is engaged in the
 business of creating and licensing software in the field of
 computational chemistry and represents and warrants to the
 licensee that it is not a competitor of Gaussian, Inc. and that
 it will not use this program in any manner prohibited above.
 ---------------------------------------------------------------
  

 Cite this work as:
 Gaussian 16, Revision C.01,
 M. J. Frisch, G. W. Trucks, H. B. Schlegel, G. E. Scuseria, 
 M. A. Robb, J. R. Cheeseman, G. Scalmani, V. Barone, 
 G. A. Petersson, H. Nakatsuji, X. Li, M. Caricato, A. V. Marenich, 
 J. Bloino, B. G. Janesko, R. Gomperts, B. Mennucci, H. P. Hratchian, 
 J. V. Ortiz, A. F. Izmaylov, J. L. Sonnenberg, D. Williams-Young, 
 F. Ding, F. Lipparini, F. Egidi, J. Goings, B. Peng, A. Petrone, 
 T. Henderson, D. Ranasinghe, V. G. Zakrzewski, J. Gao, N. Rega, 
 G. Zheng, W. Liang, M. Hada, M. Ehara, K. Toyota, R. Fukuda, 
 J. Hasegawa, M. Ishida, T. Nakajima, Y. Honda, O. Kitao, H. Nakai, 
 T. Vreven, K. Throssell, J. A. Montgomery, Jr., J. E. Peralta, 
 F. Ogliaro, M. J. Bearpark, J. J. Heyd, E. N. Brothers, K. N. Kudin, 
 V. N. Staroverov, T. A. Keith, R. Kobayashi, J. Normand, 
 K. Raghavachari, A. P. Rendell, J. C. Burant, S. S. Iyengar, 
 J. Tomasi, M. Cossi, J. M. Millam, M. Klene, C. Adamo, R. Cammi, 
 J. W. Ochterski, R. L. Martin, K. Morokuma, O. Farkas, 
 J. B. Foresman, and D. J. Fox, Gaussian, Inc., Wallingford CT, 2019.
 
 ******************************************
 Gaussian 16:  ES64L-G16RevC.01  3-Jul-2019
                 7-Apr-2022 
 ******************************************
 %mem=8gb
 %nproc=8
 Will use up to    8 processors via shared memory.
 %chk=Mol_05.chk
 ----------------------------------------------------------------------
 #p B3LYP/cc-PVTZ scf(verytight, maxcycles=1000) opt(calcfc, maxcyc=100
 0) freq(hpmodes) int(grid=ultrafine)
 ----------------------------------------------------------------------
 1/6=1000,10=4,18=20,19=15,26=4,38=1/1,3;
 2/9=110,12=2,17=6,18=5,40=1/2;
 3/5=16,6=1,11=2,25=1,30=1,71=2,74=-5,75=-5,140=1/1,2,3;
 4//1;
 5/5=2,7=1000,17=3,38=5/2;
 8/6=4,10=90,11=11/1;
 11/6=1,8=1,9=11,15=111,16=1/1,2,10;
 10/6=1,13=1/2;
 6/7=2,8=2,9=2,10=2,28=1/1;
 7/10=1,25=1/1,2,3,16;
 1/6=1000,10=4,18=20,19=15,26=4/3(2);
 2/9=110/2;
 99//99;
 2/9=110/2;
 3/5=16,6=1,11=2,25=1,30=1,71=1,74=-5,75=-5/1,2,3;
 4/5=5,16=3,69=1/1;
 5/5=2,7=1000,17=3,38=5/2;
 7//1,2,3,16;
 1/6=1000,18=20,19=15,26=4/3(-5);
 2/9=110/2;
 6/7=2,8=2,9=2,10=2,19=2,28=1/1;
 99/9=1/99;
 Leave Link    1 at Thu Apr  7 11:49:42 2022, MaxMem=  1073741824 cpu:               0.5 elap:               0.1
 (Enter /home/saurabh/gaussian/g16/l101.exe)
 ------
 Mol_05
 ------
 Symbolic Z-matrix:
 Charge =  0 Multiplicity = 1
 C                    -3.46346   1.06664   0.0032 
 C                    -2.17904   1.88587  -0.02718 
 C                    -0.94369   0.99405  -0.00719 
 H                    -4.33619   1.75224   0.00363 
 H                    -3.49946   0.44549   0.92296 
 H                    -3.52396   0.4082   -0.8895 
 H                    -2.14946   2.917    -0.05753 
 H                    -1.04855  -0.03215   0.02339 
 H                    -0.00216   1.41625  -0.02424 
 
 ITRead=  0  0  0  0  0  0  0  0  0
 MicOpt= -1 -1 -1 -1 -1 -1 -1 -1 -1
 NAtoms=      9 NQM=        9 NQMF=       0 NMMI=      0 NMMIF=      0
                NMic=       0 NMicF=      0.
                    Isotopes and Nuclear Properties:
 (Nuclear quadrupole moments (NQMom) in fm**2, nuclear magnetic moments (NMagM)
  in nuclear magnetons)

  Atom         1           2           3           4           5           6           7           8           9
 IAtWgt=          12          12          12           1           1           1           1           1           1
 AtmWgt=  12.0000000  12.0000000  12.0000000   1.0078250   1.0078250   1.0078250   1.0078250   1.0078250   1.0078250
 NucSpn=           0           0           0           1           1           1           1           1           1
 AtZEff=  -0.0000000  -0.0000000  -0.0000000  -0.0000000  -0.0000000  -0.0000000  -0.0000000  -0.0000000  -0.0000000
 NQMom=    0.0000000   0.0000000   0.0000000   0.0000000   0.0000000   0.0000000   0.0000000   0.0000000   0.0000000
 NMagM=    0.0000000   0.0000000   0.0000000   2.7928460   2.7928460   2.7928460   2.7928460   2.7928460   2.7928460
 AtZNuc=   6.0000000   6.0000000   6.0000000   1.0000000   1.0000000   1.0000000   1.0000000   1.0000000   1.0000000
 Leave Link  101 at Thu Apr  7 11:49:43 2022, MaxMem=  1073741824 cpu:               1.5 elap:               0.2
 (Enter /home/saurabh/gaussian/g16/l103.exe)

 GradGradGradGradGradGradGradGradGradGradGradGradGradGradGradGradGradGrad
 Berny optimization.
 Initialization pass.
                           ----------------------------
                           !    Initial Parameters    !
                           ! (Angstroms and Degrees)  !
 --------------------------                            --------------------------
 ! Name  Definition              Value          Derivative Info.                !
 --------------------------------------------------------------------------------
 ! R1    R(1,2)                  1.5237         calculate D2E/DX2 analytically  !
 ! R2    R(1,4)                  1.1098         calculate D2E/DX2 analytically  !
 ! R3    R(1,5)                  1.1104         calculate D2E/DX2 analytically  !
 ! R4    R(1,6)                  1.1109         calculate D2E/DX2 analytically  !
 ! R5    R(2,3)                  1.5238         calculate D2E/DX2 analytically  !
 ! R6    R(2,7)                  1.032          calculate D2E/DX2 analytically  !
 ! R7    R(3,8)                  1.032          calculate D2E/DX2 analytically  !
 ! R8    R(3,9)                  1.032          calculate D2E/DX2 analytically  !
 ! A1    A(2,1,4)              109.3134         calculate D2E/DX2 analytically  !
 ! A2    A(2,1,5)              110.1564         calculate D2E/DX2 analytically  !
 ! A3    A(2,1,6)              110.3985         calculate D2E/DX2 analytically  !
 ! A4    A(4,1,5)              108.6473         calculate D2E/DX2 analytically  !
 ! A5    A(4,1,6)              108.8828         calculate D2E/DX2 analytically  !
 ! A6    A(5,1,6)              109.4073         calculate D2E/DX2 analytically  !
 ! A7    A(1,2,3)              111.6207         calculate D2E/DX2 analytically  !
 ! A8    A(1,2,7)              124.1897         calculate D2E/DX2 analytically  !
 ! A9    A(3,2,7)              124.1897         calculate D2E/DX2 analytically  !
 ! A10   A(2,3,8)              120.0            calculate D2E/DX2 analytically  !
 ! A11   A(2,3,9)              120.0            calculate D2E/DX2 analytically  !
 ! A12   A(8,3,9)              120.0            calculate D2E/DX2 analytically  !
 ! D1    D(4,1,2,3)            179.1152         calculate D2E/DX2 analytically  !
 ! D2    D(4,1,2,7)             -0.8848         calculate D2E/DX2 analytically  !
 ! D3    D(5,1,2,3)             59.8041         calculate D2E/DX2 analytically  !
 ! D4    D(5,1,2,7)           -120.1959         calculate D2E/DX2 analytically  !
 ! D5    D(6,1,2,3)            -61.1359         calculate D2E/DX2 analytically  !
 ! D6    D(6,1,2,7)            118.8641         calculate D2E/DX2 analytically  !
 ! D7    D(1,2,3,8)              0.0            calculate D2E/DX2 analytically  !
 ! D8    D(1,2,3,9)            180.0            calculate D2E/DX2 analytically  !
 ! D9    D(7,2,3,8)            180.0            calculate D2E/DX2 analytically  !
 ! D10   D(7,2,3,9)              0.0            calculate D2E/DX2 analytically  !
 --------------------------------------------------------------------------------
 Trust Radius=3.00D-01 FncErr=1.00D-07 GrdErr=1.00D-06 EigMax=2.50D+02 EigMin=1.00D-04
 Number of steps in this run=    100 maximum allowed number of steps=    100.
 GradGradGradGradGradGradGradGradGradGradGradGradGradGradGradGradGradGrad

 Leave Link  103 at Thu Apr  7 11:49:43 2022, MaxMem=  1073741824 cpu:               0.1 elap:               0.0
 (Enter /home/saurabh/gaussian/g16/l202.exe)
                          Input orientation:                          
 ---------------------------------------------------------------------
 Center     Atomic      Atomic             Coordinates (Angstroms)
 Number     Number       Type             X           Y           Z
 ---------------------------------------------------------------------
      1          6           0       -3.463460    1.066640    0.003200
      2          6           0       -2.179040    1.885870   -0.027180
      3          6           0       -0.943690    0.994050   -0.007190
      4          1           0       -4.336190    1.752240    0.003630
      5          1           0       -3.499460    0.445490    0.922960
      6          1           0       -3.523960    0.408200   -0.889500
      7          1           0       -2.149463    2.916999   -0.057534
      8          1           0       -1.048552   -0.032153    0.023394
      9          1           0       -0.002157    1.416247   -0.024235
 ---------------------------------------------------------------------
                    Distance matrix (angstroms):
                    1          2          3          4          5
     1  C    0.000000
     2  C    1.523744   0.000000
     3  C    2.520837   1.523756   0.000000
     4  H    1.109822   2.161505   3.476208   0.000000
     5  H    1.110442   2.172779   2.774537   1.803574   0.000000
     6  H    1.110908   2.176216   2.789173   1.806611   1.813009
     7  H    2.270266   1.032000   2.270277   2.478342   2.981983
     8  H    2.653212   2.226965   1.032000   3.740723   2.654112
     9  H    3.479022   2.226965   1.032000   4.347126   3.751089
                    6          7          8          9
     6  H    0.000000
     7  H    2.979175   0.000000
     8  H    2.674870   3.148977   0.000000
     9  H    3.764032   2.619979   1.787476   0.000000
 Stoichiometry    C3H6
 Framework group  C1[X(C3H6)]
 Deg. of freedom    21
 Full point group                 C1      NOp   1
 Largest Abelian subgroup         C1      NOp   1
 Largest concise Abelian subgroup C1      NOp   1
                         Standard orientation:                         
 ---------------------------------------------------------------------
 Center     Atomic      Atomic             Coordinates (Angstroms)
 Number     Number       Type             X           Y           Z
 ---------------------------------------------------------------------
      1          6           0        1.206993   -0.226280    0.000370
      2          6           0       -0.064934    0.612766    0.000418
      3          6           0       -1.313611   -0.260525   -0.000118
      4          1           0        2.090053    0.445779   -0.015405
      5          1           0        1.237864   -0.874324   -0.900833
      6          1           0        1.253256   -0.859382    0.912049
      7          1           0       -0.078951    1.644670    0.000770
      8          1           0       -1.224242   -1.288649   -0.000455
      9          1           0       -2.248676    0.176140   -0.000145
 ---------------------------------------------------------------------
 Rotational constants (GHZ):          36.8276003           9.3563312           7.8445016
 Leave Link  202 at Thu Apr  7 11:49:43 2022, MaxMem=  1073741824 cpu:               0.1 elap:               0.0
 (Enter /home/saurabh/gaussian/g16/l301.exe)
 Standard basis: CC-pVTZ (5D, 7F)
 Ernie: Thresh=  0.10000D-02 Tol=  0.10000D-05 Strict=F.
 Ernie:  9 primitive shells out of 126 were deleted.
 There are   195 symmetry adapted cartesian basis functions of A   symmetry.
 There are   174 symmetry adapted basis functions of A   symmetry.
   174 basis functions,   258 primitive gaussians,   195 cartesian basis functions
    12 alpha electrons       12 beta electrons
       nuclear repulsion energy        68.7679096457 Hartrees.
 IExCor=  402 DFT=T Ex+Corr=B3LYP ExCW=0 ScaHFX=  0.200000
 ScaDFX=  0.800000  0.720000  1.000000  0.810000 ScalE2=  1.000000  1.000000
 IRadAn=      5 IRanWt=     -1 IRanGd=            0 ICorTp=0 IEmpDi=  4
 NAtoms=    9 NActive=    9 NUniq=    9 SFac= 1.00D+00 NAtFMM=   60 NAOKFM=F Big=F
 Integral buffers will be    131072 words long.
 Raffenetti 2 integral format.
 Two-electron integral symmetry is turned on.
 Leave Link  301 at Thu Apr  7 11:49:43 2022, MaxMem=  1073741824 cpu:               0.4 elap:               0.1
 (Enter /home/saurabh/gaussian/g16/l302.exe)
 NPDir=0 NMtPBC=     1 NCelOv=     1 NCel=       1 NClECP=     1 NCelD=      1
         NCelK=      1 NCelE2=     1 NClLst=     1 CellRange=     0.0.
 One-electron integrals computed using PRISM.
 One-electron integral symmetry used in STVInt
 NBasis=   174 RedAO= T EigKep=  8.05D-04  NBF=   174
 NBsUse=   174 1.00D-06 EigRej= -1.00D+00 NBFU=   174
 Precomputing XC quadrature grid using
 IXCGrd= 4 IRadAn=           5 IRanWt=          -1 IRanGd=           0 AccXCQ= 0.00D+00.
 Generated NRdTot=       0 NPtTot=           0 NUsed=           0 NTot=          32
 NSgBfM=   195   195   195   195   195 MxSgAt=     9 MxSgA2=     9.
 Leave Link  302 at Thu Apr  7 11:49:43 2022, MaxMem=  1073741824 cpu:               1.3 elap:               0.2
 (Enter /home/saurabh/gaussian/g16/l303.exe)
 DipDrv:  MaxL=1.
 Leave Link  303 at Thu Apr  7 11:49:43 2022, MaxMem=  1073741824 cpu:               0.2 elap:               0.1
 (Enter /home/saurabh/gaussian/g16/l401.exe)
 ExpMin= 1.03D-01 ExpMax= 8.24D+03 ExpMxC= 2.81D+02 IAcc=3 IRadAn=         5 AccDes= 0.00D+00
 Harris functional with IExCor=  402 and IRadAn=       5 diagonalized for initial guess.
 HarFok:  IExCor=  402 AccDes= 0.00D+00 IRadAn=         5 IDoV= 1 UseB2=F ITyADJ=14
 ICtDFT=  3500011 ScaDFX=  1.000000  1.000000  1.000000  1.000000
 FoFCou: FMM=F IPFlag=           0 FMFlag=      100000 FMFlg1=           0
         NFxFlg=           0 DoJE=T BraDBF=F KetDBF=T FulRan=T
         wScrn=  0.000000 ICntrl=       500 IOpCl=  0 I1Cent=   200000004 NGrid=           0
         NMat0=    1 NMatS0=      1 NMatT0=    0 NMatD0=    1 NMtDS0=    0 NMtDT0=    0
 Petite list used in FoFCou.
 Harris En= -117.959094756054    
 JPrj=0 DoOrth=F DoCkMO=F.
 Leave Link  401 at Thu Apr  7 11:49:43 2022, MaxMem=  1073741824 cpu:               3.5 elap:               0.5
 (Enter /home/saurabh/gaussian/g16/l502.exe)
 Keep R1 ints in memory in canonical form, NReq=124086147.
 FoFCou: FMM=F IPFlag=           0 FMFlag=           0 FMFlg1=           0
         NFxFlg=           0 DoJE=F BraDBF=F KetDBF=F FulRan=T
         wScrn=  0.000000 ICntrl=       600 IOpCl=  0 I1Cent=           0 NGrid=           0
         NMat0=    1 NMatS0=  15225 NMatT0=    0 NMatD0=    1 NMtDS0=    0 NMtDT0=    0
 Symmetry not used in FoFCou.
 Two-electron integral symmetry not used.
 Closed shell SCF:
 Using DIIS extrapolation, IDIIS=  1040.
 NGot=  1073741824 LenX=   957754227 LenY=   957715761
 Requested convergence on RMS density matrix=1.00D-08 within1000 cycles.
 Requested convergence on MAX density matrix=1.00D-06.
 Requested convergence on             energy=1.00D-06.
 No special actions if energy rises.
 Integral accuracy reduced to 1.0D-05 until final iterations.

 Cycle   1  Pass 0  IDiag  1:
 E= -117.784852377444    
 DIIS: error= 2.92D-02 at cycle   1 NSaved=   1.
 NSaved= 1 IEnMin= 1 EnMin= -117.784852377444     IErMin= 1 ErrMin= 2.92D-02
 ErrMax= 2.92D-02  0.00D+00 EMaxC= 1.00D-01 BMatC= 1.25D-01 BMatP= 1.25D-01
 IDIUse=3 WtCom= 7.08D-01 WtEn= 2.92D-01
 Coeff-Com:  0.100D+01
 Coeff-En:   0.100D+01
 Coeff:      0.100D+01
 Gap=     0.190 Goal=   None    Shift=    0.000
 GapD=    0.190 DampG=1.000 DampE=0.500 DampFc=0.5000 IDamp=-1.
 Damping current iteration by 5.00D-01
 RMSDP=2.72D-03 MaxDP=8.00D-02              OVMax= 2.28D-01

 Cycle   2  Pass 0  IDiag  1:
 E= -117.840701052076     Delta-E=       -0.055848674632 Rises=F Damp=T
 DIIS: error= 5.18D-03 at cycle   2 NSaved=   2.
 NSaved= 2 IEnMin= 2 EnMin= -117.840701052076     IErMin= 2 ErrMin= 5.18D-03
 ErrMax= 5.18D-03  0.00D+00 EMaxC= 1.00D-01 BMatC= 6.79D-03 BMatP= 1.25D-01
 IDIUse=3 WtCom= 9.48D-01 WtEn= 5.18D-02
 Coeff-Com:  0.646D-01 0.935D+00
 Coeff-En:   0.132D+00 0.868D+00
 Coeff:      0.680D-01 0.932D+00
 Gap=     0.197 Goal=   None    Shift=    0.000
 RMSDP=5.75D-04 MaxDP=2.00D-02 DE=-5.58D-02 OVMax= 1.82D-01

 Cycle   3  Pass 0  IDiag  1:
 E= -117.904215872900     Delta-E=       -0.063514820824 Rises=F Damp=F
 DIIS: error= 8.41D-03 at cycle   3 NSaved=   3.
 NSaved= 3 IEnMin= 3 EnMin= -117.904215872900     IErMin= 2 ErrMin= 5.18D-03
 ErrMax= 8.41D-03  0.00D+00 EMaxC= 1.00D-01 BMatC= 7.34D-03 BMatP= 6.79D-03
 IDIUse=3 WtCom= 9.16D-01 WtEn= 8.41D-02
 Coeff-Com: -0.405D-02 0.513D+00 0.491D+00
 Coeff-En:   0.000D+00 0.000D+00 0.100D+01
 Coeff:     -0.371D-02 0.470D+00 0.534D+00
 Gap=     0.194 Goal=   None    Shift=    0.000
 RMSDP=4.88D-04 MaxDP=2.03D-02 DE=-6.35D-02 OVMax= 9.92D-02

 Cycle   4  Pass 0  IDiag  1:
 E= -117.907245721667     Delta-E=       -0.003029848768 Rises=F Damp=F
 DIIS: error= 6.72D-03 at cycle   4 NSaved=   4.
 NSaved= 4 IEnMin= 4 EnMin= -117.907245721667     IErMin= 2 ErrMin= 5.18D-03
 ErrMax= 6.72D-03  0.00D+00 EMaxC= 1.00D-01 BMatC= 4.72D-03 BMatP= 6.79D-03
 IDIUse=3 WtCom= 9.33D-01 WtEn= 6.72D-02
 Coeff-Com: -0.160D-01 0.109D+00 0.437D+00 0.469D+00
 Coeff-En:   0.000D+00 0.000D+00 0.417D+00 0.583D+00
 Coeff:     -0.149D-01 0.102D+00 0.436D+00 0.477D+00
 Gap=     0.198 Goal=   None    Shift=    0.000
 RMSDP=2.22D-04 MaxDP=9.48D-03 DE=-3.03D-03 OVMax= 4.38D-02

 Cycle   5  Pass 0  IDiag  1:
 E= -117.912376948718     Delta-E=       -0.005131227051 Rises=F Damp=F
 DIIS: error= 4.31D-04 at cycle   5 NSaved=   5.
 NSaved= 5 IEnMin= 5 EnMin= -117.912376948718     IErMin= 5 ErrMin= 4.31D-04
 ErrMax= 4.31D-04  0.00D+00 EMaxC= 1.00D-01 BMatC= 2.98D-05 BMatP= 4.72D-03
 IDIUse=3 WtCom= 9.96D-01 WtEn= 4.31D-03
 Coeff-Com: -0.423D-02 0.101D-01 0.138D+00 0.173D+00 0.683D+00
 Coeff-En:   0.000D+00 0.000D+00 0.000D+00 0.000D+00 0.100D+01
 Coeff:     -0.421D-02 0.101D-01 0.138D+00 0.172D+00 0.684D+00
 Gap=     0.199 Goal=   None    Shift=    0.000
 RMSDP=2.20D-05 MaxDP=4.88D-04 DE=-5.13D-03 OVMax= 1.79D-03

 Cycle   6  Pass 0  IDiag  1:
 E= -117.912404383053     Delta-E=       -0.000027434335 Rises=F Damp=F
 DIIS: error= 1.30D-04 at cycle   6 NSaved=   6.
 NSaved= 6 IEnMin= 6 EnMin= -117.912404383053     IErMin= 6 ErrMin= 1.30D-04
 ErrMax= 1.30D-04  0.00D+00 EMaxC= 1.00D-01 BMatC= 2.46D-06 BMatP= 2.98D-05
 IDIUse=3 WtCom= 9.99D-01 WtEn= 1.30D-03
 Coeff-Com: -0.119D-02 0.791D-03 0.474D-01 0.594D-01 0.316D+00 0.577D+00
 Coeff-En:   0.000D+00 0.000D+00 0.000D+00 0.000D+00 0.000D+00 0.100D+01
 Coeff:     -0.119D-02 0.790D-03 0.474D-01 0.593D-01 0.316D+00 0.578D+00
 Gap=     0.199 Goal=   None    Shift=    0.000
 RMSDP=5.78D-06 MaxDP=1.34D-04 DE=-2.74D-05 OVMax= 4.55D-04

 Initial convergence to 1.0D-05 achieved.  Increase integral accuracy.
 Cycle   7  Pass 1  IDiag  1:
 E= -117.912406200376     Delta-E=       -0.000001817323 Rises=F Damp=F
 DIIS: error= 2.32D-05 at cycle   1 NSaved=   1.
 NSaved= 1 IEnMin= 1 EnMin= -117.912406200376     IErMin= 1 ErrMin= 2.32D-05
 ErrMax= 2.32D-05  0.00D+00 EMaxC= 1.00D-01 BMatC= 7.93D-08 BMatP= 7.93D-08
 IDIUse=1 WtCom= 1.00D+00 WtEn= 0.00D+00
 Coeff-Com:  0.100D+01
 Coeff:      0.100D+01
 Gap=     0.199 Goal=   None    Shift=    0.000
 RMSDP=5.78D-06 MaxDP=1.34D-04 DE=-1.82D-06 OVMax= 1.63D-04

 Cycle   8  Pass 1  IDiag  1:
 E= -117.912406168331     Delta-E=        0.000000032045 Rises=F Damp=F
 DIIS: error= 2.90D-05 at cycle   2 NSaved=   2.
 NSaved= 2 IEnMin= 1 EnMin= -117.912406200376     IErMin= 1 ErrMin= 2.32D-05
 ErrMax= 2.90D-05  0.00D+00 EMaxC= 1.00D-01 BMatC= 1.12D-07 BMatP= 7.93D-08
 IDIUse=1 WtCom= 1.00D+00 WtEn= 0.00D+00
 Coeff-Com:  0.545D+00 0.455D+00
 Coeff:      0.545D+00 0.455D+00
 Gap=     0.199 Goal=   None    Shift=    0.000
 RMSDP=1.19D-06 MaxDP=4.79D-05 DE= 3.20D-08 OVMax= 1.90D-04

 Cycle   9  Pass 1  IDiag  1:
 E= -117.912406262620     Delta-E=       -0.000000094289 Rises=F Damp=F
 DIIS: error= 1.12D-05 at cycle   3 NSaved=   3.
 NSaved= 3 IEnMin= 3 EnMin= -117.912406262620     IErMin= 3 ErrMin= 1.12D-05
 ErrMax= 1.12D-05  0.00D+00 EMaxC= 1.00D-01 BMatC= 1.29D-08 BMatP= 7.93D-08
 IDIUse=1 WtCom= 1.00D+00 WtEn= 0.00D+00
 Coeff-Com:  0.329D+00 0.319D+00 0.351D+00
 Coeff:      0.329D+00 0.319D+00 0.351D+00
 Gap=     0.199 Goal=   None    Shift=    0.000
 RMSDP=4.15D-07 MaxDP=1.62D-05 DE=-9.43D-08 OVMax= 8.12D-05

 Cycle  10  Pass 1  IDiag  1:
 E= -117.912406276473     Delta-E=       -0.000000013853 Rises=F Damp=F
 DIIS: error= 1.89D-06 at cycle   4 NSaved=   4.
 NSaved= 4 IEnMin= 4 EnMin= -117.912406276473     IErMin= 4 ErrMin= 1.89D-06
 ErrMax= 1.89D-06  0.00D+00 EMaxC= 1.00D-01 BMatC= 4.03D-10 BMatP= 1.29D-08
 IDIUse=1 WtCom= 1.00D+00 WtEn= 0.00D+00
 Coeff-Com:  0.104D+00 0.115D+00 0.181D+00 0.601D+00
 Coeff:      0.104D+00 0.115D+00 0.181D+00 0.601D+00
 Gap=     0.199 Goal=   None    Shift=    0.000
 RMSDP=7.97D-08 MaxDP=3.02D-06 DE=-1.39D-08 OVMax= 1.31D-05

 Cycle  11  Pass 1  IDiag  1:
 E= -117.912406276897     Delta-E=       -0.000000000424 Rises=F Damp=F
 DIIS: error= 4.27D-07 at cycle   5 NSaved=   5.
 NSaved= 5 IEnMin= 5 EnMin= -117.912406276897     IErMin= 5 ErrMin= 4.27D-07
 ErrMax= 4.27D-07  0.00D+00 EMaxC= 1.00D-01 BMatC= 2.32D-11 BMatP= 4.03D-10
 IDIUse=1 WtCom= 1.00D+00 WtEn= 0.00D+00
 Coeff-Com: -0.770D-02-0.180D-02-0.447D-03 0.188D+00 0.822D+00
 Coeff:     -0.770D-02-0.180D-02-0.447D-03 0.188D+00 0.822D+00
 Gap=     0.199 Goal=   None    Shift=    0.000
 RMSDP=2.02D-08 MaxDP=4.52D-07 DE=-4.24D-10 OVMax= 1.25D-06

 Cycle  12  Pass 1  IDiag  1:
 E= -117.912406276920     Delta-E=       -0.000000000023 Rises=F Damp=F
 DIIS: error= 1.15D-07 at cycle   6 NSaved=   6.
 NSaved= 6 IEnMin= 6 EnMin= -117.912406276920     IErMin= 6 ErrMin= 1.15D-07
 ErrMax= 1.15D-07  0.00D+00 EMaxC= 1.00D-01 BMatC= 1.80D-12 BMatP= 2.32D-11
 IDIUse=1 WtCom= 1.00D+00 WtEn= 0.00D+00
 Coeff-Com: -0.724D-02-0.465D-02-0.921D-02 0.701D-01 0.375D+00 0.576D+00
 Coeff:     -0.724D-02-0.465D-02-0.921D-02 0.701D-01 0.375D+00 0.576D+00
 Gap=     0.199 Goal=   None    Shift=    0.000
 RMSDP=4.94D-09 MaxDP=1.35D-07 DE=-2.32D-11 OVMax= 3.50D-07

 SCF Done:  E(RB3LYP) =  -117.912406277     A.U. after   12 cycles
            NFock= 12  Conv=0.49D-08     -V/T= 2.0095
 KE= 1.168043482344D+02 PE=-4.097740294649D+02 EE= 1.062893653078D+02
 Leave Link  502 at Thu Apr  7 11:49:50 2022, MaxMem=  1073741824 cpu:              34.8 elap:               6.2
 (Enter /home/saurabh/gaussian/g16/l801.exe)
 DoSCS=F DFT=T ScalE2(SS,OS)=  1.000000  1.000000
 Range of M.O.s used for correlation:     1   174
 NBasis=   174 NAE=    12 NBE=    12 NFC=     0 NFV=     0
 NROrb=    174 NOA=    12 NOB=    12 NVA=   162 NVB=   162

 **** Warning!!: The largest alpha MO coefficient is  0.10741130D+02

 Leave Link  801 at Thu Apr  7 11:49:50 2022, MaxMem=  1073741824 cpu:               0.2 elap:               0.0
 (Enter /home/saurabh/gaussian/g16/l1101.exe)
 Using compressed storage, NAtomX=     9.
 Will process     10 centers per pass.
 Leave Link 1101 at Thu Apr  7 11:49:50 2022, MaxMem=  1073741824 cpu:               1.4 elap:               0.2
 (Enter /home/saurabh/gaussian/g16/l1102.exe)
 Symmetrizing basis deriv contribution to polar:
 IMax=3 JMax=2 DiffMx= 0.00D+00
 Leave Link 1102 at Thu Apr  7 11:49:50 2022, MaxMem=  1073741824 cpu:               0.2 elap:               0.1
 (Enter /home/saurabh/gaussian/g16/l1110.exe)
 Forming Gx(P) for the SCF density, NAtomX=     9.
 Integral derivatives from FoFJK, PRISM(SPDF).
 Do as many integral derivatives as possible in FoFJK.
 G2DrvN: MDV=    1073740761.
 G2DrvN: will do    10 centers at a time, making    1 passes.
 Calling FoFCou, ICntrl=  3107 FMM=F I1Cent=   0 AccDes= 0.00D+00.
 FoFJK:  IHMeth= 1 ICntrl=    3107 DoSepK=F KAlg= 0 I1Cent=           0 FoldK=F
 IRaf=         0 NMat=       1 IRICut=       1 DoRegI=T DoRafI=F ISym2E= 0 IDoP0=0 IntGTp=1.
 FoFCou: FMM=F IPFlag=           0 FMFlag=      100000 FMFlg1=           0
         NFxFlg=           0 DoJE=F BraDBF=F KetDBF=F FulRan=T
         wScrn=  0.000000 ICntrl=      3107 IOpCl=  0 I1Cent=           0 NGrid=           0
         NMat0=    1 NMatS0=      1 NMatT0=    0 NMatD0=    1 NMtDS0=    0 NMtDT0=    0
 Symmetry not used in FoFCou.
 End of G2Drv F.D. properties file   721 does not exist.
 End of G2Drv F.D. properties file   722 does not exist.
 End of G2Drv F.D. properties file   788 does not exist.
 Leave Link 1110 at Thu Apr  7 11:50:00 2022, MaxMem=  1073741824 cpu:              76.7 elap:               9.6
 (Enter /home/saurabh/gaussian/g16/l1002.exe)
 Minotr:  Closed shell wavefunction.
          IDoAtm=111111111
          Direct CPHF calculation.
          Differentiating once with respect to nuclear coordinates.
          Requested convergence is 1.0D-08 RMS, and 1.0D-07 maximum.
          Secondary convergence is 1.0D-12 RMS, and 1.0D-12 maximum.
          NewPWx=T KeepS1=F KeepF1=F KeepIn=T MapXYZ=F SortEE=F KeepMc=T.
         2662 words used for storage of precomputed grid.
 Keep R1 ints in memory in canonical form, NReq=124066995.
 FoFCou: FMM=F IPFlag=           0 FMFlag=           0 FMFlg1=           0
         NFxFlg=           0 DoJE=F BraDBF=F KetDBF=F FulRan=T
         wScrn=  0.000000 ICntrl=       600 IOpCl=  0 I1Cent=           0 NGrid=           0
         NMat0=    1 NMatS0=  15225 NMatT0=    0 NMatD0=    1 NMtDS0=    0 NMtDT0=    0
 Symmetry not used in FoFCou.
 Two-electron integral symmetry not used.
          MDV=    1073741824 using IRadAn=       1.
          Solving linear equations simultaneously, MaxMat=       0.
          There are    30 degrees of freedom in the 1st order CPHF.  IDoFFX=6 NUNeed=     0.
     24 vectors produced by pass  0 Test12= 6.48D-15 3.33D-09 XBig12= 7.01D-02 9.16D-02.
 AX will form    24 AO Fock derivatives at one time.
     24 vectors produced by pass  1 Test12= 6.48D-15 3.33D-09 XBig12= 1.81D-02 7.45D-02.
     24 vectors produced by pass  2 Test12= 6.48D-15 3.33D-09 XBig12= 1.41D-04 3.57D-03.
     24 vectors produced by pass  3 Test12= 6.48D-15 3.33D-09 XBig12= 3.88D-07 1.59D-04.
     24 vectors produced by pass  4 Test12= 6.48D-15 3.33D-09 XBig12= 4.75D-10 4.14D-06.
     13 vectors produced by pass  5 Test12= 6.48D-15 3.33D-09 XBig12= 3.93D-13 1.11D-07.
      2 vectors produced by pass  6 Test12= 6.48D-15 3.33D-09 XBig12= 5.00D-16 5.13D-09.
 InvSVY:  IOpt=1 It=  1 EMax= 2.22D-15
 Solved reduced A of dimension   135 with    24 vectors.
 End of Minotr F.D. properties file   721 does not exist.
 End of Minotr F.D. properties file   722 does not exist.
 End of Minotr F.D. properties file   788 does not exist.
 Leave Link 1002 at Thu Apr  7 11:50:08 2022, MaxMem=  1073741824 cpu:              65.1 elap:               8.2
 (Enter /home/saurabh/gaussian/g16/l601.exe)
 Copying SCF densities to generalized density rwf, IOpCl= 0 IROHF=0.

 **********************************************************************

            Population analysis using the SCF Density.

 **********************************************************************

 Orbital symmetries:
       Occupied  (A) (A) (A) (A) (A) (A) (A) (A) (A) (A) (A) (A)
       Virtual   (A) (A) (A) (A) (A) (A) (A) (A) (A) (A) (A) (A)
                 (A) (A) (A) (A) (A) (A) (A) (A) (A) (A) (A) (A)
                 (A) (A) (A) (A) (A) (A) (A) (A) (A) (A) (A) (A)
                 (A) (A) (A) (A) (A) (A) (A) (A) (A) (A) (A) (A)
                 (A) (A) (A) (A) (A) (A) (A) (A) (A) (A) (A) (A)
                 (A) (A) (A) (A) (A) (A) (A) (A) (A) (A) (A) (A)
                 (A) (A) (A) (A) (A) (A) (A) (A) (A) (A) (A) (A)
                 (A) (A) (A) (A) (A) (A) (A) (A) (A) (A) (A) (A)
                 (A) (A) (A) (A) (A) (A) (A) (A) (A) (A) (A) (A)
                 (A) (A) (A) (A) (A) (A) (A) (A) (A) (A) (A) (A)
                 (A) (A) (A) (A) (A) (A) (A) (A) (A) (A) (A) (A)
                 (A) (A) (A) (A) (A) (A) (A) (A) (A) (A) (A) (A)
                 (A) (A) (A) (A) (A) (A) (A) (A) (A) (A) (A) (A)
                 (A) (A) (A) (A) (A) (A)
 The electronic state is 1-A.
 Alpha  occ. eigenvalues --  -10.20052 -10.17687 -10.17493  -0.76849  -0.67018
 Alpha  occ. eigenvalues --   -0.57878  -0.46246  -0.41884  -0.41385  -0.37991
 Alpha  occ. eigenvalues --   -0.34993  -0.23355
 Alpha virt. eigenvalues --   -0.03466   0.04711   0.07303   0.08232   0.11902
 Alpha virt. eigenvalues --    0.12129   0.12785   0.18184   0.20978   0.25610
 Alpha virt. eigenvalues --    0.27505   0.29526   0.32767   0.35002   0.35931
 Alpha virt. eigenvalues --    0.37580   0.37768   0.43754   0.45250   0.46447
 Alpha virt. eigenvalues --    0.46754   0.48736   0.49590   0.50515   0.51468
 Alpha virt. eigenvalues --    0.54616   0.62507   0.62942   0.67560   0.72026
 Alpha virt. eigenvalues --    0.81883   0.85434   0.87637   0.89608   0.89658
 Alpha virt. eigenvalues --    0.93706   0.96420   1.00699   1.02745   1.04092
 Alpha virt. eigenvalues --    1.05712   1.05980   1.08968   1.10982   1.18508
 Alpha virt. eigenvalues --    1.21367   1.25567   1.27929   1.29534   1.30576
 Alpha virt. eigenvalues --    1.33054   1.34324   1.36025   1.42436   1.45617
 Alpha virt. eigenvalues --    1.46565   1.48925   1.55998   1.66225   1.75461
 Alpha virt. eigenvalues --    2.05154   2.09448   2.10091   2.18749   2.21441
 Alpha virt. eigenvalues --    2.23709   2.27566   2.38506   2.45925   2.48396
 Alpha virt. eigenvalues --    2.48582   2.54112   2.54204   2.63773   2.67123
 Alpha virt. eigenvalues --    2.70661   2.72686   2.75816   2.76446   2.78773
 Alpha virt. eigenvalues --    2.85237   2.85481   2.87399   2.88661   2.90678
 Alpha virt. eigenvalues --    2.94556   2.99166   3.00307   3.00593   3.05746
 Alpha virt. eigenvalues --    3.08802   3.10575   3.11302   3.12991   3.15513
 Alpha virt. eigenvalues --    3.19938   3.20562   3.30821   3.31480   3.37416
 Alpha virt. eigenvalues --    3.39077   3.41284   3.43402   3.46196   3.46645
 Alpha virt. eigenvalues --    3.48073   3.56536   3.62394   3.64251   3.67734
 Alpha virt. eigenvalues --    3.73517   3.74159   3.75818   3.79818   3.85236
 Alpha virt. eigenvalues --    3.85312   3.89197   3.90913   3.95665   3.97422
 Alpha virt. eigenvalues --    3.98716   3.99753   4.05973   4.08232   4.09014
 Alpha virt. eigenvalues --    4.12884   4.16826   4.19672   4.22212   4.24961
 Alpha virt. eigenvalues --    4.28878   4.38175   4.39398   4.53291   4.57529
 Alpha virt. eigenvalues --    4.72762   4.74144   4.75119   4.81646   4.95036
 Alpha virt. eigenvalues --    4.97947   5.01201   5.05185   5.06821   5.11106
 Alpha virt. eigenvalues --    5.11790   5.15524   5.22281   5.26951   5.28867
 Alpha virt. eigenvalues --    5.32733   5.33232   5.40144   5.55054   5.66299
 Alpha virt. eigenvalues --    5.79530   5.84631   5.86586   6.26700  10.93641
 Alpha virt. eigenvalues --   12.45238  13.18960
          Condensed to atoms (all electrons):
               1          2          3          4          5          6
     1  C    4.830824   0.320908  -0.072407   0.398456   0.404638   0.404246
     2  C    0.320908   5.010060   0.580504  -0.037408  -0.035255  -0.035065
     3  C   -0.072407   0.580504   5.022064   0.007364  -0.009954  -0.009711
     4  H    0.398456  -0.037408   0.007364   0.606473  -0.027272  -0.027086
     5  H    0.404638  -0.035255  -0.009954  -0.027272   0.582787  -0.029171
     6  H    0.404246  -0.035065  -0.009711  -0.027086  -0.029171   0.582801
     7  H   -0.032587   0.420252  -0.026634  -0.005536   0.003033   0.002937
     8  H   -0.000949  -0.036861   0.415231  -0.000007   0.001149   0.001066
     9  H    0.005365  -0.031438   0.410710  -0.000416   0.000076   0.000051
               7          8          9
     1  C   -0.032587  -0.000949   0.005365
     2  C    0.420252  -0.036861  -0.031438
     3  C   -0.026634   0.415231   0.410710
     4  H   -0.005536  -0.000007  -0.000416
     5  H    0.003033   0.001149   0.000076
     6  H    0.002937   0.001066   0.000051
     7  H    0.480207   0.003421  -0.002687
     8  H    0.003421   0.522470  -0.039682
     9  H   -0.002687  -0.039682   0.523746
 Mulliken charges:
               1
     1  C   -0.258495
     2  C   -0.155697
     3  C   -0.317167
     4  H    0.085432
     5  H    0.109967
     6  H    0.109931
     7  H    0.157595
     8  H    0.134161
     9  H    0.134273
 Sum of Mulliken charges =  -0.00000
 Mulliken charges with hydrogens summed into heavy atoms:
               1
     1  C    0.046836
     2  C    0.001898
     3  C   -0.048733
 APT charges:
               1
     1  C   -0.957411
     2  C   -0.459972
     3  C   -0.730445
     4  H    0.358580
     5  H    0.299365
     6  H    0.301370
     7  H    0.413105
     8  H    0.319658
     9  H    0.455749
 Sum of APT charges =  -0.00000
 APT charges with hydrogens summed into heavy atoms:
               1
     1  C    0.001904
     2  C   -0.046867
     3  C    0.044963
 Electronic spatial extent (au):  <R**2>=            201.8275
 Charge=             -0.0000 electrons
 Dipole moment (field-independent basis, Debye):
    X=              0.3800    Y=              0.0114    Z=             -0.0006  Tot=              0.3802
 Quadrupole moment (field-independent basis, Debye-Ang):
   XX=            -19.9621   YY=            -18.6396   ZZ=            -22.1862
   XY=              0.3835   XZ=             -0.0005   YZ=             -0.0025
 Traceless Quadrupole moment (field-independent basis, Debye-Ang):
   XX=              0.3006   YY=              1.6230   ZZ=             -1.9236
   XY=              0.3835   XZ=             -0.0005   YZ=             -0.0025
 Octapole moment (field-independent basis, Debye-Ang**2):
  XXX=             -2.4641  YYY=              1.2816  ZZZ=              0.0196  XYY=             -0.1871
  XXY=              0.7307  XXZ=             -0.0104  XZZ=              2.3350  YZZ=             -1.1335
  YYZ=             -0.0117  XYZ=             -0.0175
 Hexadecapole moment (field-independent basis, Debye-Ang**3):
 XXXX=           -184.0166 YYYY=            -58.1931 ZZZZ=            -33.5902 XXXY=              0.8954
 XXXZ=             -0.0413 YYYX=              1.5453 YYYZ=              0.0194 ZZZX=              0.0366
 ZZZY=             -0.0115 XXYY=            -41.5250 XXZZ=            -39.6159 YYZZ=            -16.1589
 XXYZ=             -0.0445 YYXZ=             -0.0081 ZZXY=             -0.7737
 N-N= 6.876790964572D+01 E-N=-4.097740422353D+02  KE= 1.168043482344D+02
  Exact polarizability:       0.000       0.000       0.000       0.000       0.000       0.000
 Approx polarizability:      77.037      18.864      57.490       0.033       0.000      39.492
 No NMR shielding tensors so no spin-rotation constants.
 Leave Link  601 at Thu Apr  7 11:50:08 2022, MaxMem=  1073741824 cpu:               1.0 elap:               0.2
 (Enter /home/saurabh/gaussian/g16/l701.exe)
 ... and contract with generalized density number  0.
 Compute integral second derivatives.
 Leave Link  701 at Thu Apr  7 11:50:08 2022, MaxMem=  1073741824 cpu:               1.3 elap:               0.2
 (Enter /home/saurabh/gaussian/g16/l702.exe)
 L702 exits ... SP integral derivatives will be done elsewhere.
 Leave Link  702 at Thu Apr  7 11:50:08 2022, MaxMem=  1073741824 cpu:               0.1 elap:               0.0
 (Enter /home/saurabh/gaussian/g16/l703.exe)
 Integral derivatives from FoFJK, PRISM(SPDF).
 Compute integral second derivatives, UseDBF=F ICtDFT=           0.
 Calling FoFJK, ICntrl=    100127 FMM=F ISym2X=0 I1Cent= 0 IOpClX= 0 NMat=1 NMatS=1 NMatT=0.
 FoFJK:  IHMeth= 1 ICntrl=  100127 DoSepK=F KAlg= 0 I1Cent=           0 FoldK=F
 IRaf=         0 NMat=       1 IRICut=       1 DoRegI=T DoRafI=F ISym2E= 0 IDoP0=0 IntGTp=1.
 FoFCou: FMM=F IPFlag=           0 FMFlag=      100000 FMFlg1=         800
         NFxFlg=           0 DoJE=F BraDBF=F KetDBF=F FulRan=T
         wScrn=  0.000000 ICntrl=    100127 IOpCl=  0 I1Cent=           0 NGrid=           0
         NMat0=    1 NMatS0=      1 NMatT0=    0 NMatD0=    1 NMtDS0=    0 NMtDT0=    0
 Symmetry not used in FoFCou.
 Leave Link  703 at Thu Apr  7 11:50:33 2022, MaxMem=  1073741824 cpu:             199.6 elap:              25.0
 (Enter /home/saurabh/gaussian/g16/l716.exe)
 Dipole        = 1.49509671D-01 4.47064932D-03-2.34809090D-04
 Polarizability= 0.00000000D+00 0.00000000D+00 0.00000000D+00
                 0.00000000D+00 0.00000000D+00 0.00000000D+00
 ***** Axes restored to original set *****
 -------------------------------------------------------------------
 Center     Atomic                   Forces (Hartrees/Bohr)
 Number     Number              X              Y              Z
 -------------------------------------------------------------------
      1        6          -0.008084599    0.017516020   -0.000008782
      2        6           0.094979627   -0.148741350    0.003724047
      3        6          -0.120234165    0.114569628   -0.002749662
      4        1           0.005071597   -0.011759019   -0.000109944
      5        1          -0.001990752    0.006373192   -0.011733524
      6        1          -0.001693715    0.007273717    0.011506307
      7        1           0.003791567    0.036162625   -0.001121914
      8        1          -0.006646604   -0.036464719    0.001131049
      9        1           0.034807044    0.015069906   -0.000637577
 -------------------------------------------------------------------
 Cartesian Forces:  Max     0.148741350 RMS     0.048607708
 Force constants in Cartesian coordinates: 
                1             2             3             4             5 
      1  0.468895D+00
      2 -0.505041D-01  0.486078D+00
      3  0.149512D-02  0.745129D-03  0.500237D+00
      4 -0.156845D+00 -0.443825D-01  0.205563D-02  0.363087D+00
      5 -0.501319D-01 -0.114048D+00  0.187329D-02  0.663225D-01  0.733080D+00
      6  0.193947D-02  0.164749D-02 -0.613755D-01 -0.311109D-02 -0.177900D-01
      7 -0.369824D-01  0.782771D-02 -0.253528D-04 -0.126869D+00 -0.104150D-02
      8 -0.128478D-01  0.115516D-01 -0.166161D-03  0.381269D-02 -0.140867D+00
      9  0.543759D-03 -0.277773D-03  0.245181D-02  0.142748D-03  0.200758D-02
     10 -0.184230D+00  0.105565D+00 -0.117862D-04 -0.232143D-01  0.182978D-01
     11  0.109563D+00 -0.137875D+00 -0.128588D-04 -0.155714D-01  0.120150D-01
     12 -0.490343D-04  0.347448D-04 -0.520512D-01  0.560420D-03 -0.507254D-03
     13 -0.459843D-01  0.716598D-03  0.410832D-02 -0.490295D-02 -0.165102D-01
     14  0.551482D-03 -0.115825D+00  0.103862D+00 -0.407823D-02 -0.124510D-01
     15  0.341711D-02  0.103077D+00 -0.203327D+00  0.838692D-03 -0.150719D-03
     16 -0.463176D-01 -0.246893D-02 -0.819869D-02 -0.544837D-02 -0.171015D-01
     17 -0.252870D-02 -0.124165D+00 -0.106725D+00 -0.433713D-02 -0.126556D-01
     18 -0.726261D-02 -0.105725D+00 -0.193930D+00 -0.699162D-03  0.120773D-02
     19  0.340114D-02 -0.213932D-01  0.671454D-03 -0.371889D-01 -0.138459D-01
     20  0.412829D-02 -0.393432D-02  0.224812D-03 -0.152299D-01 -0.466883D+00
     21 -0.290718D-04  0.302422D-03  0.372818D-02  0.529255D-03  0.134548D-01
     22  0.104191D-02  0.209422D-03 -0.536119D-04  0.518223D-02  0.252167D-01
     23 -0.981490D-03  0.603792D-03 -0.102402D-03 -0.378616D-02 -0.103183D-01
     24 -0.166293D-04 -0.204028D-03 -0.360998D-02  0.136465D-03  0.182675D-03
     25 -0.297905D-02  0.442965D-02 -0.410821D-04 -0.138007D-01 -0.112061D-01
     26  0.275166D-02 -0.238699D-02  0.301793D-03  0.172500D-01  0.121278D-01
     27 -0.381179D-04  0.400047D-03  0.787635D-02 -0.452952D-03 -0.278109D-03
                6             7             8             9            10 
      6  0.139134D+00
      7  0.291872D-03  0.594558D+00
      8  0.197299D-02  0.206164D+00  0.707751D+00
      9 -0.740471D-01 -0.859650D-02 -0.193086D-01  0.858624D-01
     10 -0.941205D-04 -0.507947D-02 -0.462514D-02  0.193539D-03  0.208558D+00
     11 -0.292558D-04 -0.276965D-02 -0.162912D-02  0.792815D-04 -0.117649D+00
     12 -0.100368D-02  0.122095D-03  0.102320D-03  0.492520D-03 -0.525277D-04
     13  0.202615D-01 -0.108051D-02 -0.137767D-02 -0.133271D-03  0.130009D-02
     14  0.115245D-01  0.223207D-02  0.862394D-03 -0.788794D-03 -0.959768D-03
     15  0.222778D-02 -0.711815D-03  0.496472D-05  0.208846D-02 -0.833255D-03
     16 -0.194370D-01 -0.105191D-02 -0.135793D-02  0.252997D-03  0.194892D-02
     17 -0.107313D-01  0.223048D-02  0.874735D-03  0.784075D-03 -0.138085D-02
     18  0.324244D-02  0.619465D-03  0.284352D-04  0.203656D-02  0.856033D-03
     19  0.525006D-03  0.693541D-02  0.230106D-01 -0.713242D-03  0.155606D-02
     20  0.134671D-01 -0.369371D-02 -0.573317D-02  0.209463D-03 -0.314760D-03
     21 -0.965765D-02  0.649815D-04  0.602430D-04  0.653183D-03 -0.885100D-05
     22 -0.775237D-03 -0.451209D-01 -0.499809D-01  0.167334D-02  0.386609D-03
     23  0.310209D-03 -0.513917D-01 -0.456201D+00  0.133996D-01 -0.126596D-03
     24 -0.558529D-03  0.170245D-02  0.134018D-01 -0.900841D-02  0.137658D-04
     25  0.399628D-03 -0.385309D+00 -0.162798D+00  0.663663D-02 -0.122549D-02
     26 -0.371726D-03 -0.159557D+00 -0.116610D+00  0.389508D-02  0.119260D-02
     27  0.203853D-02  0.653281D-02  0.390400D-02 -0.105295D-01 -0.627969D-04
               11            12            13            14            15 
     11  0.146944D+00
     12 -0.129896D-03  0.496966D-01
     13  0.128606D-01 -0.215498D-01  0.530828D-01
     14 -0.105228D-01  0.151889D-01  0.444873D-02  0.126568D+00
     15 -0.970240D-03  0.107129D-02 -0.261091D-02 -0.114915D+00  0.219595D+00
     16  0.136395D-01  0.209732D-01 -0.304052D-03 -0.537397D-04 -0.447774D-03
     17 -0.109985D-01 -0.146367D-01  0.348961D-03  0.116171D-01  0.140018D-01
     18  0.112650D-02  0.100864D-02 -0.818282D-04 -0.153344D-01 -0.203685D-01
     19  0.966720D-03 -0.337401D-04 -0.226273D-02 -0.225368D-02  0.169304D-04
     20  0.944244D-03 -0.107451D-04 -0.928739D-03 -0.470876D-03 -0.570164D-03
     21 -0.107191D-04  0.386033D-03  0.639890D-03  0.279873D-03 -0.103298D-02
     22 -0.214885D-03  0.677822D-05 -0.284705D-03  0.787986D-04  0.303545D-03
     23  0.368149D-03 -0.269771D-04  0.381740D-03  0.315933D-03 -0.225876D-03
     24 -0.162759D-04 -0.370519D-03  0.714803D-04  0.119773D-02 -0.726976D-03
     25 -0.824881D-03  0.225651D-04  0.436371D-03  0.343309D-04  0.274786D-04
     26  0.754229D-03 -0.144290D-04  0.599509D-04 -0.942933D-04 -0.251168D-03
     27 -0.365315D-04  0.770309D-03 -0.705397D-03 -0.101400D-02  0.473298D-03
               16            17            18            19            20 
     16  0.532242D-01
     17  0.777345D-02  0.135587D+00
     18  0.679538D-02  0.117742D+00  0.209382D+00
     19 -0.219618D-02 -0.219929D-02  0.108338D-03  0.339623D-01
     20 -0.921449D-03 -0.462635D-03  0.536981D-03  0.146186D-01  0.476153D+00
     21 -0.581050D-03 -0.241547D-03 -0.108205D-02 -0.595739D-03 -0.140023D-01
     22 -0.284017D-03  0.592039D-04 -0.296320D-03 -0.466116D-02  0.184707D-02
     23  0.375533D-03  0.231072D-03  0.152257D-03  0.226363D-02  0.142355D-03
     24 -0.147848D-03 -0.121675D-02 -0.675643D-03  0.134907D-04  0.306478D-03
     25  0.428957D-03  0.338781D-04 -0.393012D-04  0.454079D-03  0.494549D-03
     26  0.115050D-03 -0.277149D-04  0.265184D-03 -0.116750D-02  0.244321D-03
     27  0.790779D-03  0.102343D-02  0.385700D-03  0.750190D-05 -0.161611D-03
               21            22            23            24            25 
     21  0.117851D-02
     22  0.222704D-04  0.412821D-01
     23  0.312274D-03  0.498769D-01  0.470129D+00
     24  0.110995D-01 -0.167191D-02 -0.140274D-01  0.117009D-02
     25 -0.416858D-04  0.245795D-02  0.338816D-02 -0.101259D-03  0.399536D+00
     26 -0.155049D-03 -0.270924D-01 -0.527153D-02  0.375833D-03  0.166448D+00
     27 -0.527270D-02  0.791145D-03  0.208294D-03  0.268049D-02 -0.686297D-02
               26            27 
     26  0.111264D+00
     27 -0.404552D-02  0.157752D-02
 FormGI is forming the generalized inverse of G from B-inverse, IUseBI=4.
 Force constants in internal coordinates: 
                1             2             3             4             5 
      1  0.275321D+00
      2  0.672884D-02  0.299348D+00
      3  0.586994D-02  0.303306D-02  0.297099D+00
      4  0.606834D-02  0.299240D-02  0.366428D-02  0.296249D+00
      5  0.215639D-01  0.409350D-03 -0.704297D-03 -0.729319D-03  0.187207D+00
      6  0.833447D-03  0.812425D-03 -0.109806D-03 -0.996473D-04  0.169550D-02
      7  0.604771D-03 -0.281208D-03  0.314153D-03  0.293438D-03  0.202989D-02
      8 -0.266592D-03  0.221014D-03 -0.903609D-04 -0.780958D-04  0.441885D-02
      9  0.158263D-01  0.356515D-02 -0.479053D-02 -0.480836D-02  0.588997D-02
     10  0.202088D-01 -0.636358D-02 -0.188965D-02 -0.583501D-02 -0.119862D-02
     11  0.196669D-01 -0.638611D-02 -0.579422D-02 -0.177772D-02 -0.118915D-02
     12 -0.185114D-01  0.528037D-02  0.707830D-02 -0.124421D-02 -0.219821D-02
     13 -0.185928D-01  0.522529D-02 -0.119838D-02  0.702624D-02 -0.220319D-02
     14 -0.196250D-01 -0.990579D-03  0.679390D-02  0.678202D-02  0.871130D-03
     15  0.353684D-01  0.546935D-02 -0.415617D-02 -0.388741D-02  0.231060D-01
     16 -0.505344D-02 -0.336878D-02  0.340128D-02  0.324476D-02 -0.232155D-01
     17 -0.303150D-01 -0.210058D-02  0.754892D-03  0.642642D-03  0.109455D-03
     18 -0.267997D-02 -0.100902D-02  0.226922D-03  0.214670D-03  0.110920D-01
     19  0.391810D-02  0.110609D-02  0.457669D-04  0.451627D-04  0.725051D-02
     20 -0.123814D-02 -0.970655D-04 -0.272689D-03 -0.259832D-03 -0.183425D-01
     21  0.552963D-04  0.317535D-04  0.285081D-02 -0.283709D-02 -0.167145D-04
     22  0.344774D-05  0.390794D-04  0.393251D-02 -0.390351D-02 -0.141781D-04
     23  0.697194D-03 -0.477804D-02 -0.172291D-02  0.520682D-02 -0.230102D-03
     24  0.645345D-03 -0.477072D-02 -0.641211D-03  0.414041D-02 -0.227565D-03
     25 -0.785109D-03  0.477568D-02 -0.520735D-02  0.170166D-02  0.238577D-03
     26 -0.836957D-03  0.478300D-02 -0.412565D-02  0.635245D-03  0.241113D-03
     27 -0.839958D-04  0.147109D-04  0.162584D-02 -0.160181D-02  0.935256D-05
     28 -0.830681D-04  0.170202D-04  0.136549D-02 -0.134781D-02  0.239890D-05
     29 -0.321472D-04  0.738492D-05  0.544142D-03 -0.535401D-03  0.681614D-05
     30 -0.312196D-04  0.969421D-05  0.283791D-03 -0.281397D-03  0.000000D+00
                6             7             8             9            10 
      6  0.477040D+00
      7 -0.370817D-03  0.476206D+00
      8  0.551645D-03 -0.253511D-04  0.475692D+00
      9 -0.153727D-02  0.135656D-03  0.144370D-02  0.111785D+00
     10  0.174884D-02  0.422997D-03 -0.711910D-03 -0.190905D-01  0.104534D+00
     11  0.168830D-02  0.409436D-03 -0.700564D-03 -0.194276D-01 -0.207751D-01
     12 -0.283716D-03 -0.319417D-03 -0.902293D-04 -0.401389D-01 -0.370474D-01
     13 -0.273265D-03 -0.312480D-03 -0.109214D-03 -0.404354D-01  0.824767D-02
     14 -0.139616D-02 -0.355847D-03  0.185392D-03  0.674592D-02 -0.371938D-01
     15 -0.685128D-02 -0.366607D-02  0.388619D-02  0.147857D-01 -0.243010D-02
     16  0.392764D-02  0.109833D-03 -0.201973D-02 -0.112507D-01  0.510117D-02
     17  0.292364D-02  0.355623D-02 -0.186647D-02 -0.353497D-02 -0.267106D-02
     18  0.217856D-02  0.523520D-03 -0.939247D-02 -0.225627D-02  0.855941D-03
     19 -0.107710D-02 -0.883233D-02  0.142139D-02  0.394187D-02 -0.111829D-02
     20 -0.110146D-02  0.830881D-02  0.797107D-02 -0.168560D-02  0.262347D-03
     21  0.115534D-04 -0.939727D-05  0.717779D-05 -0.137077D-03  0.638932D-02
     22  0.195046D-04 -0.521915D-05  0.472699D-05 -0.722558D-04  0.705738D-02
     23  0.245855D-03  0.414030D-04 -0.341113D-03 -0.834950D-02  0.660137D-04
     24  0.253806D-03  0.455811D-04 -0.343563D-03 -0.828467D-02  0.734076D-03
     25 -0.251164D-03 -0.568285D-04  0.348467D-03  0.834194D-02 -0.825083D-02
     26 -0.243212D-03 -0.526504D-04  0.346016D-03  0.840676D-02 -0.758277D-02
     27  0.862110D-05 -0.100355D-04 -0.156504D-05  0.577552D-04  0.839657D-03
     28  0.623204D-05  0.922033D-05  0.138609D-05  0.128199D-03  0.160899D-02
     29  0.000000D+00 -0.142136D-04  0.000000D+00 -0.706624D-05  0.171594D-03
     30 -0.171911D-05  0.504221D-05  0.383689D-05  0.633780D-04  0.940930D-03
               11            12            13            14            15 
     11  0.103910D+00
     12  0.826971D-02  0.544799D-01
     13 -0.368798D-01  0.816445D-02  0.546424D-01
     14 -0.367606D-01  0.752596D-02  0.750759D-02  0.533001D-01
     15 -0.247126D-02 -0.657193D-02 -0.662406D-02  0.319358D-02  0.133494D+00
     16  0.496893D-02  0.289912D-02  0.296540D-02 -0.473599D-02 -0.677312D-01
     17 -0.249766D-02  0.367280D-02  0.365866D-02  0.154241D-02 -0.657625D-01
     18  0.833820D-03  0.299268D-03  0.325046D-03 -0.734767D-04 -0.101511D-01
     19 -0.109318D-02 -0.981223D-03 -0.100497D-02  0.259862D-03  0.133558D-01
     20  0.259358D-03  0.681954D-03  0.679924D-03 -0.186385D-03 -0.320470D-02
     21 -0.631249D-02  0.105961D-01 -0.104345D-01 -0.256718D-04  0.357590D-04
     22 -0.706398D-02  0.998292D-02 -0.982350D-02 -0.341558D-05 -0.229808D-04
     23  0.817627D-02 -0.890656D-02 -0.485420D-03  0.919002D-02  0.440634D-03
     24  0.742479D-02 -0.951970D-02  0.125582D-03  0.921227D-02  0.381894D-03
     25  0.648629D-04  0.519137D-03  0.874526D-02 -0.918670D-02 -0.353831D-03
     26 -0.686622D-03 -0.940021D-04  0.935626D-02 -0.916444D-02 -0.412571D-03
     27 -0.918321D-03 -0.391394D-03  0.404517D-03  0.111657D-04 -0.595912D-04
     28 -0.175919D-02 -0.837106D-03  0.837275D-03  0.276067D-04 -0.801780D-04
     29 -0.166836D-03  0.221745D-03 -0.206484D-03 -0.110905D-04  0.000000D+00
     30 -0.100771D-02 -0.223966D-03  0.226273D-03  0.535044D-05 -0.214382D-04
               16            17            18            19            20 
     16  0.838834D-01
     17 -0.161522D-01  0.819146D-01
     18 -0.195030D-02  0.121014D-01  0.731714D-01
     19 -0.197636D-02 -0.113794D-01 -0.396073D-01  0.733337D-01
     20  0.392666D-02 -0.721953D-03 -0.335641D-01 -0.337264D-01  0.672905D-01
     21  0.571818D-05 -0.414771D-04 -0.204801D-05 -0.583761D-05  0.788563D-05
     22  0.197545D-04  0.322636D-05 -0.317604D-05 -0.440710D-05  0.758313D-05
     23  0.298081D-03 -0.738715D-03  0.504217D-03 -0.557377D-03  0.531596D-04
     24  0.312117D-03 -0.694011D-03  0.503089D-03 -0.555946D-03  0.528571D-04
     25 -0.351243D-03  0.705074D-03 -0.506100D-03  0.560279D-03 -0.541789D-04
     26 -0.337207D-03  0.749778D-03 -0.507228D-03  0.561709D-03 -0.544814D-04
     27  0.208122D-04  0.387790D-04 -0.758263D-05  0.113113D-04 -0.372865D-05
     28  0.338016D-04  0.463764D-04  0.158452D-05 -0.842306D-05  0.683854D-05
     29  0.677585D-05 -0.592447D-05 -0.645461D-05  0.988077D-05 -0.342616D-05
     30  0.197653D-04  0.167294D-05  0.271254D-05 -0.985357D-05  0.714103D-05
               21            22            23            24            25 
     21  0.135611D-01
     22  0.883606D-02  0.127393D-01
     23 -0.323537D-02 -0.765457D-02  0.128063D-01
     24 -0.796039D-02 -0.375130D-02  0.838713D-02  0.125962D-01
     25 -0.327067D-02 -0.766521D-02 -0.404390D-02 -0.843844D-02  0.127878D-01
     26 -0.799569D-02 -0.376194D-02 -0.846310D-02 -0.422935D-02  0.839326D-02
     27 -0.234645D-02  0.146320D-02 -0.241257D-02  0.139707D-02 -0.237761D-02
     28 -0.389871D-02  0.306718D-02 -0.392941D-02  0.303648D-02 -0.387054D-02
     29  0.237857D-02 -0.244007D-02  0.200663D-02 -0.281201D-02  0.201693D-02
     30  0.826312D-03 -0.836083D-03  0.489785D-03 -0.117261D-02  0.524001D-03
               26            27            28            29            30 
     26  0.126270D-01
     27  0.143203D-02  0.159801D-01
     28  0.309536D-02  0.165234D-02  0.192513D-01
     29 -0.280172D-02  0.121705D-01 -0.531355D-02  0.169891D-01
     30 -0.113839D-02 -0.215730D-02  0.122854D-01 -0.494906D-03  0.139478D-01
 Leave Link  716 at Thu Apr  7 11:50:33 2022, MaxMem=  1073741824 cpu:               0.2 elap:               0.0
 (Enter /home/saurabh/gaussian/g16/l103.exe)

 GradGradGradGradGradGradGradGradGradGradGradGradGradGradGradGradGradGrad
 Berny optimization.
 Red2BG is reusing G-inverse.
 Internal  Forces:  Max     0.129209263 RMS     0.027907064
 Search for a local minimum.
 Step number   1 out of a maximum of  100
 All quantities printed in internal units (Hartrees-Bohrs-Radians)
 RMS Force = .27907D-01 SwitMx=.10000D-02 MixMth= 1
 Mixed Optimization -- RFO/linear search
 Second derivative matrix not updated -- analytic derivatives used.
 ITU=  0
     Eigenvalues ---   -0.00229   0.01820   0.02670   0.03412   0.05721
     Eigenvalues ---    0.05741   0.08709   0.09461   0.11200   0.11862
     Eigenvalues ---    0.14467   0.14603   0.17373   0.21029   0.29387
     Eigenvalues ---    0.29610   0.30465   0.31980   0.47620   0.47668
     Eigenvalues ---    0.47750
 Eigenvalue     1 is  -2.29D-03 should be greater than     0.000000 Eigenvector:
                          D6        D4        D5        D3        D2
   1                   -0.42028  -0.42009  -0.40565  -0.40546  -0.40347
                          D1        D7        D8        D9        D10
   1                   -0.38884  -0.03951  -0.03153  -0.02488  -0.01689
 RFO step:  Lambda=-8.35579090D-02 EMin=-2.29172036D-03
 Linear search not attempted -- first point.
 Maximum step size (   0.300) exceeded in Quadratic search.
    -- Step size scaled by   0.525
 Iteration  1 RMS(Cart)=  0.09614508 RMS(Int)=  0.01417204
 Iteration  2 RMS(Cart)=  0.01932443 RMS(Int)=  0.00006307
 Iteration  3 RMS(Cart)=  0.00005280 RMS(Int)=  0.00002609
 Iteration  4 RMS(Cart)=  0.00000000 RMS(Int)=  0.00002609
 ITry= 1 IFail=0 DXMaxC= 1.92D-01 DCOld= 1.00D+10 DXMaxT= 3.00D-01 DXLimC= 3.00D+00 Rises=F
 Variable       Old X    -DE/DX   Delta X   Delta X   Delta X     New X
                                 (Linear)    (Quad)   (Total)
    R1        2.87946  -0.00479   0.00000  -0.00538  -0.00538   2.87408
    R2        2.09726  -0.01125   0.00000  -0.01667  -0.01667   2.08059
    R3        2.09843  -0.01322   0.00000  -0.01913  -0.01913   2.07930
    R4        2.09931  -0.01347   0.00000  -0.01392  -0.01392   2.08539
    R5        2.87948  -0.12921   0.00000  -0.26585  -0.26585   2.61363
    R6        1.95020   0.03627   0.00000   0.03634   0.03634   1.98654
    R7        1.95020   0.03697   0.00000   0.03694   0.03694   1.98714
    R8        1.95020   0.03793   0.00000   0.03724   0.03724   1.98744
    A1        1.90788   0.00817   0.00000   0.01661   0.01655   1.92443
    A2        1.92259   0.00205   0.00000   0.00424   0.00419   1.92678
    A3        1.92682   0.00162   0.00000   0.00377   0.00375   1.93057
    A4        1.89625  -0.00445   0.00000  -0.00219  -0.00228   1.89397
    A5        1.90036  -0.00470   0.00000  -0.01421  -0.01423   1.88613
    A6        1.90952  -0.00286   0.00000  -0.00850  -0.00850   1.90101
    A7        1.94815   0.03537   0.00000   0.08711   0.08710   2.03525
    A8        2.16752  -0.01500   0.00000  -0.05078  -0.05079   2.11673
    A9        2.16752  -0.02037   0.00000  -0.03633  -0.03633   2.13118
   A10        2.09440  -0.00410   0.00000   0.01234   0.01234   2.10674
   A11        2.09440   0.00253   0.00000   0.01010   0.01010   2.10450
   A12        2.09440   0.00157   0.00000  -0.02245  -0.02245   2.07195
    D1        3.12615   0.00015   0.00000  -0.15255  -0.15253   2.97362
    D2       -0.01544   0.00013   0.00000  -0.15831  -0.15828  -0.17372
    D3        1.04378  -0.00068   0.00000  -0.16270  -0.16274   0.88104
    D4       -2.09781  -0.00070   0.00000  -0.16846  -0.16849  -2.26630
    D5       -1.06702   0.00049   0.00000  -0.15729  -0.15729  -1.22432
    D6        2.07457   0.00047   0.00000  -0.16306  -0.16304   1.91153
    D7        0.00000  -0.00003   0.00000  -0.01563  -0.01564  -0.01564
    D8        3.14159  -0.00003   0.00000  -0.01247  -0.01248   3.12911
    D9        3.14159  -0.00002   0.00000  -0.00986  -0.00984   3.13175
   D10        0.00000  -0.00001   0.00000  -0.00670  -0.00668  -0.00668
         Item               Value     Threshold  Converged?
 Maximum Force            0.129209     0.000450     NO 
 RMS     Force            0.027907     0.000300     NO 
 Maximum Displacement     0.191614     0.001800     NO 
 RMS     Displacement     0.100074     0.001200     NO 
 Predicted change in Energy=-3.625908D-02
 Lowest energy point so far.  Saving SCF results.
 GradGradGradGradGradGradGradGradGradGradGradGradGradGradGradGradGradGrad

 Leave Link  103 at Thu Apr  7 11:50:33 2022, MaxMem=  1073741824 cpu:               0.1 elap:               0.0
 (Enter /home/saurabh/gaussian/g16/l202.exe)
                          Input orientation:                          
 ---------------------------------------------------------------------
 Center     Atomic      Atomic             Coordinates (Angstroms)
 Number     Number       Type             X           Y           Z
 ---------------------------------------------------------------------
      1          6           0       -3.458286    1.059887   -0.003333
      2          6           0       -2.133491    1.805346   -0.051692
      3          6           0       -0.986579    1.035778    0.020744
      4          1           0       -4.292048    1.770736    0.105028
      5          1           0       -3.477118    0.366382    0.850714
      6          1           0       -3.615784    0.486808   -0.933161
      7          1           0       -2.099206    2.852205   -0.141133
      8          1           0       -1.046584   -0.009466    0.118831
      9          1           0       -0.036876    1.485907   -0.018454
 ---------------------------------------------------------------------
                    Distance matrix (angstroms):
                    1          2          3          4          5
     1  C    0.000000
     2  C    1.520898   0.000000
     3  C    2.471942   1.383072   0.000000
     4  H    1.101003   2.164516   3.387240   0.000000
     5  H    1.100319   2.165707   2.709192   1.786721   0.000000
     6  H    1.103542   2.170881   2.850267   1.784276   1.793305
     7  H    2.253551   1.051232   2.136246   2.457383   3.010268
     8  H    2.640975   2.122260   1.051550   3.701669   2.566010
     9  H    3.447865   2.121070   1.051708   4.266482   3.720759
                    6          7          8          9
     6  H    0.000000
     7  H    2.919319   0.000000
     8  H    2.820243   3.060188   0.000000
     9  H    3.826679   2.476898   1.809557   0.000000
 Stoichiometry    C3H6
 Framework group  C1[X(C3H6)]
 Deg. of freedom    21
 Full point group                 C1      NOp   1
 RotChk:  IX=0 Diff= 9.44D-02
 Largest Abelian subgroup         C1      NOp   1
 Largest concise Abelian subgroup C1      NOp   1
                         Standard orientation:                         
 ---------------------------------------------------------------------
 Center     Atomic      Atomic             Coordinates (Angstroms)
 Number     Number       Type             X           Y           Z
 ---------------------------------------------------------------------
      1          6           0        1.210245   -0.183159    0.000474
      2          6           0       -0.127809    0.539843   -0.002654
      3          6           0       -1.260695   -0.253531    0.001034
      4          1           0        2.029775    0.530710   -0.175507
      5          1           0        1.235552   -0.946426   -0.791664
      6          1           0        1.385405   -0.672057    0.974180
      7          1           0       -0.180919    1.589733   -0.002220
      8          1           0       -1.181965   -1.302087   -0.008387
      9          1           0       -2.218298    0.181205    0.010469
 ---------------------------------------------------------------------
 Rotational constants (GHZ):          41.3863629           9.6329643           8.2261147
 Leave Link  202 at Thu Apr  7 11:50:33 2022, MaxMem=  1073741824 cpu:               0.1 elap:               0.0
 (Enter /home/saurabh/gaussian/g16/l301.exe)
 Standard basis: CC-pVTZ (5D, 7F)
 Ernie: Thresh=  0.10000D-02 Tol=  0.10000D-05 Strict=F.
 Ernie:  9 primitive shells out of 126 were deleted.
 There are   195 symmetry adapted cartesian basis functions of A   symmetry.
 There are   174 symmetry adapted basis functions of A   symmetry.
   174 basis functions,   258 primitive gaussians,   195 cartesian basis functions
    12 alpha electrons       12 beta electrons
       nuclear repulsion energy        70.4222584377 Hartrees.
 IExCor=  402 DFT=T Ex+Corr=B3LYP ExCW=0 ScaHFX=  0.200000
 ScaDFX=  0.800000  0.720000  1.000000  0.810000 ScalE2=  1.000000  1.000000
 IRadAn=      5 IRanWt=     -1 IRanGd=            0 ICorTp=0 IEmpDi=  4
 NAtoms=    9 NActive=    9 NUniq=    9 SFac= 1.00D+00 NAtFMM=   60 NAOKFM=F Big=F
 Integral buffers will be    131072 words long.
 Raffenetti 2 integral format.
 Two-electron integral symmetry is turned on.
 Leave Link  301 at Thu Apr  7 11:50:33 2022, MaxMem=  1073741824 cpu:               0.4 elap:               0.1
 (Enter /home/saurabh/gaussian/g16/l302.exe)
 NPDir=0 NMtPBC=     1 NCelOv=     1 NCel=       1 NClECP=     1 NCelD=      1
         NCelK=      1 NCelE2=     1 NClLst=     1 CellRange=     0.0.
 One-electron integrals computed using PRISM.
 One-electron integral symmetry used in STVInt
 NBasis=   174 RedAO= T EigKep=  6.34D-04  NBF=   174
 NBsUse=   174 1.00D-06 EigRej= -1.00D+00 NBFU=   174
 Precomputing XC quadrature grid using
 IXCGrd= 4 IRadAn=           5 IRanWt=          -1 IRanGd=           0 AccXCQ= 0.00D+00.
 Generated NRdTot=       0 NPtTot=           0 NUsed=           0 NTot=          32
 NSgBfM=   195   195   195   195   195 MxSgAt=     9 MxSgA2=     9.
 Leave Link  302 at Thu Apr  7 11:50:34 2022, MaxMem=  1073741824 cpu:               1.2 elap:               0.2
 (Enter /home/saurabh/gaussian/g16/l303.exe)
 DipDrv:  MaxL=1.
 Leave Link  303 at Thu Apr  7 11:50:34 2022, MaxMem=  1073741824 cpu:               0.2 elap:               0.0
 (Enter /home/saurabh/gaussian/g16/l401.exe)
 Initial guess from the checkpoint file:  "Mol_05.chk"
 B after Tr=    -0.000000    0.000000   -0.000000
         Rot=    0.999616    0.022562   -0.003892   -0.015628 Ang=   3.18 deg.
 Guess basis will be translated and rotated to current coordinates.
 JPrj=2 DoOrth=T DoCkMO=T.
 Generating alternative initial guess.
 ExpMin= 1.03D-01 ExpMax= 8.24D+03 ExpMxC= 2.81D+02 IAcc=3 IRadAn=         5 AccDes= 0.00D+00
 Harris functional with IExCor=  402 and IRadAn=       5 diagonalized for initial guess.
 HarFok:  IExCor=  402 AccDes= 0.00D+00 IRadAn=         5 IDoV= 1 UseB2=F ITyADJ=14
 ICtDFT=  3500011 ScaDFX=  1.000000  1.000000  1.000000  1.000000
 FoFCou: FMM=F IPFlag=           0 FMFlag=      100000 FMFlg1=           0
         NFxFlg=           0 DoJE=T BraDBF=F KetDBF=T FulRan=T
         wScrn=  0.000000 ICntrl=       500 IOpCl=  0 I1Cent=   200000004 NGrid=           0
         NMat0=    1 NMatS0=      1 NMatT0=    0 NMatD0=    1 NMtDS0=    0 NMtDT0=    0
 Petite list used in FoFCou.
 Harris En= -118.003266887613    
 Leave Link  401 at Thu Apr  7 11:50:34 2022, MaxMem=  1073741824 cpu:               3.7 elap:               0.5
 (Enter /home/saurabh/gaussian/g16/l502.exe)
 Keep R1 ints in memory in canonical form, NReq=124086147.
 FoFCou: FMM=F IPFlag=           0 FMFlag=           0 FMFlg1=           0
         NFxFlg=           0 DoJE=F BraDBF=F KetDBF=F FulRan=T
         wScrn=  0.000000 ICntrl=       600 IOpCl=  0 I1Cent=           0 NGrid=           0
         NMat0=    1 NMatS0=  15225 NMatT0=    0 NMatD0=    1 NMtDS0=    0 NMtDT0=    0
 Symmetry not used in FoFCou.
 Two-electron integral symmetry not used.
 Closed shell SCF:
 Using DIIS extrapolation, IDIIS=  1040.
 NGot=  1073741824 LenX=   957754227 LenY=   957715761
 Requested convergence on RMS density matrix=1.00D-08 within1000 cycles.
 Requested convergence on MAX density matrix=1.00D-06.
 Requested convergence on             energy=1.00D-06.
 No special actions if energy rises.
 Integral accuracy reduced to 1.0D-05 until final iterations.

 Cycle   1  Pass 0  IDiag  1:
 E= -117.935908706751    
 DIIS: error= 6.13D-03 at cycle   1 NSaved=   1.
 NSaved= 1 IEnMin= 1 EnMin= -117.935908706751     IErMin= 1 ErrMin= 6.13D-03
 ErrMax= 6.13D-03  0.00D+00 EMaxC= 1.00D-01 BMatC= 8.40D-03 BMatP= 8.40D-03
 IDIUse=3 WtCom= 9.39D-01 WtEn= 6.13D-02
 Coeff-Com:  0.100D+01
 Coeff-En:   0.100D+01
 Coeff:      0.100D+01
 Gap=     0.814 Goal=   None    Shift=    0.000
 GapD=    0.814 DampG=2.000 DampE=1.000 DampFc=2.0000 IDamp=-1.
 RMSDP=5.05D-04 MaxDP=1.39D-02              OVMax= 3.73D-02

 Cycle   2  Pass 0  IDiag  1:
 E= -117.945328920787     Delta-E=       -0.009420214036 Rises=F Damp=F
 DIIS: error= 2.45D-03 at cycle   2 NSaved=   2.
 NSaved= 2 IEnMin= 2 EnMin= -117.945328920787     IErMin= 2 ErrMin= 2.45D-03
 ErrMax= 2.45D-03  0.00D+00 EMaxC= 1.00D-01 BMatC= 7.77D-04 BMatP= 8.40D-03
 IDIUse=3 WtCom= 9.76D-01 WtEn= 2.45D-02
 Coeff-Com:  0.127D+00 0.873D+00
 Coeff-En:   0.000D+00 0.100D+01
 Coeff:      0.123D+00 0.877D+00
 Gap=     0.241 Goal=   None    Shift=    0.000
 RMSDP=1.60D-04 MaxDP=4.30D-03 DE=-9.42D-03 OVMax= 1.37D-02

 Cycle   3  Pass 0  IDiag  1:
 E= -117.945567940569     Delta-E=       -0.000239019782 Rises=F Damp=F
 DIIS: error= 1.92D-03 at cycle   3 NSaved=   3.
 NSaved= 3 IEnMin= 3 EnMin= -117.945567940569     IErMin= 3 ErrMin= 1.92D-03
 ErrMax= 1.92D-03  0.00D+00 EMaxC= 1.00D-01 BMatC= 4.68D-04 BMatP= 7.77D-04
 IDIUse=3 WtCom= 9.81D-01 WtEn= 1.92D-02
 Coeff-Com: -0.103D-01 0.432D+00 0.578D+00
 Coeff-En:   0.000D+00 0.395D+00 0.605D+00
 Coeff:     -0.101D-01 0.432D+00 0.579D+00
 Gap=     0.242 Goal=   None    Shift=    0.000
 RMSDP=8.90D-05 MaxDP=3.16D-03 DE=-2.39D-04 OVMax= 1.02D-02

 Cycle   4  Pass 0  IDiag  1:
 E= -117.946011208686     Delta-E=       -0.000443268116 Rises=F Damp=F
 DIIS: error= 7.78D-04 at cycle   4 NSaved=   4.
 NSaved= 4 IEnMin= 4 EnMin= -117.946011208686     IErMin= 4 ErrMin= 7.78D-04
 ErrMax= 7.78D-04  0.00D+00 EMaxC= 1.00D-01 BMatC= 4.32D-05 BMatP= 4.68D-04
 IDIUse=3 WtCom= 9.92D-01 WtEn= 7.78D-03
 Coeff-Com: -0.107D-01 0.178D+00 0.317D+00 0.516D+00
 Coeff-En:   0.000D+00 0.000D+00 0.000D+00 0.100D+01
 Coeff:     -0.106D-01 0.176D+00 0.314D+00 0.520D+00
 Gap=     0.242 Goal=   None    Shift=    0.000
 RMSDP=2.73D-05 MaxDP=1.12D-03 DE=-4.43D-04 OVMax= 5.11D-03

 Cycle   5  Pass 0  IDiag  1:
 E= -117.946046136062     Delta-E=       -0.000034927377 Rises=F Damp=F
 DIIS: error= 3.52D-04 at cycle   5 NSaved=   5.
 NSaved= 5 IEnMin= 5 EnMin= -117.946046136062     IErMin= 5 ErrMin= 3.52D-04
 ErrMax= 3.52D-04  0.00D+00 EMaxC= 1.00D-01 BMatC= 9.03D-06 BMatP= 4.32D-05
 IDIUse=3 WtCom= 9.96D-01 WtEn= 3.52D-03
 Coeff-Com: -0.459D-02 0.404D-01 0.112D+00 0.343D+00 0.509D+00
 Coeff-En:   0.000D+00 0.000D+00 0.000D+00 0.189D+00 0.811D+00
 Coeff:     -0.458D-02 0.403D-01 0.112D+00 0.343D+00 0.510D+00
 Gap=     0.242 Goal=   None    Shift=    0.000
 RMSDP=1.05D-05 MaxDP=4.40D-04 DE=-3.49D-05 OVMax= 1.84D-03

 Cycle   6  Pass 0  IDiag  1:
 E= -117.946055663874     Delta-E=       -0.000009527811 Rises=F Damp=F
 DIIS: error= 2.66D-05 at cycle   6 NSaved=   6.
 NSaved= 6 IEnMin= 6 EnMin= -117.946055663874     IErMin= 6 ErrMin= 2.66D-05
 ErrMax= 2.66D-05  0.00D+00 EMaxC= 1.00D-01 BMatC= 5.58D-08 BMatP= 9.03D-06
 IDIUse=1 WtCom= 1.00D+00 WtEn= 0.00D+00
 Coeff-Com: -0.359D-03-0.289D-02 0.529D-02 0.391D-01 0.113D+00 0.846D+00
 Coeff:     -0.359D-03-0.289D-02 0.529D-02 0.391D-01 0.113D+00 0.846D+00
 Gap=     0.242 Goal=   None    Shift=    0.000
 RMSDP=1.22D-06 MaxDP=2.98D-05 DE=-9.53D-06 OVMax= 1.34D-04

 Initial convergence to 1.0D-05 achieved.  Increase integral accuracy.
 Cycle   7  Pass 1  IDiag  1:
 E= -117.946049315723     Delta-E=        0.000006348151 Rises=F Damp=F
 DIIS: error= 5.45D-06 at cycle   1 NSaved=   1.
 NSaved= 1 IEnMin= 1 EnMin= -117.946049315723     IErMin= 1 ErrMin= 5.45D-06
 ErrMax= 5.45D-06  0.00D+00 EMaxC= 1.00D-01 BMatC= 4.04D-09 BMatP= 4.04D-09
 IDIUse=1 WtCom= 1.00D+00 WtEn= 0.00D+00
 Coeff-Com:  0.100D+01
 Coeff:      0.100D+01
 Gap=     0.242 Goal=   None    Shift=    0.000
 RMSDP=1.22D-06 MaxDP=2.98D-05 DE= 6.35D-06 OVMax= 3.31D-05

 Cycle   8  Pass 1  IDiag  1:
 E= -117.946049316038     Delta-E=       -0.000000000315 Rises=F Damp=F
 DIIS: error= 6.38D-06 at cycle   2 NSaved=   2.
 NSaved= 2 IEnMin= 2 EnMin= -117.946049316038     IErMin= 1 ErrMin= 5.45D-06
 ErrMax= 6.38D-06  0.00D+00 EMaxC= 1.00D-01 BMatC= 4.46D-09 BMatP= 4.04D-09
 IDIUse=1 WtCom= 1.00D+00 WtEn= 0.00D+00
 Coeff-Com:  0.513D+00 0.487D+00
 Coeff:      0.513D+00 0.487D+00
 Gap=     0.242 Goal=   None    Shift=    0.000
 RMSDP=2.37D-07 MaxDP=8.36D-06 DE=-3.15D-10 OVMax= 1.86D-05

 Cycle   9  Pass 1  IDiag  1:
 E= -117.946049320344     Delta-E=       -0.000000004306 Rises=F Damp=F
 DIIS: error= 1.20D-06 at cycle   3 NSaved=   3.
 NSaved= 3 IEnMin= 3 EnMin= -117.946049320344     IErMin= 3 ErrMin= 1.20D-06
 ErrMax= 1.20D-06  0.00D+00 EMaxC= 1.00D-01 BMatC= 1.35D-10 BMatP= 4.04D-09
 IDIUse=1 WtCom= 1.00D+00 WtEn= 0.00D+00
 Coeff-Com:  0.126D+00 0.184D+00 0.690D+00
 Coeff:      0.126D+00 0.184D+00 0.690D+00
 Gap=     0.242 Goal=   None    Shift=    0.000
 RMSDP=6.55D-08 MaxDP=2.45D-06 DE=-4.31D-09 OVMax= 1.07D-05

 Cycle  10  Pass 1  IDiag  1:
 E= -117.946049320400     Delta-E=       -0.000000000056 Rises=F Damp=F
 DIIS: error= 1.05D-06 at cycle   4 NSaved=   4.
 NSaved= 4 IEnMin= 4 EnMin= -117.946049320400     IErMin= 4 ErrMin= 1.05D-06
 ErrMax= 1.05D-06  0.00D+00 EMaxC= 1.00D-01 BMatC= 8.60D-11 BMatP= 1.35D-10
 IDIUse=1 WtCom= 1.00D+00 WtEn= 0.00D+00
 Coeff-Com:  0.794D-02 0.529D-01 0.474D+00 0.465D+00
 Coeff:      0.794D-02 0.529D-01 0.474D+00 0.465D+00
 Gap=     0.242 Goal=   None    Shift=    0.000
 RMSDP=3.41D-08 MaxDP=1.35D-06 DE=-5.60D-11 OVMax= 6.15D-06

 Cycle  11  Pass 1  IDiag  1:
 E= -117.946049320487     Delta-E=       -0.000000000087 Rises=F Damp=F
 DIIS: error= 1.70D-07 at cycle   5 NSaved=   5.
 NSaved= 5 IEnMin= 5 EnMin= -117.946049320487     IErMin= 5 ErrMin= 1.70D-07
 ErrMax= 1.70D-07  0.00D+00 EMaxC= 1.00D-01 BMatC= 2.71D-12 BMatP= 8.60D-11
 IDIUse=1 WtCom= 1.00D+00 WtEn= 0.00D+00
 Coeff-Com: -0.108D-01 0.346D-02 0.137D+00 0.213D+00 0.658D+00
 Coeff:     -0.108D-01 0.346D-02 0.137D+00 0.213D+00 0.658D+00
 Gap=     0.242 Goal=   None    Shift=    0.000
 RMSDP=6.51D-09 MaxDP=1.94D-07 DE=-8.74D-11 OVMax= 7.90D-07

 SCF Done:  E(RB3LYP) =  -117.946049320     A.U. after   11 cycles
            NFock= 11  Conv=0.65D-08     -V/T= 2.0078
 KE= 1.170308915013D+02 PE=-4.133453147561D+02 EE= 1.079461154967D+02
 Leave Link  502 at Thu Apr  7 11:50:40 2022, MaxMem=  1073741824 cpu:              31.4 elap:               5.7
 (Enter /home/saurabh/gaussian/g16/l701.exe)
 ... and contract with generalized density number  0.
 Compute integral first derivatives.
 Leave Link  701 at Thu Apr  7 11:50:40 2022, MaxMem=  1073741824 cpu:               1.3 elap:               0.2
 (Enter /home/saurabh/gaussian/g16/l702.exe)
 L702 exits ... SP integral derivatives will be done elsewhere.
 Leave Link  702 at Thu Apr  7 11:50:40 2022, MaxMem=  1073741824 cpu:               0.2 elap:               0.0
 (Enter /home/saurabh/gaussian/g16/l703.exe)
 Integral derivatives from FoFJK, PRISM(SPDF).
 Compute integral first derivatives, UseDBF=F ICtDFT=           0.
 Calling FoFJK, ICntrl=      2127 FMM=F ISym2X=0 I1Cent= 0 IOpClX= 0 NMat=1 NMatS=1 NMatT=0.
 FoFJK:  IHMeth= 1 ICntrl=    2127 DoSepK=F KAlg= 0 I1Cent=           0 FoldK=F
 IRaf=         0 NMat=       1 IRICut=       1 DoRegI=T DoRafI=F ISym2E= 0 IDoP0=0 IntGTp=1.
 FoFCou: FMM=F IPFlag=           0 FMFlag=      100000 FMFlg1=         800
         NFxFlg=           0 DoJE=F BraDBF=F KetDBF=F FulRan=T
         wScrn=  0.000000 ICntrl=      2127 IOpCl=  0 I1Cent=           0 NGrid=           0
         NMat0=    1 NMatS0=      1 NMatT0=    0 NMatD0=    1 NMtDS0=    0 NMtDT0=    0
 Symmetry not used in FoFCou.
 Leave Link  703 at Thu Apr  7 11:50:43 2022, MaxMem=  1073741824 cpu:              20.7 elap:               2.6
 (Enter /home/saurabh/gaussian/g16/l716.exe)
 Dipole        = 1.24240606D-01 1.17374183D-02 5.79569249D-03
 ***** Axes restored to original set *****
 -------------------------------------------------------------------
 Center     Atomic                   Forces (Hartrees/Bohr)
 Number     Number              X              Y              Z
 -------------------------------------------------------------------
      1        6          -0.004889417    0.013427724   -0.000986248
      2        6           0.038038566   -0.076510487    0.006480578
      3        6          -0.054393303    0.055253422   -0.004506904
      4        1           0.002363491   -0.007179629   -0.000417690
      5        1          -0.001341910    0.003573100   -0.006447898
      6        1          -0.000483177    0.003805665    0.007136870
      7        1           0.000865929    0.021639535   -0.002596481
      8        1          -0.001029047   -0.021876530    0.001971865
      9        1           0.020868868    0.007867201   -0.000634093
 -------------------------------------------------------------------
 Cartesian Forces:  Max     0.076510487 RMS     0.023739364
 Leave Link  716 at Thu Apr  7 11:50:43 2022, MaxMem=  1073741824 cpu:               0.1 elap:               0.0
 (Enter /home/saurabh/gaussian/g16/l103.exe)

 GradGradGradGradGradGradGradGradGradGradGradGradGradGradGradGradGradGrad
 Berny optimization.
 Using GEDIIS/GDIIS optimizer.
 FormGI is forming the generalized inverse of G from B-inverse, IUseBI=4.
 Internal  Forces:  Max     0.051768602 RMS     0.013184991
 Search for a local minimum.
 Step number   2 out of a maximum of  100
 All quantities printed in internal units (Hartrees-Bohrs-Radians)
 RMS Force = .13185D-01 SwitMx=.10000D-02 MixMth= 1
 Mixed Optimization -- RFO/linear search
 Update second derivatives using D2CorX and points    1    2
 DE= -3.36D-02 DEPred=-3.63D-02 R= 9.28D-01
 TightC=F SS=  1.41D+00  RLast= 4.93D-01 DXNew= 5.0454D-01 1.4804D+00
 Trust test= 9.28D-01 RLast= 4.93D-01 DXMaxT set to 5.05D-01
 ITU=  1  0
 Use linear search instead of GDIIS.
     Eigenvalues ---   -0.00232   0.01820   0.02670   0.03412   0.05721
     Eigenvalues ---    0.05741   0.08728   0.09735   0.11377   0.11835
     Eigenvalues ---    0.14443   0.14601   0.18733   0.28377   0.29390
     Eigenvalues ---    0.29687   0.30297   0.33912   0.45403   0.47627
     Eigenvalues ---    0.47726
 Eigenvalue     1 is  -2.32D-03 should be greater than     0.000000 Eigenvector:
                          D6        D4        D5        D3        D2
   1                    0.42032   0.42008   0.40571   0.40546   0.40339
                          D1        D7        D8        D9        D10
   1                    0.38878   0.03972   0.03167   0.02497   0.01692
 RFO step:  Lambda=-1.48305409D-02 EMin=-2.31686761D-03
 Quartic linear search produced a step of  0.51064.
 Iteration  1 RMS(Cart)=  0.12073763 RMS(Int)=  0.05666384
 Iteration  2 RMS(Cart)=  0.06127772 RMS(Int)=  0.00203361
 Iteration  3 RMS(Cart)=  0.00216142 RMS(Int)=  0.00007816
 Iteration  4 RMS(Cart)=  0.00000232 RMS(Int)=  0.00007814
 Iteration  5 RMS(Cart)=  0.00000000 RMS(Int)=  0.00007814
 ITry= 1 IFail=0 DXMaxC= 3.90D-01 DCOld= 1.00D+10 DXMaxT= 5.05D-01 DXLimC= 3.00D+00 Rises=F
 Variable       Old X    -DE/DX   Delta X   Delta X   Delta X     New X
                                 (Linear)    (Quad)   (Total)
    R1        2.87408  -0.00291  -0.00275  -0.02279  -0.02553   2.84855
    R2        2.08059  -0.00647  -0.00851  -0.01376  -0.02227   2.05833
    R3        2.07930  -0.00723  -0.00977  -0.00263  -0.01240   2.06690
    R4        2.08539  -0.00792  -0.00711  -0.02029  -0.02740   2.05800
    R5        2.61363  -0.05177  -0.13576  -0.01875  -0.15450   2.45912
    R6        1.98654   0.02180   0.01856   0.03222   0.05078   2.03732
    R7        1.98714   0.02199   0.01886   0.03189   0.05076   2.03790
    R8        1.98744   0.02224   0.01902   0.02986   0.04888   2.03632
    A1        1.92443   0.00522   0.00845   0.01385   0.02209   1.94652
    A2        1.92678   0.00134   0.00214   0.01001   0.01207   1.93885
    A3        1.93057   0.00096   0.00192   0.00625   0.00803   1.93860
    A4        1.89397  -0.00283  -0.00117  -0.02066  -0.02197   1.87200
    A5        1.88613  -0.00291  -0.00727   0.00724  -0.00027   1.88586
    A6        1.90101  -0.00201  -0.00434  -0.01764  -0.02199   1.87902
    A7        2.03525   0.02390   0.04448   0.08063   0.12508   2.16034
    A8        2.11673  -0.01180  -0.02593  -0.04494  -0.07090   2.04583
    A9        2.13118  -0.01209  -0.01855  -0.03561  -0.05419   2.07700
   A10        2.10674  -0.00092   0.00630   0.01285   0.01914   2.12587
   A11        2.10450   0.00229   0.00516   0.00728   0.01243   2.11692
   A12        2.07195  -0.00137  -0.01146  -0.02010  -0.03157   2.04038
    D1        2.97362  -0.00027  -0.07789   0.38827   0.31036  -2.99921
    D2       -0.17372  -0.00025  -0.08082   0.40421   0.32333   0.14961
    D3        0.88104  -0.00095  -0.08310   0.39868   0.31554   1.19658
    D4       -2.26630  -0.00094  -0.08604   0.41462   0.32851  -1.93779
    D5       -1.22432   0.00006  -0.08032   0.41012   0.32991  -0.89440
    D6        1.91153   0.00008  -0.08325   0.42606   0.34288   2.25441
    D7       -0.01564   0.00008  -0.00799   0.04477   0.03681   0.02117
    D8        3.12911   0.00004  -0.00637   0.03487   0.02852  -3.12555
    D9        3.13175   0.00006  -0.00503   0.02872   0.02367  -3.12776
   D10       -0.00668   0.00003  -0.00341   0.01882   0.01538   0.00870
         Item               Value     Threshold  Converged?
[...]
     24  0.732056D-02 -0.100065D-01  0.515170D-03  0.867301D-02 -0.163367D-02
     25 -0.545307D-05 -0.554946D-05  0.905771D-02 -0.904721D-02 -0.244339D-05
     26 -0.651333D-05 -0.396194D-05  0.100115D-01 -0.100006D-01  0.473464D-05
     27  0.193014D-05  0.233715D-05  0.691055D-03 -0.691952D-03  0.681814D-05
     28  0.172570D-05  0.322481D-05  0.131405D-02 -0.131483D-02  0.900376D-05
     29 -0.161231D-05  0.000000D+00 -0.285926D-03  0.286826D-03 -0.304206D-05
     30 -0.181675D-05  0.104111D-05  0.337073D-03 -0.336048D-03  0.000000D+00
               16            17            18            19            20 
     16  0.903664D-01
     17 -0.347228D-01  0.928127D-01
     18 -0.194454D-02  0.995284D-02  0.806429D-01
     19 -0.992684D-03 -0.851496D-02 -0.448164D-01  0.805326D-01
     20  0.293722D-02 -0.143788D-02 -0.358265D-01 -0.357161D-01  0.715426D-01
     21 -0.210533D-02  0.466489D-03 -0.140768D-04  0.142169D-03 -0.128208D-03
     22 -0.211847D-02  0.475923D-03 -0.124130D-04  0.141654D-03 -0.129089D-03
     23  0.211736D-02 -0.478077D-03  0.113936D-04 -0.140338D-03  0.128829D-03
     24  0.210421D-02 -0.468642D-03  0.130574D-04 -0.140854D-03  0.127948D-03
     25  0.419135D-05 -0.364954D-05  0.000000D+00  0.000000D+00  0.000000D+00
     26 -0.895076D-05  0.578521D-05  0.000000D+00  0.000000D+00  0.000000D+00
     27  0.926107D-05 -0.148092D-04  0.000000D+00 -0.238194D-05  0.000000D+00
     28  0.938959D-05 -0.160679D-04 -0.359927D-05  0.709973D-05 -0.127805D-05
     29 -0.102185D-04  0.109714D-04  0.112539D-05 -0.404267D-05  0.000000D+00
     30 -0.100900D-04  0.971266D-05 -0.195608D-05  0.543900D-05 -0.153402D-05
               21            22            23            24            25 
     21  0.131326D-01
     22  0.946758D-02  0.139339D-01
     23 -0.383415D-02 -0.749913D-02  0.131344D-01
     24 -0.749921D-02 -0.303278D-02  0.946946D-02  0.139359D-01
     25 -0.303557D-02 -0.749076D-02 -0.303754D-02 -0.749273D-02  0.142349D-01
     26 -0.670063D-02 -0.302441D-02 -0.670252D-02 -0.302630D-02  0.977973D-02
     27 -0.675312D-03  0.230026D-02 -0.674258D-03  0.230132D-02 -0.200043D-02
     28 -0.174480D-02  0.370346D-02 -0.174320D-02  0.370506D-02 -0.374617D-02
     29  0.308390D-02 -0.227933D-02  0.308353D-02 -0.227971D-02  0.256839D-02
     30  0.201442D-02 -0.876134D-03  0.201459D-02 -0.875968D-03  0.822656D-03
               26            27            28            29            30 
     26  0.134559D-01
     27  0.975142D-03  0.188218D-01
     28  0.170209D-02  0.678824D-03  0.212842D-01
     29 -0.279484D-02  0.157703D-01 -0.490841D-02  0.212703D-01
     30 -0.206790D-02 -0.237266D-02  0.156969D-01  0.591635D-03  0.186612D-01
 Leave Link  716 at Thu Apr  7 11:52:43 2022, MaxMem=  1073741824 cpu:               0.2 elap:               0.0
 (Enter /home/saurabh/gaussian/g16/l103.exe)

 GradGradGradGradGradGradGradGradGradGradGradGradGradGradGradGradGradGrad
 Berny optimization.
 Red2BG is reusing G-inverse.
 Internal  Forces:  Max     0.000195120 RMS     0.000038292
 Search for a local minimum.
 Step number   1 out of a maximum of    2
 All quantities printed in internal units (Hartrees-Bohrs-Radians)
 Second derivative matrix not updated -- analytic derivatives used.
 ITU=  0
     Eigenvalues ---    0.00231   0.01958   0.03178   0.03936   0.05647
     Eigenvalues ---    0.05754   0.10472   0.11108   0.11973   0.12170
     Eigenvalues ---    0.14216   0.14464   0.18250   0.31229   0.32553
     Eigenvalues ---    0.33309   0.34241   0.34699   0.35294   0.35799
     Eigenvalues ---    0.63033
 Angle between quadratic step and forces=  70.34 degrees.
 Linear search not attempted -- first point.
 Iteration  1 RMS(Cart)=  0.00040187 RMS(Int)=  0.00000011
 Iteration  2 RMS(Cart)=  0.00000011 RMS(Int)=  0.00000002
 ITry= 1 IFail=0 DXMaxC= 1.04D-03 DCOld= 1.00D+10 DXMaxT= 3.00D-01 DXLimC= 3.00D+00 Rises=F
 Variable       Old X    -DE/DX   Delta X   Delta X   Delta X     New X
                                 (Linear)    (Quad)   (Total)
    R1        2.82868  -0.00002   0.00000  -0.00007  -0.00007   2.82861
    R2        2.06595   0.00002   0.00000   0.00003   0.00003   2.06598
    R3        2.06594   0.00001   0.00000   0.00004   0.00004   2.06598
    R4        2.06000   0.00001   0.00000   0.00001   0.00001   2.06001
    R5        2.50639   0.00020   0.00000   0.00031   0.00031   2.50670
    R6        2.05296   0.00000   0.00000  -0.00000  -0.00000   2.05296
    R7        2.04813  -0.00001   0.00000  -0.00004  -0.00004   2.04809
    R8        2.04425  -0.00002   0.00000  -0.00005  -0.00005   2.04420
    A1        1.93787   0.00002   0.00000   0.00022   0.00022   1.93809
    A2        1.93853  -0.00005   0.00000  -0.00045  -0.00045   1.93809
    A3        1.94695  -0.00000   0.00000   0.00005   0.00005   1.94700
    A4        1.85949   0.00000   0.00000  -0.00007  -0.00007   1.85942
    A5        1.88890   0.00000   0.00000   0.00013   0.00013   1.88903
    A6        1.88892   0.00002   0.00000   0.00011   0.00011   1.88903
    A7        2.18732   0.00002   0.00000   0.00009   0.00009   2.18741
    A8        2.02358  -0.00003   0.00000  -0.00015  -0.00015   2.02343
    A9        2.07229   0.00001   0.00000   0.00006   0.00006   2.07234
   A10        2.12192  -0.00000   0.00000  -0.00005  -0.00005   2.12187
   A11        2.12296   0.00001   0.00000   0.00002   0.00002   2.12298
   A12        2.03830  -0.00000   0.00000   0.00003   0.00003   2.03833
    D1       -2.10786  -0.00001   0.00000  -0.00096  -0.00096  -2.10882
    D2        1.03322  -0.00001   0.00000  -0.00045  -0.00045   1.03277
    D3        2.10956  -0.00000   0.00000  -0.00074  -0.00074   2.10882
    D4       -1.03254   0.00001   0.00000  -0.00023  -0.00023  -1.03277
    D5        0.00060   0.00000   0.00000  -0.00060  -0.00060  -0.00000
    D6       -3.14150   0.00001   0.00000  -0.00009  -0.00009   3.14159
    D7       -0.00049   0.00001   0.00000   0.00049   0.00049  -0.00000
    D8        3.14097   0.00001   0.00000   0.00062   0.00062   3.14159
    D9       -3.14156  -0.00000   0.00000  -0.00003  -0.00003   3.14159
   D10       -0.00010   0.00001   0.00000   0.00010   0.00010  -0.00000
         Item               Value     Threshold  Converged?
 Maximum Force            0.000195     0.000450     YES
 RMS     Force            0.000038     0.000300     YES
 Maximum Displacement     0.001035     0.001800     YES
 RMS     Displacement     0.000402     0.001200     YES
 Predicted change in Energy=-6.263810D-08
 Optimization completed.
    -- Stationary point found.
                           ----------------------------
                           !   Optimized Parameters   !
                           ! (Angstroms and Degrees)  !
 --------------------------                            --------------------------
 ! Name  Definition              Value          Derivative Info.                !
 --------------------------------------------------------------------------------
 ! R1    R(1,2)                  1.4969         -DE/DX =    0.0                 !
 ! R2    R(1,4)                  1.0933         -DE/DX =    0.0                 !
 ! R3    R(1,5)                  1.0932         -DE/DX =    0.0                 !
 ! R4    R(1,6)                  1.0901         -DE/DX =    0.0                 !
 ! R5    R(2,3)                  1.3263         -DE/DX =    0.0002              !
 ! R6    R(2,7)                  1.0864         -DE/DX =    0.0                 !
 ! R7    R(3,8)                  1.0838         -DE/DX =    0.0                 !
 ! R8    R(3,9)                  1.0818         -DE/DX =    0.0                 !
 ! A1    A(2,1,4)              111.0316         -DE/DX =    0.0                 !
 ! A2    A(2,1,5)              111.0699         -DE/DX =    0.0                 !
 ! A3    A(2,1,6)              111.5519         -DE/DX =    0.0                 !
 ! A4    A(4,1,5)              106.5408         -DE/DX =    0.0                 !
 ! A5    A(4,1,6)              108.2258         -DE/DX =    0.0                 !
 ! A6    A(5,1,6)              108.2273         -DE/DX =    0.0                 !
 ! A7    A(1,2,3)              125.3242         -DE/DX =    0.0                 !
 ! A8    A(1,2,7)              115.9425         -DE/DX =    0.0                 !
 ! A9    A(3,2,7)              118.7333         -DE/DX =    0.0                 !
 ! A10   A(2,3,8)              121.5771         -DE/DX =    0.0                 !
 ! A11   A(2,3,9)              121.6367         -DE/DX =    0.0                 !
 ! A12   A(8,3,9)              116.7862         -DE/DX =    0.0                 !
 ! D1    D(4,1,2,3)           -120.7716         -DE/DX =    0.0                 !
 ! D2    D(4,1,2,7)             59.1991         -DE/DX =    0.0                 !
 ! D3    D(5,1,2,3)            120.8688         -DE/DX =    0.0                 !
 ! D4    D(5,1,2,7)            -59.1604         -DE/DX =    0.0                 !
 ! D5    D(6,1,2,3)              0.0345         -DE/DX =    0.0                 !
 ! D6    D(6,1,2,7)            180.0052         -DE/DX =    0.0                 !
 ! D7    D(1,2,3,8)             -0.028          -DE/DX =    0.0                 !
 ! D8    D(1,2,3,9)            179.9644         -DE/DX =    0.0                 !
 ! D9    D(7,2,3,8)            180.002          -DE/DX =    0.0                 !
 ! D10   D(7,2,3,9)             -0.0056         -DE/DX =    0.0                 !
 --------------------------------------------------------------------------------
 GradGradGradGradGradGradGradGradGradGradGradGradGradGradGradGradGradGrad

 Leave Link  103 at Thu Apr  7 11:52:43 2022, MaxMem=  1073741824 cpu:               0.1 elap:               0.0
 (Enter /home/saurabh/gaussian/g16/l9999.exe)

 ----------------------------------------------------------------------

 Electric dipole moment (input orientation):
 (Debye = 10**-18 statcoulomb cm , SI units = C m)
                  (au)            (Debye)         (10**-30 SI)
   Tot        0.157802D+00      0.401092D+00      0.133790D+01
   x         -0.154337D+00     -0.392285D+00     -0.130852D+01
   y          0.229328D-01      0.582895D-01      0.194433D+00
   z          0.235725D-01      0.599153D-01      0.199856D+00

 Dipole polarizability, Alpha (input orientation).
 (esu units = cm**3 , SI units = C**2 m**2 J**-1)
 Alpha(0;0):
               (au)            (10**-24 esu)      (10**-40 SI)
   iso        0.370706D+02      0.549329D+01      0.611211D+01
   aniso      0.207063D+02      0.306836D+01      0.341401D+01
   xx         0.486400D+02      0.720770D+01      0.801965D+01
   yx        -0.289263D+01     -0.428644D+00     -0.476931D+00
   yy         0.345802D+02      0.512426D+01      0.570150D+01
   zx        -0.328204D+01     -0.486348D+00     -0.541135D+00
   zy         0.354077D+01      0.524689D+00      0.583795D+00
   zz         0.279915D+02      0.414792D+01      0.461518D+01

 ----------------------------------------------------------------------

 Dipole orientation:
     6         -0.77562165          1.13432425          6.72513264
     6          0.00605728          2.56215828          4.41176057
     6         -0.40102008          1.82914384          2.04977435
     1         -2.04260412          2.26518737          7.90159189
     1          0.85957800          0.67023971          7.89938339
     1         -1.74034507         -0.62036711          6.24143722
     1          0.98243529          4.33805962          4.73961905
     1         -1.36628074          0.07393142          1.62278134
     1          0.21369081          2.95356223          0.45705356

 Electric dipole moment (dipole orientation):
 (Debye = 10**-18 statcoulomb cm , SI units = C m)
                  (au)            (Debye)         (10**-30 SI)
   Tot        0.157802D+00      0.401092D+00      0.133790D+01
   x          0.000000D+00      0.000000D+00      0.000000D+00
   y          0.000000D+00      0.000000D+00      0.000000D+00
   z          0.157802D+00      0.401092D+00      0.133790D+01

 Dipole polarizability, Alpha (dipole orientation).
 (esu units = cm**3 , SI units = C**2 m**2 J**-1)
 Alpha(0;0):
               (au)            (10**-24 esu)      (10**-40 SI)
   iso        0.370706D+02      0.549329D+01      0.611211D+01
   aniso      0.207063D+02      0.306836D+01      0.341401D+01
   xx         0.283329D+02      0.419850D+01      0.467146D+01
   yx         0.372640D+01      0.552196D+00      0.614400D+00
   yy         0.330615D+02      0.489921D+01      0.545111D+01
   zx         0.635840D+00      0.942218D-01      0.104836D+00
   zy         0.108498D+01      0.160778D+00      0.178890D+00
   zz         0.498173D+02      0.738216D+01      0.821376D+01

 ----------------------------------------------------------------------
 Unable to Open any file for archive entry.
 1\1\GINC-MEDIAWIKI\Freq\RB3LYP\CC-pVTZ\C3H6\SAURABH\07-Apr-2022\0\\#P 
 Geom=AllCheck Guess=TCheck SCRF=Check GenChk RB3LYP/CC-pVTZ Freq\\Mol_
 05\\0,1\C,-3.475265961,1.0556602486,0.0429506316\C,-2.1151347023,1.670
 5995146,0.154839436\C,-0.9767767714,1.0815479613,-0.1861868796\H,-4.12
 2620871,1.6506543186,-0.6067555015\H,-3.9682170535,1.0119011003,1.0177
 731299\H,-3.4253930538,0.0438504343,-0.3596422405\H,-2.0819304724,2.68
 22051619,0.5495143902\H,-0.9563324029,0.0737929527,-0.5845354877\H,-0.
 0243014641,1.5833713524,-0.0804132577\\Version=ES64L-G16RevC.01\State=
 1-A\HF=-117.9568988\RMSD=2.299e-09\RMSF=5.393e-05\ZeroPoint=0.0794007\
 Thermal=0.0834858\ETot=-117.873413\HTot=-117.8724688\GTot=-117.9024998
 \Dipole=-0.1543366,0.0229328,0.0235725\DipoleDeriv=-0.0674852,-0.03384
 25,0.0083193,-0.0156428,0.076834,-0.0313881,0.0151992,-0.0295868,0.147
 3307,0.3298993,0.0130552,-0.0472738,0.0783101,0.0757045,0.1082723,-0.0
 214091,0.1144032,-0.1715603,-0.1581809,0.0644733,0.0102708,0.0893937,0
 .0319562,0.1274938,0.0200742,0.1298937,-0.2648118,-0.0634737,0.0431862
 ,-0.0518427,0.0351502,0.0051508,0.0797256,-0.1083641,0.0656395,0.00963
 01,-0.0318836,-0.0113163,0.0628882,-0.0575483,0.0757697,-0.0014961,0.0
 980931,0.0073754,-0.09248,0.0236566,0.0400845,0.0198085,-0.0374202,-0.
 110314,-0.065651,-0.0106504,-0.0730798,0.0380581,0.0033603,-0.0263119,
 0.001922,-0.0201914,-0.1023022,-0.0900973,0.0042857,-0.0894347,0.09603
 05,0.0441679,-0.041126,-0.0071025,0.0114487,-0.0793313,-0.0868016,0.01
 35817,-0.0817747,0.1050861,-0.0800609,-0.0482024,0.0030103,-0.0834999,
 0.0265323,-0.0400576,-0.0108104,-0.0434359,0.1327166\Polar=48.6399594,
 -2.8926336,34.5802001,-3.2820391,3.5407749,27.9915457\Quadrupole=0.517
 097,0.4655432,-0.9826402,-0.041192,-0.1882302,0.6866805\PG=C01 [X(C3H6
 )]\NImag=0\\0.49088946,-0.02718747,0.55663097,-0.00769256,0.01559211,0
 .53041186,-0.18927208,-0.05583921,-0.01085838,0.73774223,-0.04933186,-
 0.11388838,-0.01134955,-0.10732938,0.60010237,-0.00828004,-0.01071844,
 -0.07650438,-0.09839046,0.18664708,0.23471318,-0.03349646,0.01189104,0
 .00867188,-0.43408614,0.16906796,0.10320377,0.79263268,-0.01132578,0.0
 1108230,0.00224220,0.16849232,-0.19518548,-0.07256422,-0.06059725,0.60
 278777,-0.00047385,0.00001281,0.00820189,0.10299349,-0.07261957,-0.090
 29652,-0.08973748,0.20094653,0.19433036,-0.12912594,0.08229962,-0.0904
 7882,-0.02247306,0.01795724,-0.01659211,-0.00185530,-0.00355301,-0.001
 05815,0.14573227,0.08003539,-0.12559210,0.08227715,-0.00738514,0.00998
 802,-0.01005939,-0.00141881,-0.00036276,0.00033495,-0.08874577,0.13223
 457,-0.09007520,0.08306409,-0.13497786,0.00004640,-0.00004155,0.000179
 34,0.00032932,-0.00046454,-0.00012828,0.09867335,-0.09304027,0.1457572
 0,-0.09171103,-0.00501296,0.10202755,-0.01825754,0.00052570,0.02830215
 ,-0.00200390,-0.00333657,-0.00128401,0.00878144,0.00031984,-0.01714493
 ,0.10464741,-0.00623788,-0.04803376,0.00719042,-0.00480756,0.00014189,
 0.01282749,-0.00099345,-0.00059354,-0.00045908,-0.00804564,-0.00124631
 ,0.01703548,0.00657165,0.04632687,0.10025743,0.00607540,-0.24999067,-0
 .00039601,-0.00011045,0.00585027,-0.00091461,0.00076642,0.00024398,0.0
 0806152,0.00080774,-0.01906876,-0.11131460,-0.00874560,0.27275905,-0.0
 4889770,0.01624486,0.00652647,0.00175682,-0.03069312,-0.01229744,0.002
 04762,-0.00078074,-0.00055637,-0.00133057,0.01649698,0.00834772,-0.001
 46518,0.01328650,0.00378970,0.05275709,0.01360208,-0.27161561,-0.08942
 028,0.00026256,-0.01438235,-0.00541955,0.00154451,0.00158303,0.0006877
 1,0.00091752,-0.01541424,-0.00647794,0.00035894,0.00246862,0.00060223,
 -0.01359274,0.29576401,0.00548826,-0.08967453,-0.08327454,-0.00012985,
 -0.00247303,-0.00162106,0.00036132,0.00091183,-0.00022070,-0.00025945,
 0.01849857,0.00798606,0.00118928,-0.02708486,-0.00976231,-0.00607078,0
 .09981695,0.08501944,0.00058453,-0.02714080,-0.01047269,-0.05686809,-0
 .01148650,-0.00308898,0.00240437,0.02851376,0.01164319,0.00091671,0.00
 094301,-0.00027407,0.00088230,0.00050346,0.00071886,-0.00518266,-0.002
 33224,-0.00024702,0.05991661,0.00050467,-0.00955912,-0.00485803,-0.007
 49021,-0.28383439,-0.09442569,-0.00142706,-0.01213897,-0.00734057,-0.0
 0063864,0.00029739,-0.00027973,-0.00004808,0.00024628,0.00036516,-0.00
 226575,0.00062564,-0.00026358,0.00882685,0.30226721,0.00039668,-0.0022
 1564,0.00176519,-0.00151275,-0.09403298,-0.07876697,-0.00013321,-0.010
 21530,0.00287018,0.00047121,0.00021460,0.00019981,-0.00086643,-0.00033
 259,0.00028371,-0.00021907,-0.00025573,0.00176443,0.00024275,0.1077318
 0,0.06855361,0.00181983,0.00196441,-0.00020509,0.00274442,0.02666885,0
 .01082348,-0.05727487,-0.00241651,0.00115069,-0.00004648,-0.00014800,0
 .00001002,0.00019035,-0.00012507,-0.00012102,-0.00003982,-0.00083248,-
 0.00030622,-0.00372004,0.00199379,0.00227315,0.05323687,-0.00119539,0.
 00016281,0.00346537,-0.00142165,-0.01236483,-0.00716890,0.00175156,-0.
 28935499,-0.10004972,0.00045973,0.00012011,-0.00003047,-0.00054538,0.0
 0017933,0.00011566,0.00100473,0.00062795,0.00008008,0.00207005,0.00189
 275,-0.00408765,-0.00423768,0.30746215,-0.00144275,0.00316406,-0.00697
 497,-0.00022539,-0.00987157,0.00234777,0.00278666,-0.09964883,-0.07488
 385,-0.00130113,0.00014159,0.00022020,0.00126159,-0.00003799,-0.000072
 38,0.00041644,0.00025673,0.00024174,0.00230209,-0.00408085,0.00995377,
 -0.00452229,0.11208946,0.06805061,-0.00079060,0.00278050,0.00248164,-0
 .02128656,-0.01537889,-0.00368036,-0.26836801,-0.11499624,-0.02267750,
 -0.00059908,-0.00009751,0.00008740,-0.00106385,-0.00015201,-0.00008127
 ,0.00035441,0.00007183,-0.00002556,0.00106628,0.00054443,-0.00065233,0
 .00308975,0.00211403,0.00072479,0.28759764,0.00113624,0.00081289,-0.00
 513940,0.01551825,0.00942315,0.00088163,-0.11981851,-0.11781737,-0.021
 51306,-0.00065106,-0.00002469,0.00023492,0.00116686,0.00051061,0.00012
 346,0.00029927,0.00034295,0.00018856,0.00010240,0.00020320,0.00319349,
 -0.02286731,-0.00872527,-0.00201261,0.12511386,0.11527453,0.00182204,-
 0.00529986,0.01134347,0.00847296,0.00385162,0.00409837,-0.02456766,-0.
 02197410,-0.04011707,0.00248358,0.00082506,-0.00016772,-0.00217060,-0.
 00039327,-0.00024290,0.00006333,0.00020988,-0.00013307,-0.00082413,0.0
 0315149,-0.00662373,-0.00910272,-0.00441383,0.00111710,0.02382318,0.02
 404301,0.03072553\\-0.00000814,0.00000374,0.00001970,0.00016724,-0.000
 06738,-0.00003951,-0.00018068,0.00008164,0.00004850,0.00001949,-0.0000
 0741,-0.00000098,-0.00001565,-0.00001941,-0.00001718,-0.00000834,0.000
 00532,0.00000268,0.00001697,0.00000115,-0.00000472,-0.00000068,-0.0000
 1293,-0.00000115,0.00000978,0.00001528,-0.00000734\\\@
 The archive entry for this job was punched.


 NO SCIENCE HAS EVER MADE MORE RAPID PROGRESS IN A
 SHORTER TIME THAN CHEMISTRY.
   -- MARTIN HEINRICH KLOPROTH, 1791
 (FIRST PROFESSOR OF CHEMISTRY AT THE UNIVERSITY OF BERLIN)
 Job cpu time:       0 days  0 hours  6 minutes 11.3 seconds.
 Elapsed time:       0 days  0 hours  0 minutes 47.0 seconds.
 File lengths (MBytes):  RWF=     26 Int=      0 D2E=      0 Chk=      4 Scr=      1
 Normal termination of Gaussian 16 at Thu Apr  7 11:52:43 2022.
