 Entering Gaussian System, Link 0=g16
 Input=Mol_01.com
 Output=Mol_01.log
 Initial command:
 /home/saurabh/gaussian/g16/l1.exe "/home/saurabh/gaussian/gauss_scr/Gau-20665.inp" -scrdir="/home/saurabh/gaussian/gauss_scr/"
 Entering Link 1 = /home/saurabh/gaussian/g16/l1.exe PID=     20666.
  
 Copyright (c) 1988-2019, Gaussian, Inc.  All Rights Reserved.
  
 This is part of the Gaussian(R) 16 program.  It is based on
 the Gaussian(R) 09 system (copyright 2009, Gaussian, Inc.),
 the Gaussian(R) 03 system (copyright 2003, Gaussian, Inc.),
 the Gaussian(R) 98 system (copyright 1998, Gaussian, Inc.),
 the Gaussian(R) 94 system (copyright 1995, Gaussian, Inc.),
 the Gaussian 92(TM) system (copyright 1992, Gaussian, Inc.),
 the Gaussian 90(TM) system (copyright 1990, Gaussian, Inc.),
 the Gaussian 88(TM) system (copyright 1988, Gaussian, Inc.),
 the Gaussian 86(TM) system (copyright 1986, Carnegie Mellon
 University), and the Gaussian 82(TM) system (copyright 1983,
 Carnegie Mellon University). Gaussian is a federally registered
 trademark of Gaussian, Inc.
  
 This software contains proprietary and confidential information,
 including trade secrets, belonging to Gaussian, Inc.
  
 This software is provided under written license and may be
 used, copied, transmitted, or stored only in accord with that
 written license.
  
 The following legend is applicable only to US Government
 contracts under FAR:
  
                    RESTRICTED RIGHTS LEGEND
  
 Use, reproduction and disclosure by the US Government is
 subject to restrictions as set forth in subparagraphs (a)
 and (c) of the Commercial Computer Software - Restricted
 Rights clause in FAR 52.227-19.
  
 Gaussian, Inc.
 340 Quinnipiac St., Bldg. 40, Wallingford CT 06492
  
  
 ---------------------------------------------------------------
 Warning -- This program may not be used in any manner that
 competes with the business of Gaussian, Inc. or will provide
 assistance to any competitor of Gaussian, Inc.  The licensee
 of this program is prohibited from giving any competitor of
 Gaussian, Inc. access to this program.  By using this program,
 the user acknowledges that Gaussian, Inc. is engaged in the
 business of creating and licensing software in the field of
 computational chemistry and represents and warrants to the
 licensee that it is not a competitor of Gaussian, Inc. and that
 it will not use this program in any manner prohibited above.
 ---------------------------------------------------------------
  

 Cite this work as:
 Gaussian 16, Revision C.01,
 M. J. Frisch, G. W. Trucks, H. B. Schlegel, G. E. Scuseria, 
 M. A. Robb, J. R. Cheeseman, G. Scalmani, V. Barone, 
 G. A. Petersson, H. Nakatsuji, X. Li, M. Caricato, A. V. Marenich, 
 J. Bloino, B. G. Janesko, R. Gomperts, B. Mennucci, H. P. Hratchian, 
 J. V. Ortiz, A. F. Izmaylov, J. L. Sonnenberg, D. Williams-Young, 
 F. Ding, F. Lipparini, F. Egidi, J. Goings, B. Peng, A. Petrone, 
 T. Henderson, D. Ranasinghe, V. G. Zakrzewski, J. Gao, N. Rega, 
 G. Zheng, W. Liang, M. Hada, M. Ehara, K. Toyota, R. Fukuda, 
 J. Hasegawa, M. Ishida, T. Nakajima, Y. Honda, O. Kitao, H. Nakai, 
 T. Vreven, K. Throssell, J. A. Montgomery, Jr., J. E. Peralta, 
 F. Ogliaro, M. J. Bearpark, J. J. Heyd, E. N. Brothers, K. N. Kudin, 
 V. N. Staroverov, T. A. Keith, R. Kobayashi, J. Normand, 
 K. Raghavachari, A. P. Rendell, J. C. Burant, S. S. Iyengar, 
 J. Tomasi, M. Cossi, J. M. Millam, M. Klene, C. Adamo, R. Cammi, 
 J. W. Ochterski, R. L. Martin, K. Morokuma, O. Farkas, 
 J. B. Foresman, and D. J. Fox, Gaussian, Inc., Wallingford CT, 2019.
 
 ******************************************
 Gaussian 16:  ES64L-G16RevC.01  3-Jul-2019
                 7-Apr-2022 
 ******************************************
 %mem=8gb
 %nproc=8
 Will use up to    8 processors via shared memory.
 %chk=Mol_01.chk
 ----------------------------------------------------------------------
 #p B3LYP/cc-PVTZ scf(verytight, maxcycles=1000) opt(calcfc, maxcyc=100
 0) freq(hpmodes) int(grid=ultrafine)
 ----------------------------------------------------------------------
 1/6=1000,10=4,18=20,19=15,26=4,38=1/1,3;
 2/9=110,12=2,17=6,18=5,40=1/2;
 3/5=16,6=1,11=2,25=1,30=1,71=2,74=-5,75=-5,140=1/1,2,3;
 4//1;
 5/5=2,7=1000,17=3,38=5/2;
 8/6=4,10=90,11=11/1;
 11/6=1,8=1,9=11,15=111,16=1/1,2,10;
 10/6=1,13=1/2;
 6/7=2,8=2,9=2,10=2,28=1/1;
 7/10=1,25=1/1,2,3,16;
 1/6=1000,10=4,18=20,19=15,26=4/3(2);
 2/9=110/2;
 99//99;
 2/9=110/2;
 3/5=16,6=1,11=2,25=1,30=1,71=1,74=-5,75=-5/1,2,3;
 4/5=5,16=3,69=1/1;
 5/5=2,7=1000,17=3,38=5/2;
 7//1,2,3,16;
 1/6=1000,18=20,19=15,26=4/3(-5);
 2/9=110/2;
 6/7=2,8=2,9=2,10=2,19=2,28=1/1;
 99/9=1/99;
 Leave Link    1 at Thu Apr  7 11:17:01 2022, MaxMem=  1073741824 cpu:               0.5 elap:               0.1
 (Enter /home/saurabh/gaussian/g16/l101.exe)
 ------
 Mol_01
 ------
 Symbolic Z-matrix:
 Charge =  0 Multiplicity = 2
 C                    -3.46346   1.06664   0.0032 
 C                    -2.17904   1.88587  -0.02718 
 C                    -0.94369   0.99405  -0.00719 
 H                    -4.33619   1.75224   0.00363 
 H                    -3.49946   0.44549   0.92296 
 H                    -3.52396   0.4082   -0.8895 
 H                    -2.16446   2.52238  -0.93808 
 H                    -0.93594   0.37165   0.9124 
 H                    -0.03298   1.62828  -0.01412 
 H                    -0.92856   0.33343  -0.9002 
 
 ITRead=  0  0  0  0  0  0  0  0  0  0
 MicOpt= -1 -1 -1 -1 -1 -1 -1 -1 -1 -1
 NAtoms=     10 NQM=       10 NQMF=       0 NMMI=      0 NMMIF=      0
                NMic=       0 NMicF=      0.
                    Isotopes and Nuclear Properties:
 (Nuclear quadrupole moments (NQMom) in fm**2, nuclear magnetic moments (NMagM)
  in nuclear magnetons)

  Atom         1           2           3           4           5           6           7           8           9          10
 IAtWgt=          12          12          12           1           1           1           1           1           1           1
 AtmWgt=  12.0000000  12.0000000  12.0000000   1.0078250   1.0078250   1.0078250   1.0078250   1.0078250   1.0078250   1.0078250
 NucSpn=           0           0           0           1           1           1           1           1           1           1
 AtZEff=  -0.0000000  -0.0000000  -0.0000000  -0.0000000  -0.0000000  -0.0000000  -0.0000000  -0.0000000  -0.0000000  -0.0000000
 NQMom=    0.0000000   0.0000000   0.0000000   0.0000000   0.0000000   0.0000000   0.0000000   0.0000000   0.0000000   0.0000000
 NMagM=    0.0000000   0.0000000   0.0000000   2.7928460   2.7928460   2.7928460   2.7928460   2.7928460   2.7928460   2.7928460
 AtZNuc=   6.0000000   6.0000000   6.0000000   1.0000000   1.0000000   1.0000000   1.0000000   1.0000000   1.0000000   1.0000000
 Leave Link  101 at Thu Apr  7 11:17:01 2022, MaxMem=  1073741824 cpu:               1.8 elap:               0.3
 (Enter /home/saurabh/gaussian/g16/l103.exe)

 GradGradGradGradGradGradGradGradGradGradGradGradGradGradGradGradGradGrad
 Berny optimization.
 Initialization pass.
                           ----------------------------
                           !    Initial Parameters    !
                           ! (Angstroms and Degrees)  !
 --------------------------                            --------------------------
 ! Name  Definition              Value          Derivative Info.                !
 --------------------------------------------------------------------------------
 ! R1    R(1,2)                  1.5237         calculate D2E/DX2 analytically  !
 ! R2    R(1,4)                  1.1098         calculate D2E/DX2 analytically  !
 ! R3    R(1,5)                  1.1104         calculate D2E/DX2 analytically  !
 ! R4    R(1,6)                  1.1109         calculate D2E/DX2 analytically  !
 ! R5    R(2,3)                  1.5238         calculate D2E/DX2 analytically  !
 ! R6    R(2,7)                  1.1113         calculate D2E/DX2 analytically  !
 ! R7    R(3,8)                  1.1104         calculate D2E/DX2 analytically  !
 ! R8    R(3,9)                  1.1098         calculate D2E/DX2 analytically  !
 ! R9    R(3,10)                 1.1109         calculate D2E/DX2 analytically  !
 ! A1    A(2,1,4)              109.3134         calculate D2E/DX2 analytically  !
 ! A2    A(2,1,5)              110.1564         calculate D2E/DX2 analytically  !
 ! A3    A(2,1,6)              110.3985         calculate D2E/DX2 analytically  !
 ! A4    A(4,1,5)              108.6473         calculate D2E/DX2 analytically  !
 ! A5    A(4,1,6)              108.8828         calculate D2E/DX2 analytically  !
 ! A6    A(5,1,6)              109.4073         calculate D2E/DX2 analytically  !
 ! A7    A(1,2,3)              111.6207         calculate D2E/DX2 analytically  !
 ! A8    A(1,2,7)              109.5925         calculate D2E/DX2 analytically  !
 ! A9    A(3,2,7)              109.5924         calculate D2E/DX2 analytically  !
 ! A10   A(2,3,8)              110.1554         calculate D2E/DX2 analytically  !
 ! A11   A(2,3,9)              109.3129         calculate D2E/DX2 analytically  !
 ! A12   A(2,3,10)             110.3981         calculate D2E/DX2 analytically  !
 ! A13   A(8,3,9)              108.648          calculate D2E/DX2 analytically  !
 ! A14   A(8,3,10)             109.408          calculate D2E/DX2 analytically  !
 ! A15   A(9,3,10)             108.8833         calculate D2E/DX2 analytically  !
 ! D1    D(4,1,2,3)            179.1152         calculate D2E/DX2 analytically  !
 ! D2    D(4,1,2,7)            -59.2875         calculate D2E/DX2 analytically  !
 ! D3    D(5,1,2,3)             59.8041         calculate D2E/DX2 analytically  !
 ! D4    D(5,1,2,7)           -178.5986         calculate D2E/DX2 analytically  !
 ! D5    D(6,1,2,3)            -61.1359         calculate D2E/DX2 analytically  !
 ! D6    D(6,1,2,7)             60.4614         calculate D2E/DX2 analytically  !
 ! D7    D(1,2,3,8)            -59.8044         calculate D2E/DX2 analytically  !
 ! D8    D(1,2,3,9)           -179.1156         calculate D2E/DX2 analytically  !
 ! D9    D(1,2,3,10)            61.1355         calculate D2E/DX2 analytically  !
 ! D10   D(7,2,3,8)            178.5982         calculate D2E/DX2 analytically  !
 ! D11   D(7,2,3,9)             59.2871         calculate D2E/DX2 analytically  !
 ! D12   D(7,2,3,10)           -60.4618         calculate D2E/DX2 analytically  !
 --------------------------------------------------------------------------------
 Trust Radius=3.00D-01 FncErr=1.00D-07 GrdErr=1.00D-06 EigMax=2.50D+02 EigMin=1.00D-04
 Number of steps in this run=    100 maximum allowed number of steps=    100.
 GradGradGradGradGradGradGradGradGradGradGradGradGradGradGradGradGradGrad

 Leave Link  103 at Thu Apr  7 11:17:01 2022, MaxMem=  1073741824 cpu:               0.1 elap:               0.0
 (Enter /home/saurabh/gaussian/g16/l202.exe)
                          Input orientation:                          
 ---------------------------------------------------------------------
 Center     Atomic      Atomic             Coordinates (Angstroms)
 Number     Number       Type             X           Y           Z
 ---------------------------------------------------------------------
      1          6           0       -3.463460    1.066640    0.003200
      2          6           0       -2.179040    1.885870   -0.027180
      3          6           0       -0.943690    0.994050   -0.007190
      4          1           0       -4.336190    1.752240    0.003630
      5          1           0       -3.499460    0.445490    0.922960
      6          1           0       -3.523960    0.408200   -0.889500
      7          1           0       -2.164460    2.522380   -0.938080
      8          1           0       -0.935940    0.371650    0.912400
      9          1           0       -0.032980    1.628280   -0.014120
     10          1           0       -0.928560    0.333430   -0.900200
 ---------------------------------------------------------------------
                    Distance matrix (angstroms):
                    1          2          3          4          5
     1  C    0.000000
     2  C    1.523744   0.000000
     3  C    2.520837   1.523756   0.000000
     4  H    1.109822   2.161505   3.476208   0.000000
     5  H    1.110442   2.172779   2.774537   1.803574   0.000000
     6  H    1.110908   2.176216   2.789173   1.806611   1.813009
     7  H    2.166238   1.111349   2.166247   2.489246   3.091790
     8  H    2.774529   2.172779   1.110445   3.780687   2.564605
     9  H    3.476195   2.161503   1.109815   4.305032   3.780687
    10  H    2.789166   2.176220   1.110907   3.800246   3.153727
                    6          7          8          9         10
     6  H    0.000000
     7  H    2.514032   0.000000
     8  H    3.153732   3.091792   0.000000
     9  H    3.800240   2.489242   1.803578   0.000000
    10  H    2.596499   2.514038   1.813018   1.806609   0.000000
 Stoichiometry    C3H7(2)
 Framework group  C1[X(C3H7)]
 Deg. of freedom    24
 Full point group                 C1      NOp   1
 Largest Abelian subgroup         C1      NOp   1
 Largest concise Abelian subgroup C1      NOp   1
                         Standard orientation:                         
 ---------------------------------------------------------------------
 Center     Atomic      Atomic             Coordinates (Angstroms)
 Number     Number       Type             X           Y           Z
 ---------------------------------------------------------------------
      1          6           0        1.260415   -0.218248    0.022078
      2          6           0        0.000004    0.608733   -0.199873
      3          6           0       -1.260422   -0.218248    0.022078
      4          1           0        2.152520    0.414995   -0.164622
      5          1           0        1.282304   -1.078334   -0.679959
      6          1           0        1.298250   -0.593588    1.066973
      7          1           0        0.000005    1.480412    0.489527
      8          1           0       -1.282301   -1.078326   -0.679971
      9          1           0       -2.152512    0.415005   -0.164617
     10          1           0       -1.298249   -0.593589    1.066972
 ---------------------------------------------------------------------
 Rotational constants (GHZ):          33.3160940           8.6994972           7.7235773
 Leave Link  202 at Thu Apr  7 11:17:01 2022, MaxMem=  1073741824 cpu:               0.1 elap:               0.0
 (Enter /home/saurabh/gaussian/g16/l301.exe)
 Standard basis: CC-pVTZ (5D, 7F)
 Ernie: Thresh=  0.10000D-02 Tol=  0.10000D-05 Strict=F.
 Ernie:  9 primitive shells out of 134 were deleted.
 There are   210 symmetry adapted cartesian basis functions of A   symmetry.
 There are   188 symmetry adapted basis functions of A   symmetry.
   188 basis functions,   275 primitive gaussians,   210 cartesian basis functions
    13 alpha electrons       12 beta electrons
       nuclear repulsion energy        75.0490722337 Hartrees.
 IExCor=  402 DFT=T Ex+Corr=B3LYP ExCW=0 ScaHFX=  0.200000
 ScaDFX=  0.800000  0.720000  1.000000  0.810000 ScalE2=  1.000000  1.000000
 IRadAn=      5 IRanWt=     -1 IRanGd=            0 ICorTp=0 IEmpDi=  4
 NAtoms=   10 NActive=   10 NUniq=   10 SFac= 1.00D+00 NAtFMM=   60 NAOKFM=F Big=F
 Integral buffers will be    131072 words long.
 Raffenetti 2 integral format.
 Two-electron integral symmetry is turned on.
 Leave Link  301 at Thu Apr  7 11:17:01 2022, MaxMem=  1073741824 cpu:               0.5 elap:               0.1
 (Enter /home/saurabh/gaussian/g16/l302.exe)
 NPDir=0 NMtPBC=     1 NCelOv=     1 NCel=       1 NClECP=     1 NCelD=      1
         NCelK=      1 NCelE2=     1 NClLst=     1 CellRange=     0.0.
 One-electron integrals computed using PRISM.
 One-electron integral symmetry used in STVInt
 NBasis=   188 RedAO= T EigKep=  9.88D-04  NBF=   188
 NBsUse=   188 1.00D-06 EigRej= -1.00D+00 NBFU=   188
 Precomputing XC quadrature grid using
 IXCGrd= 4 IRadAn=           5 IRanWt=          -1 IRanGd=           0 AccXCQ= 0.00D+00.
 Generated NRdTot=       0 NPtTot=           0 NUsed=           0 NTot=          32
 NSgBfM=   210   210   210   210   210 MxSgAt=    10 MxSgA2=    10.
 Leave Link  302 at Thu Apr  7 11:17:01 2022, MaxMem=  1073741824 cpu:               1.5 elap:               0.2
 (Enter /home/saurabh/gaussian/g16/l303.exe)
 DipDrv:  MaxL=1.
 Leave Link  303 at Thu Apr  7 11:17:01 2022, MaxMem=  1073741824 cpu:               0.3 elap:               0.1
 (Enter /home/saurabh/gaussian/g16/l401.exe)
 ExpMin= 1.03D-01 ExpMax= 8.24D+03 ExpMxC= 2.81D+02 IAcc=3 IRadAn=         5 AccDes= 0.00D+00
 Harris functional with IExCor=  402 and IRadAn=       5 diagonalized for initial guess.
 HarFok:  IExCor=  402 AccDes= 0.00D+00 IRadAn=         5 IDoV= 1 UseB2=F ITyADJ=14
 ICtDFT=  3500011 ScaDFX=  1.000000  1.000000  1.000000  1.000000
 FoFCou: FMM=F IPFlag=           0 FMFlag=      100000 FMFlg1=           0
         NFxFlg=           0 DoJE=T BraDBF=F KetDBF=T FulRan=T
         wScrn=  0.000000 ICntrl=       500 IOpCl=  0 I1Cent=   200000004 NGrid=           0
         NMat0=    1 NMatS0=      1 NMatT0=    0 NMatD0=    1 NMtDS0=    0 NMtDT0=    0
 Petite list used in FoFCou.
 Harris En= -118.534957972077    
 JPrj=0 DoOrth=F DoCkMO=F.
 Initial guess <Sx>= 0.0000 <Sy>= 0.0000 <Sz>= 0.5000 <S**2>= 0.7500 S= 0.5000
 Leave Link  401 at Thu Apr  7 11:17:02 2022, MaxMem=  1073741824 cpu:               4.4 elap:               0.6
 (Enter /home/saurabh/gaussian/g16/l502.exe)
 Keep R1 and R2 ints in memory in canonical form, NReq=323959282.
 FoFCou: FMM=F IPFlag=           0 FMFlag=           0 FMFlg1=           0
         NFxFlg=           0 DoJE=F BraDBF=F KetDBF=F FulRan=T
         wScrn=  0.000000 ICntrl=       600 IOpCl=  0 I1Cent=           0 NGrid=           0
         NMat0=    1 NMatS0=  17766 NMatT0=    0 NMatD0=    1 NMtDS0=    0 NMtDT0=    0
 Symmetry not used in FoFCou.
 Two-electron integral symmetry not used.
 UHF open shell SCF:
 Using DIIS extrapolation, IDIIS=  1040.
 NGot=  1073741824 LenX=   758001196 LenY=   757956655
 Requested convergence on RMS density matrix=1.00D-08 within1000 cycles.
 Requested convergence on MAX density matrix=1.00D-06.
 Requested convergence on             energy=1.00D-06.
 No special actions if energy rises.
 Integral accuracy reduced to 1.0D-05 until final iterations.

 Cycle   1  Pass 0  IDiag  1:
 E= -118.363490721459    
 DIIS: error= 4.03D-02 at cycle   1 NSaved=   1.
 NSaved= 1 IEnMin= 1 EnMin= -118.363490721459     IErMin= 1 ErrMin= 4.03D-02
 ErrMax= 4.03D-02  0.00D+00 EMaxC= 1.00D-01 BMatC= 5.84D-01 BMatP= 5.84D-01
 IDIUse=3 WtCom= 5.97D-01 WtEn= 4.03D-01
 Coeff-Com:  0.100D+01
 Coeff-En:   0.100D+01
 Coeff:      0.100D+01
 Gap=     0.204 Goal=   None    Shift=    0.000
 Gap=     0.261 Goal=   None    Shift=    0.000
 GapD=    0.204 DampG=1.000 DampE=0.500 DampFc=0.5000 IDamp=-1.
 Damping current iteration by 5.00D-01
 RMSDP=3.02D-03 MaxDP=8.94D-02              OVMax= 1.88D-01

 Cycle   2  Pass 0  IDiag  1:
 E= -118.426784912326     Delta-E=       -0.063294190867 Rises=F Damp=T
 DIIS: error= 5.89D-03 at cycle   2 NSaved=   2.
 NSaved= 2 IEnMin= 2 EnMin= -118.426784912326     IErMin= 2 ErrMin= 5.89D-03
 ErrMax= 5.89D-03  0.00D+00 EMaxC= 1.00D-01 BMatC= 2.67D-02 BMatP= 5.84D-01
 IDIUse=3 WtCom= 9.41D-01 WtEn= 5.89D-02
 Coeff-Com:  0.782D-01 0.922D+00
 Coeff-En:   0.163D+00 0.837D+00
 Coeff:      0.832D-01 0.917D+00
 Gap=     0.258 Goal=   None    Shift=    0.000
 Gap=     0.270 Goal=   None    Shift=    0.000
 RMSDP=5.24D-04 MaxDP=1.79D-02 DE=-6.33D-02 OVMax= 1.14D-01

 Cycle   3  Pass 0  IDiag  1:
 E= -118.511519130661     Delta-E=       -0.084734218335 Rises=F Damp=F
 DIIS: error= 2.82D-03 at cycle   3 NSaved=   3.
 NSaved= 3 IEnMin= 3 EnMin= -118.511519130661     IErMin= 3 ErrMin= 2.82D-03
 ErrMax= 2.82D-03  0.00D+00 EMaxC= 1.00D-01 BMatC= 2.72D-03 BMatP= 2.67D-02
 IDIUse=3 WtCom= 9.72D-01 WtEn= 2.82D-02
 Coeff-Com: -0.203D-01 0.164D+00 0.857D+00
 Coeff-En:   0.000D+00 0.000D+00 0.100D+01
 Coeff:     -0.197D-01 0.159D+00 0.861D+00
 Gap=     0.255 Goal=   None    Shift=    0.000
 Gap=     0.268 Goal=   None    Shift=    0.000
 RMSDP=1.15D-04 MaxDP=3.51D-03 DE=-8.47D-02 OVMax= 1.28D-02

 Cycle   4  Pass 0  IDiag  1:
 E= -118.512154521772     Delta-E=       -0.000635391110 Rises=F Damp=F
 DIIS: error= 1.29D-03 at cycle   4 NSaved=   4.
 NSaved= 4 IEnMin= 4 EnMin= -118.512154521772     IErMin= 4 ErrMin= 1.29D-03
 ErrMax= 1.29D-03  0.00D+00 EMaxC= 1.00D-01 BMatC= 5.26D-04 BMatP= 2.72D-03
 IDIUse=3 WtCom= 9.87D-01 WtEn= 1.29D-02
 Coeff-Com: -0.111D-01 0.186D-01 0.338D+00 0.655D+00
 Coeff-En:   0.000D+00 0.000D+00 0.000D+00 0.100D+01
 Coeff:     -0.110D-01 0.184D-01 0.333D+00 0.659D+00
 Gap=     0.258 Goal=   None    Shift=    0.000
 Gap=     0.267 Goal=   None    Shift=    0.000
 RMSDP=4.95D-05 MaxDP=2.49D-03 DE=-6.35D-04 OVMax= 4.49D-03

 Cycle   5  Pass 0  IDiag  1:
 E= -118.512278636946     Delta-E=       -0.000124115175 Rises=F Damp=F
 DIIS: error= 3.82D-04 at cycle   5 NSaved=   5.
 NSaved= 5 IEnMin= 5 EnMin= -118.512278636946     IErMin= 5 ErrMin= 3.82D-04
 ErrMax= 3.82D-04  0.00D+00 EMaxC= 1.00D-01 BMatC= 5.57D-05 BMatP= 5.26D-04
 IDIUse=3 WtCom= 9.96D-01 WtEn= 3.82D-03
 Coeff-Com: -0.325D-02-0.394D-02 0.917D-01 0.294D+00 0.621D+00
 Coeff-En:   0.000D+00 0.000D+00 0.000D+00 0.000D+00 0.100D+01
 Coeff:     -0.324D-02-0.393D-02 0.914D-01 0.293D+00 0.623D+00
 Gap=     0.257 Goal=   None    Shift=    0.000
 Gap=     0.268 Goal=   None    Shift=    0.000
 RMSDP=1.37D-05 MaxDP=8.27D-04 DE=-1.24D-04 OVMax= 1.63D-03

 Cycle   6  Pass 0  IDiag  1:
 E= -118.512292709400     Delta-E=       -0.000014072453 Rises=F Damp=F
 DIIS: error= 1.05D-04 at cycle   6 NSaved=   6.
 NSaved= 6 IEnMin= 6 EnMin= -118.512292709400     IErMin= 6 ErrMin= 1.05D-04
 ErrMax= 1.05D-04  0.00D+00 EMaxC= 1.00D-01 BMatC= 3.53D-06 BMatP= 5.57D-05
 IDIUse=3 WtCom= 9.99D-01 WtEn= 1.05D-03
 Coeff-Com:  0.955D-03-0.377D-02-0.283D-01-0.331D-01 0.143D+00 0.921D+00
 Coeff-En:   0.000D+00 0.000D+00 0.000D+00 0.000D+00 0.000D+00 0.100D+01
 Coeff:      0.954D-03-0.376D-02-0.282D-01-0.331D-01 0.143D+00 0.922D+00
 Gap=     0.258 Goal=   None    Shift=    0.000
 Gap=     0.268 Goal=   None    Shift=    0.000
 RMSDP=7.00D-06 MaxDP=4.01D-04 DE=-1.41D-05 OVMax= 6.43D-04

 Initial convergence to 1.0D-05 achieved.  Increase integral accuracy.
 Cycle   7  Pass 1  IDiag  1:
 E= -118.512294153238     Delta-E=       -0.000001443838 Rises=F Damp=F
 DIIS: error= 3.41D-05 at cycle   1 NSaved=   1.
 NSaved= 1 IEnMin= 1 EnMin= -118.512294153238     IErMin= 1 ErrMin= 3.41D-05
 ErrMax= 3.41D-05  0.00D+00 EMaxC= 1.00D-01 BMatC= 2.98D-07 BMatP= 2.98D-07
 IDIUse=1 WtCom= 1.00D+00 WtEn= 0.00D+00
 Coeff-Com:  0.100D+01
 Coeff:      0.100D+01
 Gap=     0.258 Goal=   None    Shift=    0.000
 Gap=     0.268 Goal=   None    Shift=    0.000
 RMSDP=7.00D-06 MaxDP=4.01D-04 DE=-1.44D-06 OVMax= 1.85D-04

 Cycle   8  Pass 1  IDiag  1:
 E= -118.512294254707     Delta-E=       -0.000000101469 Rises=F Damp=F
 DIIS: error= 2.52D-05 at cycle   2 NSaved=   2.
 NSaved= 2 IEnMin= 2 EnMin= -118.512294254707     IErMin= 2 ErrMin= 2.52D-05
 ErrMax= 2.52D-05  0.00D+00 EMaxC= 1.00D-01 BMatC= 1.56D-07 BMatP= 2.98D-07
 IDIUse=1 WtCom= 1.00D+00 WtEn= 0.00D+00
 Coeff-Com:  0.392D+00 0.608D+00
 Coeff:      0.392D+00 0.608D+00
 Gap=     0.258 Goal=   None    Shift=    0.000
 Gap=     0.268 Goal=   None    Shift=    0.000
 RMSDP=1.03D-06 MaxDP=4.35D-05 DE=-1.01D-07 OVMax= 8.59D-05

 Cycle   9  Pass 1  IDiag  1:
 E= -118.512294301051     Delta-E=       -0.000000046344 Rises=F Damp=F
 DIIS: error= 9.83D-06 at cycle   3 NSaved=   3.
 NSaved= 3 IEnMin= 3 EnMin= -118.512294301051     IErMin= 3 ErrMin= 9.83D-06
 ErrMax= 9.83D-06  0.00D+00 EMaxC= 1.00D-01 BMatC= 2.10D-08 BMatP= 1.56D-07
 IDIUse=1 WtCom= 1.00D+00 WtEn= 0.00D+00
 Coeff-Com: -0.511D-01 0.162D+00 0.889D+00
 Coeff:     -0.511D-01 0.162D+00 0.889D+00
 Gap=     0.258 Goal=   None    Shift=    0.000
 Gap=     0.268 Goal=   None    Shift=    0.000
 RMSDP=4.46D-07 MaxDP=2.58D-05 DE=-4.63D-08 OVMax= 5.10D-05

 Cycle  10  Pass 1  IDiag  1:
 E= -118.512294309397     Delta-E=       -0.000000008346 Rises=F Damp=F
 DIIS: error= 4.66D-06 at cycle   4 NSaved=   4.
 NSaved= 4 IEnMin= 4 EnMin= -118.512294309397     IErMin= 4 ErrMin= 4.66D-06
 ErrMax= 4.66D-06  0.00D+00 EMaxC= 1.00D-01 BMatC= 5.78D-09 BMatP= 2.10D-08
 IDIUse=1 WtCom= 1.00D+00 WtEn= 0.00D+00
 Coeff-Com: -0.139D+00-0.999D-01 0.397D+00 0.842D+00
 Coeff:     -0.139D+00-0.999D-01 0.397D+00 0.842D+00
 Gap=     0.258 Goal=   None    Shift=    0.000
 Gap=     0.268 Goal=   None    Shift=    0.000
 RMSDP=2.61D-07 MaxDP=1.10D-05 DE=-8.35D-09 OVMax= 2.78D-05

 Cycle  11  Pass 1  IDiag  1:
 E= -118.512294311689     Delta-E=       -0.000000002292 Rises=F Damp=F
 DIIS: error= 5.05D-07 at cycle   5 NSaved=   5.
 NSaved= 5 IEnMin= 5 EnMin= -118.512294311689     IErMin= 5 ErrMin= 5.05D-07
 ErrMax= 5.05D-07  0.00D+00 EMaxC= 1.00D-01 BMatC= 9.87D-11 BMatP= 5.78D-09
 IDIUse=1 WtCom= 1.00D+00 WtEn= 0.00D+00
 Coeff-Com: -0.335D-01-0.309D-01 0.664D-01 0.215D+00 0.783D+00
 Coeff:     -0.335D-01-0.309D-01 0.664D-01 0.215D+00 0.783D+00
 Gap=     0.258 Goal=   None    Shift=    0.000
 Gap=     0.268 Goal=   None    Shift=    0.000
 RMSDP=2.62D-08 MaxDP=8.71D-07 DE=-2.29D-09 OVMax= 2.52D-06

 Cycle  12  Pass 1  IDiag  1:
 E= -118.512294311722     Delta-E=       -0.000000000033 Rises=F Damp=F
 DIIS: error= 9.55D-08 at cycle   6 NSaved=   6.
 NSaved= 6 IEnMin= 6 EnMin= -118.512294311722     IErMin= 6 ErrMin= 9.55D-08
 ErrMax= 9.55D-08  0.00D+00 EMaxC= 1.00D-01 BMatC= 3.63D-12 BMatP= 9.87D-11
 IDIUse=1 WtCom= 1.00D+00 WtEn= 0.00D+00
 Coeff-Com:  0.109D-01 0.852D-02-0.294D-01-0.669D-01-0.570D-01 0.113D+01
 Coeff:      0.109D-01 0.852D-02-0.294D-01-0.669D-01-0.570D-01 0.113D+01
 Gap=     0.258 Goal=   None    Shift=    0.000
 Gap=     0.268 Goal=   None    Shift=    0.000
 RMSDP=9.82D-09 MaxDP=3.94D-07 DE=-3.32D-11 OVMax= 7.73D-07

 SCF Done:  E(UB3LYP) =  -118.512294312     A.U. after   12 cycles
            NFock= 12  Conv=0.98D-08     -V/T= 2.0092
 <Sx>= 0.0000 <Sy>= 0.0000 <Sz>= 0.5000 <S**2>= 0.7532 S= 0.5016
 <L.S>=  0.00000000000    
 KE= 1.174276195114D+02 PE=-4.235947394588D+02 EE= 1.126057534021D+02
 Annihilation of the first spin contaminant:
 S**2 before annihilation     0.7532,   after     0.7500
 Leave Link  502 at Thu Apr  7 11:17:15 2022, MaxMem=  1073741824 cpu:              60.4 elap:              12.6
 (Enter /home/saurabh/gaussian/g16/l801.exe)
 DoSCS=F DFT=T ScalE2(SS,OS)=  1.000000  1.000000
 Range of M.O.s used for correlation:     1   188
 NBasis=   188 NAE=    13 NBE=    12 NFC=     0 NFV=     0
 NROrb=    188 NOA=    13 NOB=    12 NVA=   175 NVB=   176
 Leave Link  801 at Thu Apr  7 11:17:15 2022, MaxMem=  1073741824 cpu:               0.2 elap:               0.0
 (Enter /home/saurabh/gaussian/g16/l1101.exe)
 Using compressed storage, NAtomX=    10.
 Will process     11 centers per pass.
 Leave Link 1101 at Thu Apr  7 11:17:15 2022, MaxMem=  1073741824 cpu:               1.3 elap:               0.2
 (Enter /home/saurabh/gaussian/g16/l1102.exe)
 Symmetrizing basis deriv contribution to polar:
 IMax=3 JMax=2 DiffMx= 0.00D+00
 Leave Link 1102 at Thu Apr  7 11:17:15 2022, MaxMem=  1073741824 cpu:               0.2 elap:               0.0
 (Enter /home/saurabh/gaussian/g16/l1110.exe)
 Forming Gx(P) for the SCF density, NAtomX=    10.
 Integral derivatives from FoFJK, PRISM(SPDF).
 Do as many integral derivatives as possible in FoFJK.
 G2DrvN: MDV=    1073740658.
 G2DrvN: will do    11 centers at a time, making    1 passes.
 Calling FoFCou, ICntrl=  3107 FMM=F I1Cent=   0 AccDes= 0.00D+00.
 FoFJK:  IHMeth= 1 ICntrl=    3107 DoSepK=F KAlg= 0 I1Cent=           0 FoldK=F
 IRaf=         0 NMat=       1 IRICut=       1 DoRegI=T DoRafI=F ISym2E= 0 IDoP0=0 IntGTp=1.
 FoFCou: FMM=F IPFlag=           0 FMFlag=      100000 FMFlg1=           0
         NFxFlg=           0 DoJE=F BraDBF=F KetDBF=F FulRan=T
         wScrn=  0.000000 ICntrl=      3107 IOpCl=  1 I1Cent=           0 NGrid=           0
         NMat0=    1 NMatS0=      1 NMatT0=    0 NMatD0=    1 NMtDS0=    0 NMtDT0=    0
 Symmetry not used in FoFCou.
 End of G2Drv F.D. properties file   721 does not exist.
 End of G2Drv F.D. properties file   722 does not exist.
 End of G2Drv F.D. properties file   788 does not exist.
 Leave Link 1110 at Thu Apr  7 11:17:34 2022, MaxMem=  1073741824 cpu:             154.2 elap:              19.3
 (Enter /home/saurabh/gaussian/g16/l1002.exe)
 Minotr:  UHF open shell wavefunction.
          IDoAtm=1111111111
          Direct CPHF calculation.
          Differentiating once with respect to nuclear coordinates.
          Requested convergence is 1.0D-08 RMS, and 1.0D-07 maximum.
          Secondary convergence is 1.0D-12 RMS, and 1.0D-12 maximum.
          NewPWx=T KeepS1=F KeepF1=F KeepIn=T MapXYZ=F SortEE=F KeepMc=T.
         2960 words used for storage of precomputed grid.
 Keep R1 and R2 ints in memory in canonical form, NReq=323941420.
 FoFCou: FMM=F IPFlag=           0 FMFlag=           0 FMFlg1=           0
         NFxFlg=           0 DoJE=F BraDBF=F KetDBF=F FulRan=T
         wScrn=  0.000000 ICntrl=       600 IOpCl=  0 I1Cent=           0 NGrid=           0
         NMat0=    1 NMatS0=  17766 NMatT0=    0 NMatD0=    1 NMtDS0=    0 NMtDT0=    0
 Symmetry not used in FoFCou.
 Two-electron integral symmetry not used.
          MDV=    1073741824 using IRadAn=       1.
          Solving linear equations simultaneously, MaxMat=       0.
          There are    33 degrees of freedom in the 1st order CPHF.  IDoFFX=6 NUNeed=     0.
     27 vectors produced by pass  0 Test12= 1.33D-14 3.03D-09 XBig12= 1.46D-01 9.10D-02.
 AX will form    27 AO Fock derivatives at one time.
     27 vectors produced by pass  1 Test12= 1.33D-14 3.03D-09 XBig12= 1.03D-02 1.84D-02.
     27 vectors produced by pass  2 Test12= 1.33D-14 3.03D-09 XBig12= 2.70D-04 4.28D-03.
     27 vectors produced by pass  3 Test12= 1.33D-14 3.03D-09 XBig12= 5.36D-06 3.95D-04.
     27 vectors produced by pass  4 Test12= 1.33D-14 3.03D-09 XBig12= 5.40D-08 5.14D-05.
     27 vectors produced by pass  5 Test12= 1.33D-14 3.03D-09 XBig12= 2.00D-10 2.16D-06.
     11 vectors produced by pass  6 Test12= 1.33D-14 3.03D-09 XBig12= 8.41D-13 1.54D-07.
      4 vectors produced by pass  7 Test12= 1.33D-14 3.03D-09 XBig12= 3.22D-15 8.80D-09.
 InvSVY:  IOpt=1 It=  1 EMax= 1.44D-15
 Solved reduced A of dimension   177 with    27 vectors.
 End of Minotr F.D. properties file   721 does not exist.
 End of Minotr F.D. properties file   722 does not exist.
 End of Minotr F.D. properties file   788 does not exist.
 Leave Link 1002 at Thu Apr  7 11:17:57 2022, MaxMem=  1073741824 cpu:             185.6 elap:              23.3
 (Enter /home/saurabh/gaussian/g16/l601.exe)
 Copying SCF densities to generalized density rwf, IOpCl= 1 IROHF=0.

 **********************************************************************

            Population analysis using the SCF Density.

 **********************************************************************

 Orbital symmetries:
 Alpha Orbitals:
       Occupied  (A) (A) (A) (A) (A) (A) (A) (A) (A) (A) (A) (A)
                 (A)
       Virtual   (A) (A) (A) (A) (A) (A) (A) (A) (A) (A) (A) (A)
                 (A) (A) (A) (A) (A) (A) (A) (A) (A) (A) (A) (A)
                 (A) (A) (A) (A) (A) (A) (A) (A) (A) (A) (A) (A)
                 (A) (A) (A) (A) (A) (A) (A) (A) (A) (A) (A) (A)
                 (A) (A) (A) (A) (A) (A) (A) (A) (A) (A) (A) (A)
                 (A) (A) (A) (A) (A) (A) (A) (A) (A) (A) (A) (A)
                 (A) (A) (A) (A) (A) (A) (A) (A) (A) (A) (A) (A)
                 (A) (A) (A) (A) (A) (A) (A) (A) (A) (A) (A) (A)
                 (A) (A) (A) (A) (A) (A) (A) (A) (A) (A) (A) (A)
                 (A) (A) (A) (A) (A) (A) (A) (A) (A) (A) (A) (A)
                 (A) (A) (A) (A) (A) (A) (A) (A) (A) (A) (A) (A)
                 (A) (A) (A) (A) (A) (A) (A) (A) (A) (A) (A) (A)
                 (A) (A) (A) (A) (A) (A) (A) (A) (A) (A) (A) (A)
                 (A) (A) (A) (A) (A) (A) (A) (A) (A) (A) (A) (A)
                 (A) (A) (A) (A) (A) (A) (A)
 Beta  Orbitals:
       Occupied  (A) (A) (A) (A) (A) (A) (A) (A) (A) (A) (A) (A)
       Virtual   (A) (A) (A) (A) (A) (A) (A) (A) (A) (A) (A) (A)
                 (A) (A) (A) (A) (A) (A) (A) (A) (A) (A) (A) (A)
                 (A) (A) (A) (A) (A) (A) (A) (A) (A) (A) (A) (A)
                 (A) (A) (A) (A) (A) (A) (A) (A) (A) (A) (A) (A)
                 (A) (A) (A) (A) (A) (A) (A) (A) (A) (A) (A) (A)
                 (A) (A) (A) (A) (A) (A) (A) (A) (A) (A) (A) (A)
                 (A) (A) (A) (A) (A) (A) (A) (A) (A) (A) (A) (A)
                 (A) (A) (A) (A) (A) (A) (A) (A) (A) (A) (A) (A)
                 (A) (A) (A) (A) (A) (A) (A) (A) (A) (A) (A) (A)
                 (A) (A) (A) (A) (A) (A) (A) (A) (A) (A) (A) (A)
                 (A) (A) (A) (A) (A) (A) (A) (A) (A) (A) (A) (A)
                 (A) (A) (A) (A) (A) (A) (A) (A) (A) (A) (A) (A)
                 (A) (A) (A) (A) (A) (A) (A) (A) (A) (A) (A) (A)
                 (A) (A) (A) (A) (A) (A) (A) (A) (A) (A) (A) (A)
                 (A) (A) (A) (A) (A) (A) (A) (A)
 The electronic state is 2-A.
 Alpha  occ. eigenvalues --  -10.19279 -10.17178 -10.17178  -0.78305  -0.68339
 Alpha  occ. eigenvalues --   -0.56709  -0.45144  -0.43440  -0.40538  -0.38962
 Alpha  occ. eigenvalues --   -0.34132  -0.34032  -0.22201
 Alpha virt. eigenvalues --    0.03597   0.07289   0.07712   0.09488   0.10838
 Alpha virt. eigenvalues --    0.12877   0.14082   0.15807   0.22051   0.24595
 Alpha virt. eigenvalues --    0.24805   0.27386   0.29299   0.29964   0.34726
 Alpha virt. eigenvalues --    0.36420   0.38261   0.42764   0.43873   0.45411
 Alpha virt. eigenvalues --    0.46150   0.46251   0.46569   0.48002   0.49087
 Alpha virt. eigenvalues --    0.51010   0.57591   0.60772   0.65107   0.71730
 Alpha virt. eigenvalues --    0.72244   0.78250   0.82824   0.83327   0.86772
 Alpha virt. eigenvalues --    0.92249   0.93184   0.96871   0.98795   0.99042
 Alpha virt. eigenvalues --    1.02063   1.03208   1.08199   1.09070   1.12966
 Alpha virt. eigenvalues --    1.13807   1.16878   1.18375   1.21925   1.24318
 Alpha virt. eigenvalues --    1.26154   1.26414   1.29189   1.29562   1.30179
 Alpha virt. eigenvalues --    1.36672   1.37562   1.40861   1.43010   1.46027
 Alpha virt. eigenvalues --    1.47074   1.51476   1.56202   1.56753   2.06128
 Alpha virt. eigenvalues --    2.14446   2.24725   2.25660   2.29063   2.30089
 Alpha virt. eigenvalues --    2.39200   2.43214   2.44482   2.49720   2.49845
 Alpha virt. eigenvalues --    2.55495   2.57565   2.59301   2.60146   2.67039
 Alpha virt. eigenvalues --    2.71731   2.73334   2.75914   2.78954   2.79728
 Alpha virt. eigenvalues --    2.84070   2.85929   2.89189   2.89472   2.90951
 Alpha virt. eigenvalues --    2.97426   3.00813   3.03393   3.05086   3.05396
 Alpha virt. eigenvalues --    3.07482   3.09711   3.10725   3.11351   3.20170
 Alpha virt. eigenvalues --    3.20465   3.24152   3.29266   3.29920   3.33966
 Alpha virt. eigenvalues --    3.37009   3.38291   3.39579   3.40241   3.45553
 Alpha virt. eigenvalues --    3.46791   3.46981   3.55387   3.58724   3.65463
 Alpha virt. eigenvalues --    3.66174   3.68418   3.74065   3.77108   3.78111
 Alpha virt. eigenvalues --    3.80327   3.80400   3.83840   3.85324   3.87930
 Alpha virt. eigenvalues --    3.88670   3.92425   3.93735   3.95918   3.99551
 Alpha virt. eigenvalues --    4.03805   4.06727   4.09696   4.12876   4.14479
 Alpha virt. eigenvalues --    4.16711   4.23179   4.23537   4.26095   4.27314
 Alpha virt. eigenvalues --    4.29799   4.30563   4.46658   4.47324   4.52130
 Alpha virt. eigenvalues --    4.70971   4.72112   4.75749   4.78377   4.78610
 Alpha virt. eigenvalues --    4.80123   4.84443   4.88811   4.99611   5.07884
 Alpha virt. eigenvalues --    5.10960   5.13121   5.14331   5.16335   5.22601
 Alpha virt. eigenvalues --    5.23860   5.25866   5.26690   5.27639   5.35568
 Alpha virt. eigenvalues --    5.35669   5.46090   5.64299   5.79775   5.81766
 Alpha virt. eigenvalues --    5.82026   5.88469  10.24596  12.90132  13.02737
  Beta  occ. eigenvalues --  -10.17822 -10.17204 -10.17203  -0.76798  -0.68088
  Beta  occ. eigenvalues --   -0.54806  -0.44344  -0.42165  -0.39949  -0.38518
  Beta  occ. eigenvalues --   -0.33536  -0.33534
  Beta virt. eigenvalues --   -0.06711   0.03842   0.07411   0.07907   0.09731
  Beta virt. eigenvalues --    0.11140   0.12965   0.14280   0.16585   0.22654
  Beta virt. eigenvalues --    0.24762   0.24929   0.27905   0.30429   0.30807
  Beta virt. eigenvalues --    0.36597   0.37362   0.40531   0.43070   0.44199
  Beta virt. eigenvalues --    0.45915   0.46504   0.46662   0.46837   0.48750
  Beta virt. eigenvalues --    0.49609   0.52406   0.58308   0.61580   0.65594
  Beta virt. eigenvalues --    0.71937   0.72770   0.78272   0.83421   0.84084
  Beta virt. eigenvalues --    0.87189   0.92578   0.94417   0.97329   0.98941
  Beta virt. eigenvalues --    0.99367   1.02578   1.03433   1.08972   1.09841
  Beta virt. eigenvalues --    1.13915   1.14125   1.17821   1.19203   1.22160
  Beta virt. eigenvalues --    1.25516   1.26617   1.28395   1.30013   1.30045
  Beta virt. eigenvalues --    1.30462   1.37161   1.38434   1.40994   1.44028
  Beta virt. eigenvalues --    1.46308   1.47629   1.52060   1.57490   1.57654
  Beta virt. eigenvalues --    2.10709   2.15102   2.25199   2.26313   2.29562
  Beta virt. eigenvalues --    2.31933   2.39683   2.44708   2.44842   2.50485
  Beta virt. eigenvalues --    2.51176   2.57172   2.58313   2.60042   2.60683
  Beta virt. eigenvalues --    2.68147   2.73088   2.74126   2.76243   2.79069
  Beta virt. eigenvalues --    2.79841   2.85236   2.86499   2.90206   2.90954
  Beta virt. eigenvalues --    2.91456   2.98591   3.01010   3.04092   3.05455
  Beta virt. eigenvalues --    3.06539   3.07859   3.10911   3.11053   3.13609
  Beta virt. eigenvalues --    3.22270   3.22859   3.27865   3.29744   3.30507
  Beta virt. eigenvalues --    3.34836   3.37607   3.38771   3.40429   3.40780
  Beta virt. eigenvalues --    3.45835   3.47459   3.47619   3.56097   3.59347
  Beta virt. eigenvalues --    3.65763   3.66875   3.69549   3.74650   3.77994
  Beta virt. eigenvalues --    3.78740   3.80687   3.80897   3.84449   3.86284
  Beta virt. eigenvalues --    3.88371   3.89115   3.93258   3.94557   3.96507
  Beta virt. eigenvalues --    4.00589   4.04212   4.07572   4.10088   4.13891
  Beta virt. eigenvalues --    4.15228   4.17478   4.23610   4.24009   4.26762
  Beta virt. eigenvalues --    4.28260   4.30338   4.31452   4.47903   4.47973
  Beta virt. eigenvalues --    4.52759   4.72065   4.72415   4.76487   4.78839
  Beta virt. eigenvalues --    4.79146   4.80693   4.85323   4.89258   5.00040
  Beta virt. eigenvalues --    5.08384   5.11320   5.13335   5.15297   5.16872
  Beta virt. eigenvalues --    5.22974   5.24128   5.26137   5.27181   5.28001
  Beta virt. eigenvalues --    5.36119   5.36333   5.46572   5.65264   5.80183
  Beta virt. eigenvalues --    5.82140   5.82194   5.88622  10.26307  12.90372
  Beta virt. eigenvalues --   13.02837
          Condensed to atoms (all electrons):
               1          2          3          4          5          6
     1  C    4.835760   0.351222  -0.062985   0.399588   0.396831   0.391597
     2  C    0.351222   5.239469   0.351220  -0.037220  -0.036962  -0.047498
     3  C   -0.062985   0.351220   4.835762   0.007787  -0.005785  -0.002062
     4  H    0.399588  -0.037220   0.007787   0.600510  -0.027757  -0.031074
     5  H    0.396831  -0.036962  -0.005785  -0.027757   0.607973  -0.033601
     6  H    0.391597  -0.047498  -0.002062  -0.031074  -0.033601   0.630375
     7  H   -0.048651   0.403185  -0.048650  -0.005732   0.007943  -0.003864
     8  H   -0.005785  -0.036962   0.396830  -0.000087   0.005130  -0.000747
     9  H    0.007787  -0.037220   0.399590  -0.000575  -0.000087  -0.000190
    10  H   -0.002062  -0.047497   0.391597  -0.000190  -0.000747   0.007468
               7          8          9         10
     1  C   -0.048651  -0.005785   0.007787  -0.002062
     2  C    0.403185  -0.036962  -0.037220  -0.047497
     3  C   -0.048650   0.396830   0.399590   0.391597
     4  H   -0.005732  -0.000087  -0.000575  -0.000190
     5  H    0.007943   0.005130  -0.000087  -0.000747
     6  H   -0.003864  -0.000747  -0.000190   0.007468
     7  H    0.611893   0.007943  -0.005731  -0.003863
     8  H    0.007943   0.607972  -0.027756  -0.033600
     9  H   -0.005731  -0.027756   0.600504  -0.031074
    10  H   -0.003863  -0.033600  -0.031074   0.630372
          Atomic-Atomic Spin Densities.
               1          2          3          4          5          6
     1  C   -0.031507  -0.020457   0.004579   0.004768   0.004530   0.004377
     2  C   -0.020457   1.050758  -0.020457  -0.004251  -0.004739  -0.032540
     3  C    0.004579  -0.020457  -0.031505  -0.000144   0.000862  -0.000022
     4  H    0.004768  -0.004251  -0.000144   0.006855   0.002008  -0.006226
     5  H    0.004530  -0.004739   0.000862   0.002008   0.012167  -0.009033
     6  H    0.004377  -0.032540  -0.000022  -0.006226  -0.009033   0.096407
     7  H    0.005522   0.003674   0.005522   0.001292   0.000332  -0.005056
     8  H    0.000862  -0.004739   0.004530   0.000104   0.001008  -0.001630
     9  H   -0.000144  -0.004251   0.004768   0.000026   0.000104  -0.000354
    10  H   -0.000022  -0.032539   0.004377  -0.000354  -0.001630   0.011062
               7          8          9         10
     1  C    0.005522   0.000862  -0.000144  -0.000022
     2  C    0.003674  -0.004739  -0.004251  -0.032539
     3  C    0.005522   0.004530   0.004768   0.004377
     4  H    0.001292   0.000104   0.000026  -0.000354
     5  H    0.000332   0.001008   0.000104  -0.001630
     6  H   -0.005056  -0.001630  -0.000354   0.011062
     7  H   -0.016679   0.000332   0.001292  -0.005056
     8  H    0.000332   0.012166   0.002008  -0.009032
     9  H    0.001292   0.002008   0.006854  -0.006226
    10  H   -0.005056  -0.009032  -0.006226   0.096403
 Mulliken charges and spin densities:
               1          2
     1  C   -0.263303  -0.027491
     2  C   -0.101737   0.930459
     3  C   -0.263304  -0.027490
     4  H    0.094749   0.004077
     5  H    0.087062   0.005610
     6  H    0.089596   0.056987
     7  H    0.085526  -0.008823
     8  H    0.087062   0.005610
     9  H    0.094752   0.004077
    10  H    0.089596   0.056984
 Sum of Mulliken charges =  -0.00000   1.00000
 Mulliken charges and spin densities with hydrogens summed into heavy atoms:
               1          2
     1  C    0.008105   0.039183
     2  C   -0.016211   0.921636
     3  C    0.008106   0.039181
 APT charges:
               1
     1  C   -0.935000
     2  C   -0.243900
     3  C   -0.934992
     4  H    0.375747
     5  H    0.271746
     6  H    0.266689
     7  H    0.285534
     8  H    0.271741
     9  H    0.375748
    10  H    0.266688
 Sum of APT charges =  -0.00000
 APT charges with hydrogens summed into heavy atoms:
               1
     1  C   -0.020817
     2  C    0.041634
     3  C   -0.020816
 Electronic spatial extent (au):  <R**2>=            216.2366
 Charge=             -0.0000 electrons
 Dipole moment (field-independent basis, Debye):
    X=              0.0000    Y=             -0.2866    Z=              0.5626  Tot=              0.6314
 Quadrupole moment (field-independent basis, Debye-Ang):
   XX=            -21.5207   YY=            -21.6660   ZZ=            -21.4653
   XY=             -0.0000   XZ=             -0.0000   YZ=              0.7596
 Traceless Quadrupole moment (field-independent basis, Debye-Ang):
   XX=              0.0300   YY=             -0.1153   ZZ=              0.0853
   XY=             -0.0000   XZ=             -0.0000   YZ=              0.7596
 Octapole moment (field-independent basis, Debye-Ang**2):
  XXX=              0.0000  YYY=             -0.6704  ZZZ=              1.9463  XYY=              0.0000
  XXY=              1.4618  XXZ=             -0.2533  XZZ=             -0.0000  YZZ=             -1.4222
  YYZ=              0.5492  XYZ=              0.0000
 Hexadecapole moment (field-independent basis, Debye-Ang**3):
 XXXX=           -204.2662 YYYY=            -67.6807 ZZZZ=            -41.8326 XXXY=             -0.0002
 XXXZ=             -0.0000 YYYX=             -0.0001 YYYZ=              3.2143 ZZZX=              0.0000
 ZZZY=              0.8288 XXYY=            -44.5477 XXZZ=            -41.1785 YYZZ=            -17.6461
 XXYZ=             -0.3355 YYXZ=              0.0000 ZZXY=             -0.0000
 N-N= 7.504907223367D+01 E-N=-4.235947364400D+02  KE= 1.174276195114D+02
  Exact polarizability:       0.000       0.000       0.000       0.000       0.000       0.000
 Approx polarizability:      53.478       0.000      52.335      -0.000       0.425      49.078
                          Isotropic Fermi Contact Couplings
        Atom                 a.u.       MegaHertz       Gauss      10(-4) cm-1
     1  C(13)             -0.00597      -6.71558      -2.39629      -2.24008
     2  C(13)              0.25139     282.61270     100.84324      94.26945
     3  C(13)             -0.00597      -6.71484      -2.39602      -2.23983
     4  H(1)               0.00379      16.91963       6.03735       5.64378
     5  H(1)               0.00439      19.62878       7.00404       6.54746
     6  H(1)               0.02450     109.52243      39.08033      36.53275
     7  H(1)              -0.00037      -1.64477      -0.58689      -0.54864
     8  H(1)               0.00439      19.62837       7.00389       6.54732
     9  H(1)               0.00378      16.91827       6.03686       5.64333
    10  H(1)               0.02450     109.51736      39.07852      36.53106
 --------------------------------------------------------
       Center         ----  Spin Dipole Couplings  ----
                      3XX-RR        3YY-RR        3ZZ-RR
 --------------------------------------------------------
     1   Atom        0.006395     -0.000321     -0.006074
     2   Atom       -0.519713     -0.347567      0.867280
     3   Atom        0.006394     -0.000321     -0.006073
     4   Atom        0.018870     -0.010194     -0.008676
     5   Atom       -0.001033      0.009628     -0.008595
     6   Atom        0.000683     -0.002606      0.001924
     7   Atom       -0.059154      0.038517      0.020638
     8   Atom       -0.001033      0.009628     -0.008595
     9   Atom        0.018870     -0.010194     -0.008676
    10   Atom        0.000683     -0.002606      0.001923
 --------------------------------------------------------
                        XY            XZ            YZ
 --------------------------------------------------------
     1   Atom       -0.024310      0.018114     -0.017077
     2   Atom        0.000000     -0.000000     -0.484085
     3   Atom        0.024309     -0.018114     -0.017077
     4   Atom       -0.002895      0.003310     -0.000689
     5   Atom       -0.013244     -0.002533      0.002658
     6   Atom       -0.007114      0.004635     -0.006783
     7   Atom        0.000000      0.000000      0.037358
     8   Atom        0.013244      0.002533      0.002659
     9   Atom        0.002895     -0.003310     -0.000689
    10   Atom        0.007115     -0.004635     -0.006783
 --------------------------------------------------------


 ---------------------------------------------------------------------------------
              Anisotropic Spin Dipole Couplings in Principal Axis System
 ---------------------------------------------------------------------------------

       Atom             a.u.   MegaHertz   Gauss  10(-4) cm-1        Axes

              Baa    -0.0218    -2.926    -1.044    -0.976  0.5121  0.8090  0.2886
     1 C(13)  Bbb    -0.0190    -2.548    -0.909    -0.850 -0.5485  0.0494  0.8347
              Bcc     0.0408     5.473     1.953     1.826  0.6610 -0.5857  0.4690
 
              Baa    -0.5197   -69.741   -24.885   -23.263  1.0000 -0.0001 -0.0000
     2 C(13)  Bbb    -0.5169   -69.359   -24.749   -23.136  0.0001  0.9439  0.3301
              Bcc     1.0366   139.099    49.634    46.399 -0.0000 -0.3301  0.9439
 
              Baa    -0.0218    -2.925    -1.044    -0.976 -0.5121  0.8090  0.2886
     3 C(13)  Bbb    -0.0190    -2.548    -0.909    -0.850  0.5485  0.0494  0.8347
              Bcc     0.0408     5.473     1.953     1.826  0.6610  0.5857 -0.4690
 
              Baa    -0.0106    -5.637    -2.012    -1.880  0.0693  0.9702  0.2323
     4 H(1)   Bbb    -0.0090    -4.797    -1.712    -1.600 -0.1377 -0.2213  0.9654
              Bcc     0.0196    10.434     3.723     3.480  0.9880 -0.0989  0.1183
 
              Baa    -0.0103    -5.486    -1.957    -1.830  0.7724  0.4546  0.4435
     5 H(1)   Bbb    -0.0088    -4.677    -1.669    -1.560 -0.3047 -0.3475  0.8868
              Bcc     0.0190    10.163     3.626     3.390 -0.5573  0.8201  0.1299
 
              Baa    -0.0091    -4.855    -1.732    -1.619  0.4526  0.8318  0.3215
     6 H(1)   Bbb    -0.0033    -1.756    -0.627    -0.586 -0.6825  0.0911  0.7251
              Bcc     0.0124     6.611     2.359     2.205  0.5738 -0.5476  0.6090
 
              Baa    -0.0592   -31.562   -11.262   -10.528  1.0000 -0.0000  0.0000
     7 H(1)   Bbb    -0.0088    -4.714    -1.682    -1.572 -0.0000 -0.6194  0.7851
              Bcc     0.0680    36.276    12.944    12.100  0.0000  0.7851  0.6194
 
              Baa    -0.0103    -5.486    -1.957    -1.830  0.7724 -0.4546 -0.4435
     8 H(1)   Bbb    -0.0088    -4.677    -1.669    -1.560  0.3046 -0.3475  0.8868
              Bcc     0.0190    10.163     3.626     3.390  0.5573  0.8201  0.1299
 
              Baa    -0.0106    -5.637    -2.012    -1.880 -0.0693  0.9702  0.2323
     9 H(1)   Bbb    -0.0090    -4.797    -1.712    -1.600  0.1377 -0.2213  0.9654
              Bcc     0.0196    10.434     3.723     3.480  0.9880  0.0989 -0.1183
 
              Baa    -0.0091    -4.855    -1.732    -1.619 -0.4526  0.8318  0.3215
    10 H(1)   Bbb    -0.0033    -1.756    -0.627    -0.586  0.6825  0.0911  0.7251
              Bcc     0.0124     6.611     2.359     2.205 -0.5738 -0.5476  0.6089
 

 ---------------------------------------------------------------------------------

 No NMR shielding tensors so no spin-rotation constants.
 Leave Link  601 at Thu Apr  7 11:17:58 2022, MaxMem=  1073741824 cpu:               1.9 elap:               0.3
 (Enter /home/saurabh/gaussian/g16/l701.exe)
 ... and contract with generalized density number  0.
 Compute integral second derivatives.
 Leave Link  701 at Thu Apr  7 11:17:58 2022, MaxMem=  1073741824 cpu:               1.4 elap:               0.2
 (Enter /home/saurabh/gaussian/g16/l702.exe)
 L702 exits ... SP integral derivatives will be done elsewhere.
 Leave Link  702 at Thu Apr  7 11:17:58 2022, MaxMem=  1073741824 cpu:               0.1 elap:               0.0
 (Enter /home/saurabh/gaussian/g16/l703.exe)
 Integral derivatives from FoFJK, PRISM(SPDF).
 Compute integral second derivatives, UseDBF=F ICtDFT=           0.
 Calling FoFJK, ICntrl=    100127 FMM=F ISym2X=0 I1Cent= 0 IOpClX= 1 NMat=1 NMatS=1 NMatT=0.
 FoFJK:  IHMeth= 1 ICntrl=  100127 DoSepK=F KAlg= 0 I1Cent=           0 FoldK=F
 IRaf=         0 NMat=       1 IRICut=       1 DoRegI=T DoRafI=F ISym2E= 0 IDoP0=0 IntGTp=1.
 FoFCou: FMM=F IPFlag=           0 FMFlag=      100000 FMFlg1=         800
         NFxFlg=           0 DoJE=F BraDBF=F KetDBF=F FulRan=T
         wScrn=  0.000000 ICntrl=    100127 IOpCl=  1 I1Cent=           0 NGrid=           0
         NMat0=    1 NMatS0=      1 NMatT0=    0 NMatD0=    1 NMtDS0=    0 NMtDT0=    0
 Symmetry not used in FoFCou.
 Leave Link  703 at Thu Apr  7 11:18:38 2022, MaxMem=  1073741824 cpu:             316.0 elap:              39.5
 (Enter /home/saurabh/gaussian/g16/l716.exe)
 Dipole        = 1.96977284D-06-1.12767936D-01 2.21356614D-01
 Polarizability= 0.00000000D+00 0.00000000D+00 0.00000000D+00
                 0.00000000D+00 0.00000000D+00 0.00000000D+00
 ***** Axes restored to original set *****
 -------------------------------------------------------------------
 Center     Atomic                   Forces (Hartrees/Bohr)
 Number     Number              X              Y              Z
 -------------------------------------------------------------------
      1        6          -0.003614934    0.017027078    0.016718553
      2        6          -0.001212466   -0.035943727   -0.043813871
      3        6           0.004717530    0.016788064    0.016685574
      4        1           0.005331797   -0.011138657   -0.000853858
      5        1          -0.002206664    0.003749351   -0.011220569
      6        1           0.000249553    0.004984767    0.007985565
      7        1           0.000270671    0.006737320    0.018560208
      8        1           0.002327679    0.003618997   -0.011241169
      9        1          -0.005967252   -0.010811680   -0.000806873
     10        1           0.000104086    0.004988486    0.007986441
 -------------------------------------------------------------------
 Cartesian Forces:  Max     0.043813871 RMS     0.013591013
 Force constants in Cartesian coordinates: 
                1             2             3             4             5 
      1  0.456156D+00
      2 -0.553569D-01  0.473070D+00
      3 -0.788698D-02 -0.198880D-01  0.504077D+00
      4 -0.144324D+00 -0.504942D-01 -0.621196D-02  0.396773D+00
      5 -0.358137D-01 -0.103867D+00  0.363641D-02 -0.157406D-02  0.360451D+00
      6  0.105167D-01  0.157384D-01 -0.701983D-01 -0.396428D-02 -0.129399D+00
      7 -0.342340D-01  0.170673D-01  0.130479D-02 -0.139242D+00  0.378729D-01
      8 -0.143647D-01  0.124347D-01  0.140283D-02  0.526566D-01 -0.108961D+00
      9 -0.888666D-03  0.133643D-02  0.661528D-02  0.699263D-02  0.295107D-02
     10 -0.182329D+00  0.108338D+00  0.978334D-03 -0.234156D-01  0.173662D-01
     11  0.109083D+00 -0.136468D+00  0.205173D-02 -0.140507D-01  0.122416D-01
     12  0.118652D-02  0.229222D-02 -0.516004D-01 -0.119122D-02 -0.863153D-03
     13 -0.510766D-01 -0.241963D-03  0.428927D-02 -0.261338D-03 -0.161559D-01
     14  0.126421D-03 -0.115864D+00  0.101482D+00 -0.262697D-02 -0.134789D-01
     15  0.443806D-02  0.101576D+00 -0.201796D+00  0.885426D-03  0.159181D-02
     16 -0.428203D-01 -0.590016D-02 -0.108051D-01 -0.758444D-02 -0.190855D-01
     17 -0.117633D-02 -0.119809D+00 -0.106882D+00 -0.721687D-02 -0.149324D-01
     18 -0.414012D-02 -0.101878D+00 -0.190169D+00 -0.351446D-02 -0.170609D-02
     19 -0.501329D-03 -0.185261D-01  0.212684D-01 -0.531716D-01 -0.120332D-02
     20 -0.308960D-02 -0.887777D-02  0.183713D-01 -0.133137D-02 -0.112833D+00
     21 -0.271289D-02  0.111245D-02  0.211534D-02  0.299756D-02  0.125142D+00
     22  0.155758D-02  0.470891D-03 -0.968297D-03  0.586699D-03  0.153522D-01
     23 -0.108292D-02  0.383528D-03 -0.977655D-03  0.194281D-02 -0.145188D-01
     24  0.274323D-03 -0.536619D-03  0.712579D-04 -0.797792D-03  0.151059D-02
     25 -0.403470D-02  0.526971D-02 -0.512840D-03 -0.234618D-01 -0.153136D-01
     26  0.305541D-02 -0.182475D-02 -0.311967D-03  0.161055D-01  0.123143D-01
     27 -0.239259D-03  0.359223D-04  0.659138D-03  0.132935D-02 -0.801039D-03
     28  0.160734D-02 -0.627001D-03 -0.145564D-02 -0.589820D-02  0.185548D-01
     29 -0.138052D-02  0.821776D-03  0.111527D-02  0.658926D-02 -0.164156D-01
     30 -0.547651D-03  0.210820D-03  0.225519D-03  0.347474D-02 -0.206262D-02
                6             7             8             9            10 
      6  0.339448D+00
      7 -0.901509D-02  0.462686D+00
      8  0.158746D-01  0.558102D-01  0.466659D+00
      9 -0.701729D-01  0.708165D-02 -0.207734D-01  0.503954D+00
     10 -0.187060D-02 -0.449933D-02 -0.511493D-02  0.535349D-03  0.206835D+00
     11 -0.473414D-03 -0.290358D-02 -0.135345D-02 -0.317547D-03 -0.118659D+00
     12 -0.879725D-03  0.282715D-03  0.637500D-04  0.652706D-03  0.341812D-03
     13  0.228646D-01  0.159378D-02 -0.544838D-03  0.897704D-03  0.156555D-02
     14  0.153845D-01  0.100495D-02  0.352614D-03 -0.104003D-02 -0.140108D-02
     15 -0.131939D-03 -0.317080D-03 -0.515413D-03  0.659828D-04 -0.895258D-03
     16 -0.214361D-01  0.173713D-02  0.576290D-03  0.150512D-02  0.141578D-02
     17 -0.129771D-01  0.133699D-02  0.708711D-03  0.101876D-02 -0.884532D-03
     18  0.174010D-02  0.546752D-03  0.174313D-03  0.208806D-03  0.483558D-03
     19  0.210462D-02  0.569869D-03  0.179848D-01 -0.201583D-01  0.127009D-02
     20  0.941543D-01  0.269710D-02 -0.100968D-01  0.195403D-01 -0.425642D-03
     21 -0.200496D+00  0.278576D-02  0.803387D-03  0.226364D-02  0.318684D-03
     22 -0.219433D-01 -0.512705D-01 -0.264578D-02  0.320187D-03  0.368814D-03
     23  0.166564D-01 -0.301502D-02 -0.115701D+00  0.101606D+00 -0.198288D-03
     24  0.594967D-04  0.177241D-03  0.101705D+00 -0.201762D+00 -0.398251D-04
     25  0.202279D-02 -0.194686D+00 -0.104968D+00  0.296417D-03 -0.167241D-02
     26 -0.709966D-03 -0.105714D+00 -0.124131D+00  0.295909D-02  0.106777D-02
     27 -0.906150D-03  0.102431D-03  0.320503D-02 -0.515921D-01 -0.200604D-04
     28  0.207207D-01 -0.426549D-01  0.609890D-03  0.341786D-02  0.461906D-03
     29 -0.142484D-01 -0.415677D-02 -0.119912D+00 -0.107281D+00 -0.889331D-04
     30  0.153750D-02 -0.294917D-02 -0.101940D+00 -0.190234D+00  0.168003D-03
               11            12            13            14            15 
     11  0.146017D+00
     12 -0.625339D-03  0.499148D-01
     13  0.126530D-01 -0.210071D-01  0.531501D-01
     14 -0.105446D-01  0.147061D-01  0.606795D-02  0.128597D+00
     15 -0.812441D-03  0.673869D-03 -0.556160D-02 -0.115099D+00  0.219102D+00
     16  0.139155D-01  0.202466D-01 -0.581952D-03  0.782627D-03  0.538206D-03
     17 -0.110837D-01 -0.149131D-01  0.930777D-03  0.109540D-01  0.140105D-01
     18  0.560073D-03  0.120351D-03 -0.689271D-03 -0.150544D-01 -0.198062D-01
     19  0.105462D-02  0.611433D-04 -0.448270D-02 -0.380533D-02  0.172530D-03
     20  0.669761D-03 -0.658660D-03 -0.339184D-02 -0.852345D-03 -0.286289D-03
     21 -0.305467D-03 -0.690129D-04  0.301457D-03  0.161982D-03  0.153508D-02
     22 -0.166598D-03  0.365345D-03 -0.243508D-03 -0.466842D-03  0.634820D-03
     23  0.811773D-05 -0.290490D-03  0.525206D-03  0.799389D-03 -0.231955D-03
     24 -0.227264D-03  0.297111D-03 -0.643603D-03 -0.191052D-03  0.167762D-03
     25 -0.939782D-03  0.346478D-04  0.385653D-03  0.174124D-03  0.259800D-04
     26  0.556944D-03 -0.779326D-04  0.142845D-03 -0.115425D-04 -0.230439D-03
     27 -0.680809D-04  0.605550D-03 -0.382143D-03 -0.270496D-03  0.299919D-03
     28  0.136703D-04 -0.320468D-03 -0.489954D-04  0.144151D-03  0.789168D-04
     29 -0.436269D-04  0.366608D-03  0.147589D-04  0.486325D-04 -0.265675D-05
     30  0.217745D-03  0.284761D-03 -0.693854D-04 -0.796531D-04 -0.110533D-03
               16            17            18            19            20 
     16  0.481941D-01
     17  0.768246D-02  0.131813D+00
     18  0.813525D-02  0.117759D+00  0.206973D+00
     19  0.391974D-03 -0.759527D-04 -0.400805D-03  0.584449D-01
     20  0.143891D-02  0.146006D-02 -0.217514D-03  0.151502D-02  0.129566D+00
     21  0.120378D-02  0.143145D-02  0.536465D-03 -0.318548D-02 -0.129712D+00
     22 -0.579141D-04 -0.861293D-05  0.642579D-04 -0.406063D-02  0.357425D-02
     23 -0.138679D-03  0.574630D-04 -0.823339D-04  0.399148D-02 -0.127801D-02
     24 -0.793894D-04  0.200560D-05 -0.110429D-03 -0.141718D-03 -0.306016D-03
     25  0.466064D-03  0.625367D-04 -0.156656D-03  0.122829D-02  0.387872D-03
     26 -0.411927D-04 -0.464179D-04  0.227322D-03 -0.108935D-02  0.708098D-03
     27  0.339534D-03  0.346970D-03  0.283388D-03 -0.109911D-03 -0.657058D-03
     28 -0.116042D-02 -0.650478D-03 -0.328508D-03  0.311176D-03 -0.137470D-02
     29  0.769777D-03  0.878272D-03  0.217649D-03  0.154098D-03  0.153450D-02
     30  0.352072D-03  0.203891D-03  0.223184D-03  0.389500D-03 -0.228690D-03
               21            22            23            24            25 
     21  0.192099D+00
     22 -0.244649D-03  0.526966D-01
     23  0.145481D-03 -0.263996D-02  0.129095D+00
     24  0.153856D-02  0.295619D-03 -0.115229D+00  0.219054D+00
     25 -0.346357D-03  0.106574D-02  0.853520D-03  0.843902D-03  0.220261D+00
     26 -0.277457D-03 -0.133231D-01 -0.986061D-02 -0.755426D-03  0.114377D+00
     27 -0.655600D-04  0.218125D-01  0.134634D-01  0.490167D-03 -0.175476D-02
     28 -0.111787D-02 -0.642856D-03 -0.238135D-03  0.111242D-03  0.448237D-03
     29  0.149736D-02 -0.146435D-03  0.110145D-01  0.140271D-01  0.966163D-04
     30  0.542722D-03 -0.336493D-03 -0.150604D-01 -0.198054D-01 -0.453121D-03
               26            27            28            29            30 
     26  0.132585D+00
     27 -0.152805D-02  0.499308D-01
     28 -0.145803D-01 -0.210777D-01  0.475767D-01
     29 -0.102903D-01 -0.137266D-01 -0.185185D-02  0.132364D+00
     30  0.704827D-03  0.294836D-03 -0.284948D-04  0.118035D+00  0.207041D+00
 FormGI is forming the generalized inverse of G from B-inverse, IUseBI=4.
 Force constants in internal coordinates: 
                1             2             3             4             5 
      1  0.256538D+00
      2  0.805269D-02  0.298911D+00
      3  0.832243D-02  0.297792D-02  0.297784D+00
      4  0.109009D-01  0.326863D-02  0.316799D-02  0.293480D+00
      5  0.132003D-01 -0.299906D-03  0.734344D-03  0.341695D-03  0.256523D+00
      6  0.574475D-02  0.784254D-03 -0.727793D-03  0.666495D-03  0.574466D-02
      7  0.734354D-03 -0.182355D-03  0.592543D-03  0.534639D-04  0.832240D-02
      8 -0.299852D-03  0.319240D-03 -0.182369D-03 -0.321710D-04  0.805235D-02
      9  0.341712D-03 -0.321598D-04  0.534655D-04  0.704511D-03  0.109004D-01
     10  0.176847D-01  0.314008D-02 -0.608863D-02 -0.601713D-02  0.564184D-02
     11  0.169567D-01 -0.601292D-02  0.307827D-02 -0.611378D-02 -0.312643D-02
     12  0.139183D-01 -0.689906D-02 -0.692382D-02  0.727893D-03 -0.612646D-03
     13 -0.152729D-01  0.531131D-02  0.528152D-02 -0.132806D-02 -0.981405D-03
     14 -0.169322D-01  0.568864D-02 -0.101035D-02  0.633246D-02 -0.144400D-02
     15 -0.171826D-01 -0.887760D-03  0.579677D-02  0.649483D-02  0.537511D-03
     16  0.276320D-01  0.596949D-02 -0.386088D-02 -0.325718D-02  0.276325D-01
     17  0.602834D-02 -0.185731D-02  0.342358D-02  0.612777D-03 -0.169267D-01
     18 -0.169268D-01 -0.176179D-02 -0.100613D-03  0.235557D-03  0.602797D-02
     19 -0.312640D-02 -0.740816D-03  0.129360D-02 -0.316795D-03  0.169574D-01
     20  0.564183D-02  0.154758D-02 -0.684909D-04  0.329570D-04  0.176853D-01
     21 -0.612628D-03 -0.657786D-03 -0.219905D-03  0.118958D-02  0.139184D-01
     22 -0.981385D-03 -0.159154D-03 -0.663721D-03  0.810408D-04 -0.152731D-01
     23  0.537478D-03  0.232964D-03 -0.432200D-03 -0.358969D-03 -0.171827D-01
     24 -0.144398D-02 -0.208324D-03  0.700187D-04 -0.648851D-03 -0.169323D-01
     25  0.614102D-03  0.235553D-03  0.444059D-02 -0.381503D-02 -0.755595D-02
     26  0.164625D-02  0.689638D-03  0.410149D-02 -0.525350D-02  0.675844D-02
     27 -0.188683D-02 -0.456282D-02 -0.147924D-03  0.524790D-02 -0.793643D-02
     28 -0.854683D-03 -0.410873D-02 -0.487021D-03  0.380944D-02  0.637797D-02
     29 -0.554344D-03  0.496708D-02 -0.489795D-02  0.653031D-03 -0.616603D-02
     30  0.477800D-03  0.542116D-02 -0.523705D-02 -0.785434D-03  0.814837D-02
     31  0.793646D-02  0.492622D-03  0.884596D-03 -0.836295D-03  0.188684D-02
     32  0.755602D-02  0.182303D-03  0.954500D-03 -0.763447D-03 -0.614040D-03
     33  0.616612D-02 -0.128522D-03  0.104679D-02 -0.717733D-03  0.554366D-03
     34 -0.637805D-02  0.938152D-04 -0.815499D-03  0.383897D-03  0.854644D-03
     35 -0.675849D-02 -0.216503D-03 -0.745596D-03  0.456744D-03 -0.164624D-02
     36 -0.814838D-02 -0.527329D-03 -0.653310D-03  0.502459D-03 -0.477830D-03
                6             7             8             9            10 
      6  0.293440D+00
      7 -0.727801D-03  0.297780D+00
      8  0.784244D-03  0.297770D-02  0.298924D+00
      9  0.666470D-03  0.316778D-02  0.326847D-02  0.293482D+00
     10 -0.106092D-02 -0.684663D-04  0.154746D-02  0.329812D-04  0.106160D+00
     11  0.428488D-02  0.129354D-02 -0.740775D-03 -0.316786D-03 -0.193493D-01
     12 -0.657924D-03 -0.219927D-03 -0.657737D-03  0.118954D-02 -0.167724D-01
     13 -0.104218D-02 -0.663712D-03 -0.159139D-03  0.810279D-04 -0.383541D-01
     14 -0.168048D-03  0.700279D-04 -0.208313D-03 -0.648851D-03 -0.390752D-01
     15 -0.141190D-02 -0.432190D-03  0.232959D-03 -0.358964D-03  0.683182D-02
     16 -0.857105D-02 -0.386084D-02  0.596934D-02 -0.325717D-02  0.217258D-01
     17  0.493288D-02 -0.100598D-03 -0.176175D-02  0.235569D-03 -0.943637D-02
     18  0.493259D-02  0.342353D-02 -0.185727D-02  0.612803D-03 -0.379092D-02
     19  0.428480D-02  0.307827D-02 -0.601282D-02 -0.611369D-02 -0.110375D-02
     20 -0.106086D-02 -0.608868D-02  0.313998D-02 -0.601723D-02  0.531851D-02
     21 -0.657850D-03 -0.692380D-02 -0.689906D-02  0.727763D-03 -0.229706D-02
     22 -0.104216D-02  0.528154D-02  0.531117D-02 -0.132814D-02 -0.146167D-02
     23 -0.141188D-02  0.579667D-02 -0.887834D-03  0.649468D-02  0.634138D-03
     24 -0.168085D-03 -0.101042D-02  0.568861D-02  0.633257D-02 -0.107567D-02
     25 -0.129619D-02 -0.954483D-03 -0.182289D-03  0.763424D-03 -0.184421D-02
     26  0.263726D-02  0.745571D-03  0.216503D-03 -0.456721D-03  0.128694D-02
     27 -0.196775D-02 -0.884590D-03 -0.492604D-03  0.836271D-03 -0.861398D-02
     28  0.196570D-02  0.815464D-03 -0.938120D-04 -0.383874D-03 -0.548283D-02
     29 -0.257554D-02 -0.104676D-02  0.128518D-03  0.717707D-03  0.641107D-02
     30  0.135791D-02  0.653295D-03  0.527310D-03 -0.502438D-03  0.954221D-02
     31  0.196783D-02  0.147949D-03  0.456265D-02 -0.524775D-02  0.659592D-03
     32  0.129630D-02 -0.444056D-02 -0.235507D-03  0.381497D-02 -0.161769D-03
     33  0.257559D-02  0.489789D-02 -0.496693D-02 -0.653090D-03 -0.764300D-03
     34 -0.196579D-02  0.487038D-03  0.410859D-02 -0.380933D-02  0.795071D-03
     35 -0.263731D-02 -0.410147D-02 -0.689564D-03  0.525339D-02 -0.262908D-04
     36 -0.135802D-02  0.523698D-02 -0.542099D-02  0.785327D-03 -0.628821D-03
               11            12            13            14            15 
     11  0.105539D+00
     12 -0.184988D-01  0.943866D-01
     13 -0.373536D-01  0.789476D-02  0.539056D-01
     14  0.728229D-02 -0.340494D-01  0.747983D-02  0.525619D-01
     15 -0.390066D-01 -0.344735D-01  0.767381D-02  0.697901D-02  0.531015D-01
     16 -0.117534D-01 -0.454257D-02 -0.398483D-02 -0.548192D-02  0.411898D-02
     17  0.121179D-01 -0.166228D-02 -0.574164D-03  0.260458D-02 -0.314102D-02
     18 -0.165828D-02  0.128838D-02  0.192262D-02  0.160704D-02  0.677089D-03
     19  0.786390D-03 -0.110289D-03  0.352647D-04  0.646793D-03 -0.253539D-03
     20 -0.110379D-02 -0.229706D-02 -0.146170D-02 -0.107568D-02  0.634185D-03
     21 -0.110281D-03  0.346110D-02  0.529773D-03 -0.744120D-03 -0.893274D-03
     22  0.352852D-04  0.529752D-03  0.763956D-03  0.214957D-03 -0.767239D-04
     23 -0.253523D-03 -0.893243D-03 -0.767190D-04  0.891583D-04  0.516528D-03
     24  0.646779D-03 -0.744094D-03  0.214963D-03  0.886641D-03  0.891526D-04
     25  0.743963D-02 -0.453135D-02  0.103061D-01 -0.104916D-01 -0.848417D-03
     26  0.586028D-02 -0.704750D-02  0.970455D-02 -0.103071D-01  0.582849D-03
     27  0.104028D-02  0.739315D-02 -0.940849D-02  0.439198D-04  0.923501D-02
     28 -0.539074D-03  0.487699D-02 -0.100100D-01  0.228360D-03  0.106663D-01
     29 -0.714999D-02  0.113408D-02  0.276604D-03  0.872395D-02 -0.919737D-02
     30 -0.872934D-02 -0.138207D-02 -0.324938D-03  0.890839D-02 -0.776610D-02
     31  0.330247D-02 -0.292825D-02 -0.118966D-02  0.457313D-03 -0.306004D-03
     32  0.346289D-02 -0.209208D-02 -0.124523D-02  0.464869D-03 -0.449484D-03
     33  0.342781D-02 -0.186403D-02 -0.917689D-03  0.507158D-03 -0.407561D-03
     34 -0.308944D-02  0.129523D-02  0.856581D-03 -0.304336D-03  0.471992D-03
     35 -0.292902D-02  0.213139D-02  0.801007D-03 -0.296780D-03  0.328512D-03
     36 -0.296409D-02  0.235945D-02  0.112855D-02 -0.254491D-03  0.370435D-03
               16            17            18            19            20 
     16  0.179527D+00
     17 -0.531953D-01  0.502076D-01
     18 -0.531953D-01 -0.132222D-01  0.502075D-01
     19 -0.117535D-01 -0.165831D-02  0.121181D-01  0.105541D+00
     20  0.217262D-01 -0.379102D-02 -0.943654D-02 -0.193487D-01  0.106162D+00
     21 -0.454269D-02  0.128840D-02 -0.166226D-02 -0.184982D-01 -0.167723D-01
     22 -0.398481D-02  0.192263D-02 -0.574174D-03 -0.373539D-01 -0.383539D-01
     23  0.411894D-02  0.677091D-03 -0.314103D-02 -0.390068D-01  0.683091D-02
     24 -0.548193D-02  0.160705D-02  0.260456D-02  0.728118D-02 -0.390755D-01
     25 -0.859262D-02  0.102412D-01 -0.101409D-01 -0.346297D-02  0.161765D-03
     26  0.661811D-02 -0.730027D-02  0.901962D-02  0.292904D-02  0.263239D-04
     27 -0.997947D-02  0.940680D-02 -0.914912D-02 -0.330254D-02 -0.659633D-03
     28  0.523125D-02 -0.813465D-02  0.100114D-01  0.308947D-02 -0.795074D-03
     29 -0.448870D-02  0.649412D-02 -0.975005D-02 -0.342787D-02  0.764305D-03
     30  0.107220D-01 -0.110473D-01  0.941046D-02  0.296414D-02  0.628864D-03
     31  0.997930D-02  0.914924D-02 -0.940678D-02 -0.104036D-02  0.861390D-02
     32  0.859253D-02  0.101410D-01 -0.102412D-01 -0.743970D-02  0.184428D-02
     33  0.448860D-02  0.975015D-02 -0.649412D-02  0.715008D-02 -0.641106D-02
     34 -0.523119D-02 -0.100115D-01  0.813467D-02  0.539004D-03  0.548273D-02
     35 -0.661796D-02 -0.901973D-02  0.730027D-02 -0.586034D-02 -0.128689D-02
     36 -0.107219D-01 -0.941055D-02  0.110473D-01  0.872945D-02 -0.954224D-02
               21            22            23            24            25 
     21  0.943881D-01
     22  0.789398D-02  0.539051D-01
     23 -0.344733D-01  0.767383D-02  0.531009D-01
     24 -0.340497D-01  0.747987D-02  0.697910D-02  0.525618D-01
     25  0.209211D-02  0.124524D-02  0.449500D-03 -0.464861D-03  0.174129D-01
     26 -0.213141D-02 -0.800997D-03 -0.328520D-03  0.296759D-03  0.592804D-02
     27  0.292831D-02  0.118966D-02  0.306023D-03 -0.457302D-03  0.138802D-02
     28 -0.129522D-02 -0.856575D-03 -0.471998D-03  0.304319D-03 -0.100968D-01
     29  0.186404D-02  0.917686D-03  0.407570D-03 -0.507142D-03  0.535181D-03
     30 -0.235948D-02 -0.112855D-02 -0.370451D-03  0.254478D-03 -0.109497D-01
     31 -0.739306D-02  0.940863D-02 -0.923511D-02 -0.439089D-04 -0.523378D-04
     32  0.453127D-02 -0.103061D-01  0.848456D-03  0.104916D-01  0.425821D-03
     33 -0.113405D-02 -0.276656D-03  0.919742D-02 -0.872402D-02 -0.392232D-03
     34 -0.487687D-02  0.100102D-01 -0.106663D-01 -0.228349D-03 -0.361095D-03
     35  0.704746D-02 -0.970463D-02 -0.582780D-03  0.103071D-01  0.117063D-03
     36  0.138214D-02  0.324861D-03  0.776618D-02 -0.890846D-02 -0.700989D-03
               26            27            28            29            30 
     26  0.167027D-01
     27 -0.103329D-01  0.176164D-01
     28  0.441730D-03  0.589543D-02  0.164340D-01
     29 -0.103046D-01  0.582851D-03 -0.102569D-01  0.160125D-01
     30  0.470092D-03 -0.111381D-01  0.281655D-03  0.517271D-02  0.165925D-01
     31  0.931671D-03 -0.100850D-02 -0.244911D-04 -0.878620D-03  0.105389D-03
     32  0.117076D-03 -0.523439D-04 -0.361088D-03 -0.392233D-03 -0.700978D-03
     33  0.104822D-02 -0.878622D-03  0.561831D-03 -0.139642D-02  0.440370D-04
     34 -0.399877D-03 -0.244933D-04 -0.632750D-04  0.561832D-03  0.523051D-03
     35 -0.121447D-02  0.931663D-03 -0.399872D-03  0.104822D-02 -0.283316D-03
     36 -0.283328D-03  0.105385D-03  0.523047D-03  0.440372D-04  0.461699D-03
               31            32            33            34            35 
     31  0.176162D-01
     32  0.138810D-02  0.174127D-01
     33  0.582931D-03  0.535242D-03  0.160124D-01
     34  0.589521D-02 -0.100968D-01 -0.102569D-01  0.164338D-01
     35 -0.103329D-01  0.592787D-02 -0.103045D-01  0.441820D-03  0.167026D-01
     36 -0.111380D-01 -0.109496D-01  0.517261D-02  0.281723D-03  0.470141D-03
               36 
     36  0.165924D-01
 Leave Link  716 at Thu Apr  7 11:18:38 2022, MaxMem=  1073741824 cpu:               0.2 elap:               0.0
 (Enter /home/saurabh/gaussian/g16/l103.exe)

 GradGradGradGradGradGradGradGradGradGradGradGradGradGradGradGradGradGrad
 Berny optimization.
 Red2BG is reusing G-inverse.
 Internal  Forces:  Max     0.020853441 RMS     0.007597941
 Search for a local minimum.
 Step number   1 out of a maximum of  100
 All quantities printed in internal units (Hartrees-Bohrs-Radians)
 RMS Force = .75979D-02 SwitMx=.10000D-02 MixMth= 1
 Mixed Optimization -- RFO/linear search
 Second derivative matrix not updated -- analytic derivatives used.
 ITU=  0
     Eigenvalues ---    0.00221   0.00291   0.03362   0.05461   0.05579
     Eigenvalues ---    0.05593   0.05744   0.08534   0.11565   0.11938
     Eigenvalues ---    0.13254   0.13280   0.14196   0.14726   0.20652
     Eigenvalues ---    0.25868   0.29209   0.29240   0.29307   0.29581
     Eigenvalues ---    0.29690   0.30144   0.30724   0.31807
 RFO step:  Lambda=-1.55811859D-02 EMin= 2.21319873D-03
 Linear search not attempted -- first point.
 Iteration  1 RMS(Cart)=  0.06138625 RMS(Int)=  0.00626273
 Iteration  2 RMS(Cart)=  0.00664860 RMS(Int)=  0.00423855
 Iteration  3 RMS(Cart)=  0.00001220 RMS(Int)=  0.00423853
 Iteration  4 RMS(Cart)=  0.00000015 RMS(Int)=  0.00423853
 ITry= 1 IFail=0 DXMaxC= 1.77D-01 DCOld= 1.00D+10 DXMaxT= 3.00D-01 DXLimC= 3.00D+00 Rises=F
 Variable       Old X    -DE/DX   Delta X   Delta X   Delta X     New X
                                 (Linear)    (Quad)   (Total)
    R1        2.87946  -0.00741   0.00000  -0.05794  -0.05794   2.82152
    R2        2.09726  -0.01107   0.00000  -0.03555  -0.03555   2.06171
    R3        2.09843  -0.01132   0.00000  -0.03380  -0.03380   2.06463
    R4        2.09931  -0.00939   0.00000  -0.01988  -0.01988   2.07943
    R5        2.87948  -0.00741   0.00000  -0.05796  -0.05796   2.82152
    R6        2.10015  -0.01135   0.00000  -0.04387  -0.04387   2.05628
    R7        2.09844  -0.01132   0.00000  -0.03381  -0.03381   2.06463
    R8        2.09725  -0.01107   0.00000  -0.03553  -0.03553   2.06171
    R9        2.09931  -0.00939   0.00000  -0.01988  -0.01988   2.07943
    A1        1.90788   0.00784   0.00000   0.04505   0.04436   1.95224
    A2        1.92259   0.00438   0.00000   0.02658   0.02598   1.94858
    A3        1.92682  -0.00211   0.00000   0.00396   0.00391   1.93073
    A4        1.89625  -0.00371   0.00000  -0.00809  -0.00921   1.88705
    A5        1.90036  -0.00335   0.00000  -0.02913  -0.02927   1.87109
    A6        1.90952  -0.00316   0.00000  -0.03912  -0.03908   1.87044
    A7        1.94815   0.02085   0.00000   0.10457   0.09228   2.04043
    A8        1.91275  -0.00069   0.00000   0.08230   0.06730   1.98005
    A9        1.91275  -0.00069   0.00000   0.08230   0.06730   1.98005
   A10        1.92257   0.00438   0.00000   0.02660   0.02600   1.94857
   A11        1.90787   0.00784   0.00000   0.04505   0.04437   1.95224
   A12        1.92681  -0.00211   0.00000   0.00397   0.00392   1.93073
   A13        1.89626  -0.00371   0.00000  -0.00810  -0.00922   1.88705
   A14        1.90953  -0.00316   0.00000  -0.03913  -0.03909   1.87044
   A15        1.90037  -0.00335   0.00000  -0.02914  -0.02928   1.87109
    D1        3.12615  -0.00512   0.00000  -0.09504  -0.09649   3.02966
    D2       -1.03476   0.00734   0.00000   0.13441   0.13661  -0.89815
    D3        1.04378  -0.00808   0.00000  -0.12911  -0.13138   0.91239
    D4       -3.11713   0.00438   0.00000   0.10034   0.10172  -3.01542
    D5       -1.06702  -0.00562   0.00000  -0.10017  -0.10193  -1.16895
    D6        1.05525   0.00684   0.00000   0.12927   0.13117   1.18642
    D7       -1.04378   0.00808   0.00000   0.12911   0.13138  -0.91240
    D8       -3.12616   0.00512   0.00000   0.09504   0.09649  -3.02967
    D9        1.06702   0.00562   0.00000   0.10017   0.10193   1.16895
   D10        3.11713  -0.00438   0.00000  -0.10034  -0.10172   3.01541
   D11        1.03476  -0.00734   0.00000  -0.13440  -0.13661   0.89814
   D12       -1.05526  -0.00684   0.00000  -0.12927  -0.13117  -1.18643
         Item               Value     Threshold  Converged?
 Maximum Force            0.020853     0.000450     NO 
 RMS     Force            0.007598     0.000300     NO 
 Maximum Displacement     0.177418     0.001800     NO 
 RMS     Displacement     0.058832     0.001200     NO 
 Predicted change in Energy=-9.408679D-03
 Lowest energy point so far.  Saving SCF results.
 GradGradGradGradGradGradGradGradGradGradGradGradGradGradGradGradGradGrad

 Leave Link  103 at Thu Apr  7 11:18:38 2022, MaxMem=  1073741824 cpu:               0.1 elap:               0.0
 (Enter /home/saurabh/gaussian/g16/l202.exe)
                          Input orientation:                          
 ---------------------------------------------------------------------
 Center     Atomic      Atomic             Coordinates (Angstroms)
 Number     Number       Type             X           Y           Z
 ---------------------------------------------------------------------
      1          6           0       -3.475158    1.078107    0.002957
      2          6           0       -2.181403    1.815234   -0.107224
      3          6           0       -0.931363    1.004829   -0.007531
      4          1           0       -4.328420    1.757378    0.031976
      5          1           0       -3.507844    0.453040    0.898444
      6          1           0       -3.617478    0.413507   -0.862436
      7          1           0       -2.163863    2.540237   -0.918458
      8          1           0       -0.927335    0.378710    0.887808
      9          1           0       -0.040204    1.633850    0.014290
     10          1           0       -0.834674    0.333340   -0.873906
 ---------------------------------------------------------------------
                    Distance matrix (angstroms):
                    1          2          3          4          5
     1  C    0.000000
     2  C    1.493083   0.000000
     3  C    2.544872   1.493082   0.000000
     4  H    1.091012   2.152302   3.479639   0.000000
     5  H    1.092554   2.150903   2.786309   1.767882   0.000000
     6  H    1.100388   2.144177   2.880232   1.763916   1.764732
     7  H    2.169406   1.088135   2.169406   2.490281   3.076330
     8  H    2.786309   2.150901   1.092553   3.768362   2.581602
     9  H    3.479639   2.152301   1.091013   4.290031   3.768364
    10  H    2.880229   2.144176   1.100388   3.880047   3.209578
                    6          7          8          9         10
     6  H    0.000000
     7  H    2.576648   0.000000
     8  H    3.209585   3.076328   0.000000
     9  H    3.880049   2.490278   1.767883   0.000000
    10  H    2.783982   2.576649   1.764733   1.763918   0.000000
 Stoichiometry    C3H7(2)
 Framework group  C1[X(C3H7)]
 Deg. of freedom    24
 Full point group                 C1      NOp   1
 RotChk:  IX=0 Diff= 9.10D-02
 Largest Abelian subgroup         C1      NOp   1
 Largest concise Abelian subgroup C1      NOp   1
                         Standard orientation:                         
 ---------------------------------------------------------------------
 Center     Atomic      Atomic             Coordinates (Angstroms)
 Number     Number       Type             X           Y           Z
 ---------------------------------------------------------------------
      1          6           0        1.272436   -0.202387    0.013980
[...]
     36 -0.644535D-04  0.364461D-03  0.163941D-03  0.188572D-03 -0.119484D-04
               31            32            33            34            35 
     31  0.125318D-01
     32 -0.429180D-02  0.125480D-01
     33 -0.490349D-02 -0.482220D-02  0.117159D-01
     34  0.109460D-01 -0.579577D-02 -0.623094D-02  0.119397D-01
     35 -0.587758D-02  0.110440D-01 -0.614964D-02 -0.480204D-02  0.121196D-01
     36 -0.648927D-02 -0.632617D-02  0.103885D-01 -0.523722D-02 -0.507411D-02
               36 
     36  0.116405D-01
 Leave Link  716 at Thu Apr  7 11:22:06 2022, MaxMem=  1073741824 cpu:               0.2 elap:               0.0
 (Enter /home/saurabh/gaussian/g16/l103.exe)

 GradGradGradGradGradGradGradGradGradGradGradGradGradGradGradGradGradGrad
 Berny optimization.
 Red2BG is reusing G-inverse.
 Internal  Forces:  Max     0.000002591 RMS     0.000001112
 Search for a local minimum.
 Step number   1 out of a maximum of    2
 All quantities printed in internal units (Hartrees-Bohrs-Radians)
 Second derivative matrix not updated -- analytic derivatives used.
 ITU=  0
     Eigenvalues ---    0.00040   0.00081   0.00550   0.05563   0.05565
     Eigenvalues ---    0.05666   0.05716   0.10765   0.11631   0.11699
     Eigenvalues ---    0.12105   0.13470   0.13603   0.14794   0.18336
     Eigenvalues ---    0.29711   0.30074   0.31370   0.31796   0.32834
     Eigenvalues ---    0.33241   0.34079   0.34482   0.35588
 Angle between quadratic step and forces=  84.79 degrees.
 Linear search not attempted -- first point.
 Iteration  1 RMS(Cart)=  0.00013808 RMS(Int)=  0.00000001
 Iteration  2 RMS(Cart)=  0.00000001 RMS(Int)=  0.00000000
 ITry= 1 IFail=0 DXMaxC= 4.66D-04 DCOld= 1.00D+10 DXMaxT= 3.00D-01 DXLimC= 3.00D+00 Rises=F
 Variable       Old X    -DE/DX   Delta X   Delta X   Delta X     New X
                                 (Linear)    (Quad)   (Total)
    R1        2.80908   0.00000   0.00000   0.00001   0.00001   2.80908
    R2        2.06019   0.00000   0.00000  -0.00000  -0.00000   2.06019
    R3        2.06977   0.00000   0.00000   0.00001   0.00001   2.06978
    R4        2.08074  -0.00000   0.00000  -0.00001  -0.00001   2.08073
    R5        2.80908   0.00000   0.00000   0.00001   0.00001   2.80908
    R6        2.04456  -0.00000   0.00000  -0.00001  -0.00001   2.04455
    R7        2.06977   0.00000   0.00000   0.00001   0.00001   2.06978
    R8        2.06019   0.00000   0.00000  -0.00000  -0.00000   2.06019
    R9        2.08074  -0.00000   0.00000  -0.00001  -0.00001   2.08073
    A1        1.95626   0.00000   0.00000   0.00001   0.00001   1.95627
    A2        1.94696   0.00000   0.00000   0.00001   0.00001   1.94696
    A3        1.95479  -0.00000   0.00000  -0.00002  -0.00002   1.95477
    A4        1.88611  -0.00000   0.00000  -0.00001  -0.00001   1.88609
    A5        1.86676   0.00000   0.00000   0.00001   0.00001   1.86678
    A6        1.84730   0.00000   0.00000  -0.00000  -0.00000   1.84730
    A7        2.11282   0.00000   0.00000   0.00001   0.00001   2.11282
    A8        2.07561  -0.00000   0.00000   0.00001   0.00001   2.07561
    A9        2.07561  -0.00000   0.00000   0.00001   0.00001   2.07561
   A10        1.94696   0.00000   0.00000   0.00001   0.00001   1.94696
   A11        1.95626   0.00000   0.00000   0.00001   0.00001   1.95627
   A12        1.95479  -0.00000   0.00000  -0.00002  -0.00002   1.95477
   A13        1.88611  -0.00000   0.00000  -0.00001  -0.00001   1.88609
   A14        1.84730   0.00000   0.00000  -0.00000  -0.00000   1.84730
   A15        1.86676   0.00000   0.00000   0.00001   0.00001   1.86678
    D1        2.95795   0.00000   0.00000   0.00020   0.00020   2.95815
    D2       -0.39494   0.00000   0.00000   0.00033   0.00033  -0.39461
    D3        0.84020   0.00000   0.00000   0.00021   0.00021   0.84040
    D4       -2.51269   0.00000   0.00000   0.00033   0.00033  -2.51236
    D5       -1.22687   0.00000   0.00000   0.00021   0.00021  -1.22666
    D6        1.70342   0.00000   0.00000   0.00034   0.00034   1.70376
    D7       -0.84020  -0.00000   0.00000  -0.00021  -0.00021  -0.84040
    D8       -2.95795  -0.00000   0.00000  -0.00020  -0.00020  -2.95815
    D9        1.22687  -0.00000   0.00000  -0.00021  -0.00021   1.22666
   D10        2.51269  -0.00000   0.00000  -0.00033  -0.00033   2.51236
   D11        0.39494  -0.00000   0.00000  -0.00033  -0.00033   0.39461
   D12       -1.70342  -0.00000   0.00000  -0.00034  -0.00034  -1.70376
         Item               Value     Threshold  Converged?
 Maximum Force            0.000003     0.000450     YES
 RMS     Force            0.000001     0.000300     YES
 Maximum Displacement     0.000466     0.001800     YES
 RMS     Displacement     0.000138     0.001200     YES
 Predicted change in Energy=-2.915524D-10
 Optimization completed.
    -- Stationary point found.
                           ----------------------------
                           !   Optimized Parameters   !
                           ! (Angstroms and Degrees)  !
 --------------------------                            --------------------------
 ! Name  Definition              Value          Derivative Info.                !
 --------------------------------------------------------------------------------
 ! R1    R(1,2)                  1.4865         -DE/DX =    0.0                 !
 ! R2    R(1,4)                  1.0902         -DE/DX =    0.0                 !
 ! R3    R(1,5)                  1.0953         -DE/DX =    0.0                 !
 ! R4    R(1,6)                  1.1011         -DE/DX =    0.0                 !
 ! R5    R(2,3)                  1.4865         -DE/DX =    0.0                 !
 ! R6    R(2,7)                  1.0819         -DE/DX =    0.0                 !
 ! R7    R(3,8)                  1.0953         -DE/DX =    0.0                 !
 ! R8    R(3,9)                  1.0902         -DE/DX =    0.0                 !
 ! R9    R(3,10)                 1.1011         -DE/DX =    0.0                 !
 ! A1    A(2,1,4)              112.0856         -DE/DX =    0.0                 !
 ! A2    A(2,1,5)              111.5523         -DE/DX =    0.0                 !
 ! A3    A(2,1,6)              112.001          -DE/DX =    0.0                 !
 ! A4    A(4,1,5)              108.0659         -DE/DX =    0.0                 !
 ! A5    A(4,1,6)              106.9577         -DE/DX =    0.0                 !
 ! A6    A(5,1,6)              105.8424         -DE/DX =    0.0                 !
 ! A7    A(1,2,3)              121.0556         -DE/DX =    0.0                 !
 ! A8    A(1,2,7)              118.9234         -DE/DX =    0.0                 !
 ! A9    A(3,2,7)              118.9234         -DE/DX =    0.0                 !
 ! A10   A(2,3,8)              111.5523         -DE/DX =    0.0                 !
 ! A11   A(2,3,9)              112.0856         -DE/DX =    0.0                 !
 ! A12   A(2,3,10)             112.001          -DE/DX =    0.0                 !
 ! A13   A(8,3,9)              108.0659         -DE/DX =    0.0                 !
 ! A14   A(8,3,10)             105.8424         -DE/DX =    0.0                 !
 ! A15   A(9,3,10)             106.9577         -DE/DX =    0.0                 !
 ! D1    D(4,1,2,3)            169.4781         -DE/DX =    0.0                 !
 ! D2    D(4,1,2,7)            -22.6283         -DE/DX =    0.0                 !
 ! D3    D(5,1,2,3)             48.1398         -DE/DX =    0.0                 !
 ! D4    D(5,1,2,7)           -143.9666         -DE/DX =    0.0                 !
 ! D5    D(6,1,2,3)            -70.2946         -DE/DX =    0.0                 !
 ! D6    D(6,1,2,7)             97.599          -DE/DX =    0.0                 !
 ! D7    D(1,2,3,8)            -48.1398         -DE/DX =    0.0                 !
 ! D8    D(1,2,3,9)           -169.4781         -DE/DX =    0.0                 !
 ! D9    D(1,2,3,10)            70.2946         -DE/DX =    0.0                 !
 ! D10   D(7,2,3,8)            143.9666         -DE/DX =    0.0                 !
 ! D11   D(7,2,3,9)             22.6283         -DE/DX =    0.0                 !
 ! D12   D(7,2,3,10)           -97.599          -DE/DX =    0.0                 !
 --------------------------------------------------------------------------------
 GradGradGradGradGradGradGradGradGradGradGradGradGradGradGradGradGradGrad

 Leave Link  103 at Thu Apr  7 11:22:06 2022, MaxMem=  1073741824 cpu:               0.1 elap:               0.0
 (Enter /home/saurabh/gaussian/g16/l9999.exe)

 ----------------------------------------------------------------------

 Electric dipole moment (input orientation):
 (Debye = 10**-18 statcoulomb cm , SI units = C m)
                  (au)            (Debye)         (10**-30 SI)
   Tot        0.693578D-01      0.176290D+00      0.588040D+00
   x         -0.176765D-02     -0.449291D-02     -0.149867D-01
   y         -0.553950D-01     -0.140800D+00     -0.469658D+00
   z         -0.416987D-01     -0.105988D+00     -0.353536D+00

 Dipole polarizability, Alpha (input orientation).
 (esu units = cm**3 , SI units = C**2 m**2 J**-1)
 Alpha(0;0):
               (au)            (10**-24 esu)      (10**-40 SI)
   iso        0.380746D+02      0.564207D+01      0.627765D+01
   aniso      0.102897D+02      0.152477D+01      0.169654D+01
   xx         0.442543D+02      0.655781D+01      0.729655D+01
   yx        -0.209775D+00     -0.310854D-01     -0.345871D-01
   yy         0.371715D+02      0.550825D+01      0.612876D+01
   zx        -0.860931D-01     -0.127577D-01     -0.141948D-01
   zy        -0.134796D+01     -0.199747D+00     -0.222249D+00
   zz         0.327979D+02      0.486015D+01      0.540764D+01

 ----------------------------------------------------------------------

 Dipole orientation:
     6         -6.63056485         -1.33970098         -1.39830530
     6         -4.15663292         -2.36742829         -2.24349708
     6         -1.74117922         -1.20891947         -1.39830355
     1         -8.20700726         -2.16028496         -2.44034487
     1         -6.71547837          0.71641533         -1.61998690
     1         -6.97940928         -1.70834548          0.61958841
     1         -4.10797682         -4.18648781         -3.17562910
     1         -1.76630253          0.84879608         -1.61998544
     1         -0.12312349         -1.94405698         -2.44034179
     1         -1.37312817         -1.55838808          0.61959049

 Electric dipole moment (dipole orientation):
 (Debye = 10**-18 statcoulomb cm , SI units = C m)
                  (au)            (Debye)         (10**-30 SI)
   Tot        0.693578D-01      0.176290D+00      0.588040D+00
   x          0.000000D+00      0.000000D+00      0.000000D+00
   y          0.000000D+00      0.000000D+00      0.000000D+00
   z          0.693578D-01      0.176290D+00      0.588040D+00

 Dipole polarizability, Alpha (dipole orientation).
 (esu units = cm**3 , SI units = C**2 m**2 J**-1)
 Alpha(0;0):
               (au)            (10**-24 esu)      (10**-40 SI)
   iso        0.380746D+02      0.564207D+01      0.627765D+01
   aniso      0.102897D+02      0.152477D+01      0.169654D+01
   xx         0.442546D+02      0.655785D+01      0.729660D+01
   yx         0.229528D+00      0.340125D-01      0.378440D-01
   yy         0.356796D+02      0.528717D+01      0.588277D+01
   zx        -0.661024D-01     -0.979536D-02     -0.108988D-01
   zy         0.247144D+01      0.366230D+00      0.407486D+00
   zz         0.342896D+02      0.508119D+01      0.565358D+01

 ----------------------------------------------------------------------
 Unable to Open any file for archive entry.
 1\1\GINC-MEDIAWIKI\Freq\UB3LYP\CC-pVTZ\C3H7(2)\SAURABH\07-Apr-2022\0\\
 #P Geom=AllCheck Guess=TCheck SCRF=Check GenChk UB3LYP/CC-pVTZ Freq\\M
 ol_01\\0,2\C,-3.4974744553,1.0621011969,-0.0319279168\C,-2.1843720015,
 1.7298642553,-0.2307614934\C,-0.9102928067,0.9875732531,-0.0425952956\
 H,-4.3228200651,1.7743617736,-0.0259611509\H,-3.5255691113,0.501776199
 3,0.908752486\H,-3.7116944518,0.3289569947,-0.8250161807\H,-2.15830047
 75,2.7026172055,-0.7036794651\H,-0.9067499193,0.4263370241,0.897954744
 6\H,-0.0452937491,1.6511406797,-0.0435982069\H,-0.7451729526,0.2435014
 175,-0.8372475212\\Version=ES64L-G16RevC.01\State=2-A\HF=-118.5263223\
 S2=0.754168\S2-1=0.\S2A=0.750013\RMSD=1.216e-09\RMSF=1.099e-06\ZeroPoi
 nt=0.0875331\Thermal=0.0927435\ETot=-118.4335788\HTot=-118.4326346\GTo
 t=-118.4660949\Dipole=-0.0017676,-0.055395,-0.0416987\DipoleDeriv=-0.0
 047264,0.0128577,0.0117578,-0.0307759,0.0885302,0.0436216,-0.0201128,0
 .0420855,0.1537786,0.2210734,-0.0055526,-0.0063669,-0.0054952,0.053555
 3,-0.161089,-0.0067677,-0.1750028,-0.1974742,-0.0032674,-0.0072188,-0.
 0079349,0.0364335,0.0871712,0.0439116,0.0238048,0.0409031,0.1536787,-0
 .1019806,0.0784368,0.0054187,0.1117059,-0.0273599,-0.0010507,0.011194,
 0.0024521,0.0736954,0.0259052,0.0006005,-0.0196835,-0.0262818,0.000823
 5,0.0978372,0.0353705,0.1085578,-0.1060608,-0.005999,-0.0260561,-0.006
 6976,-0.0852189,-0.051835,-0.1091522,-0.0500417,-0.1257463,-0.0592521,
 -0.0460741,-0.0003495,0.0033582,-0.0004393,-0.075565,0.0994705,0.00398
 49,0.1212251,0.0734464,0.0272579,-0.001223,0.0241842,0.025557,-0.00061
 84,0.0963596,-0.030155,0.1104527,-0.1059716,-0.1127844,-0.0734892,-0.0
 039511,-0.1067874,-0.0166803,0.0001214,-0.0095231,0.0036765,0.0738197,
 0.0005954,0.0219942,-0.000085,0.081302,-0.0580216,-0.11003,0.0422461,-
 0.1286037,-0.05966\Polar=44.2543254,-0.2097745,37.1715173,-0.0860931,-
 1.3479627,32.7979015\Quadrupole=0.1983057,0.0822973,-0.280603,-0.00479
 67,-0.0120993,-0.3514485\PG=C01 [X(C3H7)]\NImag=0\\0.50623215,-0.04937
 325,0.51398731,0.00149581,-0.02418140,0.48979785,-0.19384289,-0.050468
 57,0.01799553,0.50195055,-0.05486517,-0.11029832,0.02264401,0.00020420
 ,0.53520082,0.01807576,0.02285883,-0.05570410,-0.00663917,-0.18260838,
 0.16755051,-0.02441335,0.01509988,-0.00139748,-0.18777861,0.05951401,-
 0.01562752,0.51188390,-0.01296322,0.01283334,-0.00123752,0.05511936,-0
 .11663987,0.02339364,0.04929254,0.50829815,0.00152454,-0.00143740,0.00
 030773,-0.01556083,0.02313833,-0.05542687,-0.00305566,-0.02445776,0.48
 983528,-0.19197550,0.12894143,0.00221040,-0.02265504,0.01999579,-0.002
 33912,-0.00320691,-0.00433278,0.00175214,0.21201684,0.13124341,-0.1620
 6729,0.00171262,-0.01397842,0.01182185,-0.00078549,-0.00217779,-0.0010
 0451,0.00037958,-0.14064037,0.17524855,0.00257056,0.00175811,-0.046860
 06,0.00202961,-0.00335128,-0.00091453,0.00016904,0.00077500,0.00076464
 ,-0.00132640,0.00005886,0.04529586,-0.04771963,0.00149563,0.00530696,-
 0.00128657,-0.01850141,0.02289287,0.00182163,-0.00027337,0.00107982,0.
 00071611,0.01032805,-0.02148331,0.04972646,0.00401400,-0.10498461,0.10
 965688,-0.00521810,-0.01317520,0.01241632,0.00096849,0.00023994,-0.000
 87877,-0.00109275,-0.01050691,0.01811149,0.00454460,0.11728508,0.00196
 519,0.10938659,-0.22826845,0.00221236,0.00419047,0.00005995,-0.0004634
 1,-0.00019294,0.00068271,-0.00088730,-0.00123627,0.00145515,-0.0030448
 1,-0.12138322,0.25072724,-0.04974994,-0.02771651,-0.03484600,-0.010614
 21,-0.02218150,-0.01689806,0.00171747,0.00034912,0.00051987,0.00451010
 ,0.01548830,0.01808312,0.00044237,0.00005788,-0.00111885,0.05569874,-0
 .02057114,-0.14190860,-0.11595797,-0.01128428,-0.01334241,-0.00561151,
 0.00068994,0.00007864,0.00022381,-0.00318501,-0.01492284,-0.01658211,0
 .00312812,0.01032034,0.01119307,0.03346525,0.15922068,-0.02575966,-0.1
 1037663,-0.16547218,-0.00330133,0.00255391,0.00791039,-0.00030853,0.00
 002614,0.00070429,0.00077549,0.00020927,-0.00038966,-0.00444952,-0.018
 69070,-0.02384752,0.03351947,0.12651637,0.18325921,0.00088818,-0.02216
 666,0.01258295,-0.05419316,-0.00585318,0.00351486,0.00192342,0.0216832
 9,-0.01211076,0.00157137,0.00064631,-0.00008885,-0.00371111,-0.0029593
 0,0.00038974,-0.00104059,-0.00119215,0.00001051,0.05740099,0.00207119,
 -0.00660466,0.00744976,-0.00587707,-0.27586244,0.12438204,-0.00250122,
 -0.00773696,0.00817982,-0.00045188,0.00111078,-0.00055787,-0.00149862,
 0.00001369,-0.00134203,-0.00041243,-0.00026868,-0.00027234,0.00611224,
 0.28884292,-0.00052216,0.00145465,0.00402511,0.00368176,0.13017579,-0.
 07056408,0.00062176,0.00124076,0.00412219,-0.00023142,-0.00009713,-0.0
 0017036,0.00102577,0.00129966,-0.00092647,-0.00000935,0.00018953,-0.00
 165080,-0.00386416,-0.13566828,0.06790286,0.00177078,0.00018322,-0.001
 13754,-0.00016141,0.01777972,-0.02213410,-0.04819419,-0.00386746,-0.00
 047027,0.00035945,-0.00005545,0.00033220,-0.00012641,-0.00056977,0.000
 81479,-0.00024362,-0.00010934,0.00014886,-0.00345405,0.00168722,-0.000
 92802,0.04937659,-0.00106387,0.00028537,-0.00080651,0.00456955,-0.0145
 0322,0.01367291,-0.00638273,-0.10453020,0.10986620,-0.00018442,-0.0000
 0971,-0.00026762,0.00061221,0.00064373,-0.00026414,-0.00007042,0.00019
 785,-0.00007825,0.00316976,-0.00025485,0.00133064,-0.00163116,0.117641
 14,0.00044232,-0.00022091,0.00068812,-0.00196455,0.00416106,0.00026281
 ,0.00284981,0.10938326,-0.22824830,-0.00002684,-0.00021544,0.00031352,
 -0.00082665,-0.00021198,0.00009831,-0.00012633,-0.00012651,-0.00029732
 ,-0.00044477,-0.00133116,-0.00091498,-0.00228917,-0.12137946,0.2507210
 5,-0.00284045,0.00444449,-0.00169662,-0.02288454,-0.01802101,0.0024667
 8,-0.20685630,-0.12634018,-0.00081980,-0.00137972,-0.00068923,0.000116
 17,0.00036926,0.00016035,0.00001397,0.00004520,-0.00016430,-0.00017564
 ,0.00156087,0.00042135,0.00021128,0.00034025,0.00061694,0.00082399,0.2
 2806996,0.00228669,-0.00138626,0.00046048,0.01597215,0.01205440,-0.001
 04740,-0.12864255,-0.14721469,0.00287325,0.00078379,0.00027806,-0.0001
 3197,0.00003174,-0.00002216,-0.00021698,0.00016605,0.00005200,0.000102
 35,-0.00067303,0.00112364,-0.00010444,-0.01095800,-0.00994266,-0.00119
 776,0.13759035,0.15920545,-0.00009390,0.00074634,0.00077993,-0.0020343
 5,-0.00307744,-0.00091759,-0.00117729,0.00292042,-0.04683186,-0.000108
 21,-0.00011943,0.00046303,-0.00034750,-0.00024947,0.00031616,0.0004122
 8,0.00016530,0.00004052,0.00004216,-0.00056525,-0.00017273,0.02249688,
 0.01683757,0.00126676,-0.00014577,-0.00112426,0.04528585,0.00165063,-0
 .00043966,-0.00051403,-0.00853412,0.02192854,0.01668770,-0.04689707,0.
 02133270,0.02714096,0.00004330,-0.00016479,-0.00040214,-0.00023212,0.0
 0009459,0.00011832,-0.00076551,-0.00077708,-0.00045964,-0.00094591,0.0
 0044922,0.00001454,0.00033261,0.00036413,0.00156219,0.00357546,-0.0165
 5719,-0.01904430,0.05177272,-0.00077864,0.00014372,0.00025966,0.010961
 19,-0.01525562,-0.00667097,0.01413943,-0.14432384,-0.11788706,0.000166
 20,0.00005201,0.00018739,0.00013304,0.00018610,-0.00013455,0.00085427,
 0.00057302,0.00000989,0.00123272,-0.00036343,0.00017883,-0.00245899,0.
 01047256,0.01113889,0.00198125,-0.01414777,-0.01553378,-0.02623047,0.1
 6266325,0.00030154,0.00001182,0.00070604,0.00358097,0.00217354,0.00774
 350,0.01838929,-0.11185100,-0.16590981,0.00018126,0.00009344,0.0000424
 1,-0.00015362,-0.00007022,-0.00029708,0.00046384,-0.00000999,-0.000256
 94,-0.00003169,-0.00027469,-0.00165073,0.00316636,-0.01891134,-0.02388
 997,-0.00079436,0.00038673,-0.00023009,-0.02510360,0.12845171,0.183742
 67\\0.00000249,0.00000041,0.00000112,0.00000004,-0.00000020,0.00000194
 ,-0.00000247,0.00000054,0.00000114,0.00000088,0.00000053,-0.00000077,0
 .00000077,0.00000012,-0.00000034,-0.00000109,-0.00000161,-0.00000006,0
 .,0.00000115,-0.00000187,-0.00000076,0.00000016,-0.00000033,-0.0000008
 6,0.00000058,-0.00000076,0.00000100,-0.00000167,-0.00000006\\\@
 The archive entry for this job was punched.



 IN THIS SHORT LIFE

 THAT ONLY LASTS AN HOUR

 HOW MUCH, HOW LITTLE, IS WITHIN OUR POWER....


 EMILY DICKINSON BOLTS OF MELODY NO. 521
 Job cpu time:       0 days  0 hours 11 minutes 39.2 seconds.
 Elapsed time:       0 days  0 hours  1 minutes 28.3 seconds.
 File lengths (MBytes):  RWF=     54 Int=      0 D2E=      0 Chk=      5 Scr=      1
 Normal termination of Gaussian 16 at Thu Apr  7 11:22:06 2022.
