 Entering Gaussian System, Link 0=g16
 Initial command:
 /apps/chpc/chem/gaussian16/B01/g16/l1.exe "/mnt/lustre/users/kotukile/Kgalaletso/4074155.sched01/Gau-96251.inp" -scrdir="/mnt/lustre/users/kotukile/Kgalaletso/4074155.sched01/"
 Entering Link 1 = /apps/chpc/chem/gaussian16/B01/g16/l1.exe PID=     96252.
  
 Copyright (c) 1988-2017, Gaussian, Inc.  All Rights Reserved.
  
 This is part of the Gaussian(R) 16 program.  It is based on
 the Gaussian(R) 09 system (copyright 2009, Gaussian, Inc.),
 the Gaussian(R) 03 system (copyright 2003, Gaussian, Inc.),
 the Gaussian(R) 98 system (copyright 1998, Gaussian, Inc.),
 the Gaussian(R) 94 system (copyright 1995, Gaussian, Inc.),
 the Gaussian 92(TM) system (copyright 1992, Gaussian, Inc.),
 the Gaussian 90(TM) system (copyright 1990, Gaussian, Inc.),
 the Gaussian 88(TM) system (copyright 1988, Gaussian, Inc.),
 the Gaussian 86(TM) system (copyright 1986, Carnegie Mellon
 University), and the Gaussian 82(TM) system (copyright 1983,
 Carnegie Mellon University). Gaussian is a federally registered
 trademark of Gaussian, Inc.
  
 This software contains proprietary and confidential information,
 including trade secrets, belonging to Gaussian, Inc.
  
 This software is provided under written license and may be
 used, copied, transmitted, or stored only in accord with that
 written license.
  
 The following legend is applicable only to US Government
 contracts under FAR:
  
                    RESTRICTED RIGHTS LEGEND
  
 Use, reproduction and disclosure by the US Government is
 subject to restrictions as set forth in subparagraphs (a)
 and (c) of the Commercial Computer Software - Restricted
 Rights clause in FAR 52.227-19.
  
 Gaussian, Inc.
 340 Quinnipiac St., Bldg. 40, Wallingford CT 06492
  
  
 ---------------------------------------------------------------
 Warning -- This program may not be used in any manner that
 competes with the business of Gaussian, Inc. or will provide
 assistance to any competitor of Gaussian, Inc.  The licensee
 of this program is prohibited from giving any competitor of
 Gaussian, Inc. access to this program.  By using this program,
 the user acknowledges that Gaussian, Inc. is engaged in the
 business of creating and licensing software in the field of
 computational chemistry and represents and warrants to the
 licensee that it is not a competitor of Gaussian, Inc. and that
 it will not use this program in any manner prohibited above.
 ---------------------------------------------------------------
  

 Cite this work as:
 Gaussian 16, Revision B.01,
 M. J. Frisch, G. W. Trucks, H. B. Schlegel, G. E. Scuseria, 
 M. A. Robb, J. R. Cheeseman, G. Scalmani, V. Barone, 
 G. A. Petersson, H. Nakatsuji, X. Li, M. Caricato, A. V. Marenich, 
 J. Bloino, B. G. Janesko, R. Gomperts, B. Mennucci, H. P. Hratchian, 
 J. V. Ortiz, A. F. Izmaylov, J. L. Sonnenberg, D. Williams-Young, 
 F. Ding, F. Lipparini, F. Egidi, J. Goings, B. Peng, A. Petrone, 
 T. Henderson, D. Ranasinghe, V. G. Zakrzewski, J. Gao, N. Rega, 
 G. Zheng, W. Liang, M. Hada, M. Ehara, K. Toyota, R. Fukuda, 
 J. Hasegawa, M. Ishida, T. Nakajima, Y. Honda, O. Kitao, H. Nakai, 
 T. Vreven, K. Throssell, J. A. Montgomery, Jr., J. E. Peralta, 
 F. Ogliaro, M. J. Bearpark, J. J. Heyd, E. N. Brothers, K. N. Kudin, 
 V. N. Staroverov, T. A. Keith, R. Kobayashi, J. Normand, 
 K. Raghavachari, A. P. Rendell, J. C. Burant, S. S. Iyengar, 
 J. Tomasi, M. Cossi, J. M. Millam, M. Klene, C. Adamo, R. Cammi, 
 J. W. Ochterski, R. L. Martin, K. Morokuma, O. Farkas, 
 J. B. Foresman, and D. J. Fox, Gaussian, Inc., Wallingford CT, 2016.
 
 ******************************************
 Gaussian 16:  ES64L-G16RevB.01 20-Dec-2017
                15-Mar-2022 
 ******************************************
 %nprocshared=24
 Will use up to   24 processors via shared memory.
 %lindaworkers=cnode0261.cm.cluster,cnode0260.cm.cluster
 %mem=20GB
 %chk=QOOHisop-OOH-elim-TS-b3lyp-c.chk
 SetLPE:    new flags="-opt 'Tsnet.Node.lindarsharg: ssh'  -nodelist 'cnode0261.cm.cluster cnode0260.cm.cluster' -env GAUSS_MDEF=2684354560 -env GAUSS_EXEDIR="/apps/chpc/chem/gaussian16/B01/g16/bsd:/apps/chpc/chem/gaussian16/B01/g16""
 Will use up to    2 processors via Linda.
 ---------------------------------------------------
 # opt=(calcfc,ts,noeigentest) freq ub3lyp cc-pvtz+d
 ---------------------------------------------------
 1/5=1,10=4,11=1,18=20,26=3,38=1/1,3;
 2/9=110,12=2,17=6,18=5,40=1/2;
 3/5=16,6=1,7=9,11=2,25=1,30=1,71=2,74=-5,116=2,140=1/1,2,3;
 4//1;
 5/5=2,38=5/2;
 8/6=4,10=90,11=11/1;
 11/6=1,8=1,9=11,15=111,16=1/1,2,10;
 10/6=1,13=1/2;
 6/7=2,8=2,9=2,10=2,28=1/1;
 7/10=1,18=20,25=1/1,2,3,16;
 1/5=1,10=4,11=1,18=20,26=3/3(2);
 2/9=110/2;
 99//99;
 2/9=110/2;
 3/5=16,6=1,7=9,11=2,25=1,30=1,71=1,74=-5,116=2/1,2,3;
 4/5=5,16=3,69=1/1;
 5/5=2,38=5/2;
 7//1,2,3,16;
 1/5=1,11=1,18=20,26=3/3(-5);
 2/9=110/2;
 6/7=2,8=2,9=2,10=2,19=2,28=1/1;
 99/9=1/99;
 ----------------------------
 QOOHisop-OOH-elim-TS-b3lyp-c
 ----------------------------
 Symbolic Z-matrix:
 Charge =  0 Multiplicity = 2
 C                    -0.6301    1.45532  -0.13909 
 H                    -0.01742   2.23765   0.29077 
 H                    -1.13037   1.66153  -1.07838 
 H                     2.38194   0.42684  -0.47114 
 C                    -0.68952   0.2066    0.42695 
 H                    -0.28882   0.08356   1.42826 
 C                    -1.67971  -0.82427  -0.02834 
 H                    -1.93063  -0.68224  -1.08084 
 H                    -1.27213  -1.82673   0.10488 
 H                    -2.598    -0.74584   0.55896 
 O                     1.99762  -0.14233   0.20847 
 O                     0.8588   -0.63026  -0.37217 
 
 Add virtual bond connecting atoms O12        and C5         Dist= 3.65D+00.

 GradGradGradGradGradGradGradGradGradGradGradGradGradGradGradGradGradGrad
 Berny optimization.
 Initialization pass.
                           ----------------------------
                           !    Initial Parameters    !
                           ! (Angstroms and Degrees)  !
 --------------------------                            --------------------------
 ! Name  Definition              Value          Derivative Info.                !
 --------------------------------------------------------------------------------
 ! R1    R(1,2)                  1.0827         calculate D2E/DX2 analytically  !
 ! R2    R(1,3)                  1.084          calculate D2E/DX2 analytically  !
 ! R3    R(1,5)                  1.3723         calculate D2E/DX2 analytically  !
 ! R4    R(4,11)                 0.9662         calculate D2E/DX2 analytically  !
 ! R5    R(5,6)                  1.0855         calculate D2E/DX2 analytically  !
 ! R6    R(5,7)                  1.5001         calculate D2E/DX2 analytically  !
 ! R7    R(5,12)                 1.9329         calculate D2E/DX2 analytically  !
 ! R8    R(7,8)                  1.0913         calculate D2E/DX2 analytically  !
 ! R9    R(7,9)                  1.0903         calculate D2E/DX2 analytically  !
 ! R10   R(7,10)                 1.0929         calculate D2E/DX2 analytically  !
 ! R11   R(11,12)                1.3683         calculate D2E/DX2 analytically  !
 ! A1    A(2,1,3)              117.8873         calculate D2E/DX2 analytically  !
 ! A2    A(2,1,5)              121.2152         calculate D2E/DX2 analytically  !
 ! A3    A(3,1,5)              120.6983         calculate D2E/DX2 analytically  !
 ! A4    A(1,5,6)              117.8807         calculate D2E/DX2 analytically  !
 ! A5    A(1,5,7)              121.9169         calculate D2E/DX2 analytically  !
 ! A6    A(1,5,12)             100.8796         calculate D2E/DX2 analytically  !
 ! A7    A(6,5,7)              116.4692         calculate D2E/DX2 analytically  !
 ! A8    A(6,5,12)              92.0976         calculate D2E/DX2 analytically  !
 ! A9    A(7,5,12)              96.0701         calculate D2E/DX2 analytically  !
 ! A10   A(5,7,8)              110.7961         calculate D2E/DX2 analytically  !
 ! A11   A(5,7,9)              110.3641         calculate D2E/DX2 analytically  !
 ! A12   A(5,7,10)             110.012          calculate D2E/DX2 analytically  !
 ! A13   A(8,7,9)              108.8717         calculate D2E/DX2 analytically  !
 ! A14   A(8,7,10)             108.4065         calculate D2E/DX2 analytically  !
 ! A15   A(9,7,10)             108.3262         calculate D2E/DX2 analytically  !
 ! A16   A(4,11,12)            104.0427         calculate D2E/DX2 analytically  !
 ! A17   A(5,12,11)            109.6861         calculate D2E/DX2 analytically  !
 ! D1    D(2,1,5,6)             13.3338         calculate D2E/DX2 analytically  !
 ! D2    D(2,1,5,7)            170.7885         calculate D2E/DX2 analytically  !
 ! D3    D(2,1,5,12)           -84.9367         calculate D2E/DX2 analytically  !
 ! D4    D(3,1,5,6)           -171.903          calculate D2E/DX2 analytically  !
 ! D5    D(3,1,5,7)            -14.4483         calculate D2E/DX2 analytically  !
 ! D6    D(3,1,5,12)            89.8264         calculate D2E/DX2 analytically  !
 ! D7    D(1,5,7,8)             29.0048         calculate D2E/DX2 analytically  !
 ! D8    D(1,5,7,9)            149.6705         calculate D2E/DX2 analytically  !
 ! D9    D(1,5,7,10)           -90.849          calculate D2E/DX2 analytically  !
 ! D10   D(6,5,7,8)           -173.2419         calculate D2E/DX2 analytically  !
 ! D11   D(6,5,7,9)            -52.5762         calculate D2E/DX2 analytically  !
 ! D12   D(6,5,7,10)            66.9043         calculate D2E/DX2 analytically  !
 ! D13   D(12,5,7,8)           -77.8443         calculate D2E/DX2 analytically  !
 ! D14   D(12,5,7,9)            42.8214         calculate D2E/DX2 analytically  !
 ! D15   D(12,5,7,10)          162.302          calculate D2E/DX2 analytically  !
 ! D16   D(1,5,12,11)           74.3727         calculate D2E/DX2 analytically  !
 ! D17   D(6,5,12,11)          -44.5449         calculate D2E/DX2 analytically  !
 ! D18   D(7,5,12,11)         -161.4442         calculate D2E/DX2 analytically  !
 ! D19   D(4,11,12,5)         -107.3665         calculate D2E/DX2 analytically  !
 --------------------------------------------------------------------------------
 Trust Radius=3.00D-01 FncErr=1.00D-07 GrdErr=1.00D-06 EigMax=2.50D+02 EigMin=1.00D-04
 Number of steps in this run=     57 maximum allowed number of steps=    100.
 Search for a saddle point of order  1.
 GradGradGradGradGradGradGradGradGradGradGradGradGradGradGradGradGradGrad

                          Input orientation:                          
 ---------------------------------------------------------------------
 Center     Atomic      Atomic             Coordinates (Angstroms)
 Number     Number       Type             X           Y           Z
 ---------------------------------------------------------------------
      1          6           0       -0.630096    1.455320   -0.139092
      2          1           0       -0.017423    2.237651    0.290767
      3          1           0       -1.130366    1.661526   -1.078384
      4          1           0        2.381940    0.426844   -0.471138
      5          6           0       -0.689519    0.206595    0.426946
      6          1           0       -0.288824    0.083558    1.428259
      7          6           0       -1.679707   -0.824266   -0.028338
      8          1           0       -1.930628   -0.682237   -1.080839
      9          1           0       -1.272132   -1.826731    0.104875
     10          1           0       -2.597996   -0.745837    0.558960
     11          8           0        1.997619   -0.142326    0.208472
     12          8           0        0.858802   -0.630257   -0.372171
 ---------------------------------------------------------------------
                    Distance matrix (angstroms):
                    1          2          3          4          5
     1  C    0.000000
     2  H    1.082677   0.000000
     3  H    1.084002   1.856108   0.000000
     4  H    3.200059   3.101042   3.772198   0.000000
     5  C    1.372313   2.143699   2.139437   3.207635   0.000000
     6  H    2.110637   2.451053   3.079194   3.295229   1.085506
     7  C    2.512063   3.498621   2.753822   4.272976   1.500143
     8  H    2.673466   3.750654   2.476621   4.494445   2.145644
     9  H    3.353146   4.257705   3.686209   4.331586   2.139529
    10  H    3.033974   3.953794   3.260403   5.218816   2.137016
    11  O    3.094860   3.119528   3.833298   0.966192   2.718490
    12  O    2.573087   3.071181   3.115734   1.856665   1.932927
                    6          7          8          9         10
     6  H    0.000000
     7  C    2.209157   0.000000
     8  H    3.094759   1.091280   0.000000
     9  H    2.523379   1.090321   1.774655   0.000000
    10  H    2.603047   1.092852   1.771543   1.769870   0.000000
    11  O    2.601293   3.747512   4.169527   3.679568   4.648306
    12  O    2.251250   2.569025   2.878512   2.489980   3.581873
                   11         12
    11  O    0.000000
    12  O    1.368257   0.000000
 Stoichiometry    C3H7O2(2)
 Framework group  C1[X(C3H7O2)]
 Deg. of freedom    30
 Full point group                 C1      NOp   1
 Largest Abelian subgroup         C1      NOp   1
 Largest concise Abelian subgroup C1      NOp   1
                         Standard orientation:                         
 ---------------------------------------------------------------------
 Center     Atomic      Atomic             Coordinates (Angstroms)
 Number     Number       Type             X           Y           Z
 ---------------------------------------------------------------------
      1          6           0       -0.630096    1.455320   -0.139092
      2          1           0       -0.017423    2.237651    0.290767
      3          1           0       -1.130366    1.661526   -1.078384
      4          1           0        2.381940    0.426844   -0.471138
      5          6           0       -0.689519    0.206595    0.426946
      6          1           0       -0.288824    0.083558    1.428259
      7          6           0       -1.679707   -0.824266   -0.028338
      8          1           0       -1.930628   -0.682237   -1.080839
      9          1           0       -1.272132   -1.826731    0.104875
     10          1           0       -2.597996   -0.745837    0.558960
     11          8           0        1.997619   -0.142326    0.208472
     12          8           0        0.858802   -0.630257   -0.372171
 ---------------------------------------------------------------------
 Rotational constants (GHZ):           7.9849123           3.3801220           2.6307586
 Standard basis: CC-pVTZ+d (5D, 7F)
 There are   280 symmetry adapted cartesian basis functions of A   symmetry.
 There are   248 symmetry adapted basis functions of A   symmetry.
   248 basis functions,   379 primitive gaussians,   280 cartesian basis functions
    21 alpha electrons       20 beta electrons
       nuclear repulsion energy       178.6634926134 Hartrees.
 NAtoms=   12 NActive=   12 NUniq=   12 SFac= 1.00D+00 NAtFMM=   60 NAOKFM=F Big=F
 Integral buffers will be    131072 words long.
 Raffenetti 2 integral format.
 Two-electron integral symmetry is turned on.
 One-electron integrals computed using PRISM.
 NBasis=   248 RedAO= T EigKep=  4.93D-04  NBF=   248
 NBsUse=   248 1.00D-06 EigRej= -1.00D+00 NBFU=   248
 ExpMin= 1.03D-01 ExpMax= 1.53D+04 ExpMxC= 5.22D+02 IAcc=3 IRadAn=         5 AccDes= 0.00D+00
 Harris functional with IExCor=  402 and IRadAn=       5 diagonalized for initial guess.
 HarFok:  IExCor=  402 AccDes= 0.00D+00 IRadAn=         5 IDoV= 1 UseB2=F ITyADJ=14
 ICtDFT=  3500011 ScaDFX=  1.000000  1.000000  1.000000  1.000000
 FoFCou: FMM=F IPFlag=           0 FMFlag=      100000 FMFlg1=           0
         NFxFlg=           0 DoJE=T BraDBF=F KetDBF=T FulRan=T
         wScrn=  0.000000 ICntrl=       500 IOpCl=  0 I1Cent=   200000004 NGrid=           0
         NMat0=    1 NMatS0=      1 NMatT0=    0 NMatD0=    1 NMtDS0=    0 NMtDT0=    0
 Petite list used in FoFCou.
 Initial guess <Sx>= 0.0000 <Sy>= 0.0000 <Sz>= 0.5000 <S**2>= 0.7500 S= 0.5000
 Keep R1 and R2 ints in memory in canonical form, NReq=980075672.
 Requested convergence on RMS density matrix=1.00D-08 within 128 cycles.
 Requested convergence on MAX density matrix=1.00D-06.
 Requested convergence on             energy=1.00D-06.
 No special actions if energy rises.
 Integral accuracy reduced to 1.0D-05 until final iterations.
 Initial convergence to 1.0D-05 achieved.  Increase integral accuracy.
 SCF Done:  E(UB3LYP) =  -268.907603469     A.U. after   18 cycles
            NFock= 18  Conv=0.81D-08     -V/T= 2.0061
 <Sx>= 0.0000 <Sy>= 0.0000 <Sz>= 0.5000 <S**2>= 0.7786 S= 0.5142
 <L.S>= 0.000000000000E+00
 Annihilation of the first spin contaminant:
 S**2 before annihilation     0.7786,   after     0.7501
 DoSCS=F DFT=T ScalE2(SS,OS)=  1.000000  1.000000
 Range of M.O.s used for correlation:     1   248
 NBasis=   248 NAE=    21 NBE=    20 NFC=     0 NFV=     0
 NROrb=    248 NOA=    21 NOB=    20 NVA=   227 NVB=   228

 **** Warning!!: The largest alpha MO coefficient is  0.10512222D+02

 Symmetrizing basis deriv contribution to polar:
 IMax=3 JMax=2 DiffMx= 0.00D+00
 G2DrvN: will do    13 centers at a time, making    1 passes.
 Calling FoFCou, ICntrl=  3107 FMM=F I1Cent=   0 AccDes= 0.00D+00.
 End of G2Drv F.D. properties file   721 does not exist.
 End of G2Drv F.D. properties file   722 does not exist.
 End of G2Drv F.D. properties file   788 does not exist.
          IDoAtm=111111111111
          Differentiating once with respect to nuclear coordinates.
 Keep R1 and R2 ints in memory in canonical form, NReq=980004093.
          There are    39 degrees of freedom in the 1st order CPHF.  IDoFFX=6 NUNeed=     0.
     33 vectors produced by pass  0 Test12= 2.39D-14 2.56D-09 XBig12= 2.21D-01 1.81D-01.
 AX will form    33 AO Fock derivatives at one time.
     33 vectors produced by pass  1 Test12= 2.39D-14 2.56D-09 XBig12= 4.82D-02 5.90D-02.
     33 vectors produced by pass  2 Test12= 2.39D-14 2.56D-09 XBig12= 1.13D-03 7.08D-03.
     33 vectors produced by pass  3 Test12= 2.39D-14 2.56D-09 XBig12= 1.35D-05 4.35D-04.
     33 vectors produced by pass  4 Test12= 2.39D-14 2.56D-09 XBig12= 1.83D-07 1.18D-04.
     33 vectors produced by pass  5 Test12= 2.39D-14 2.56D-09 XBig12= 1.58D-09 4.54D-06.
     26 vectors produced by pass  6 Test12= 2.39D-14 2.56D-09 XBig12= 5.45D-12 2.87D-07.
      5 vectors produced by pass  7 Test12= 2.39D-14 2.56D-09 XBig12= 2.08D-14 1.64D-08.
 InvSVY:  IOpt=1 It=  1 EMax= 1.55D-15
 Solved reduced A of dimension   229 with    33 vectors.
 End of Minotr F.D. properties file   721 does not exist.
 End of Minotr F.D. properties file   722 does not exist.
 End of Minotr F.D. properties file   788 does not exist.

 **********************************************************************

            Population analysis using the SCF Density.

 **********************************************************************

 Orbital symmetries:
 Alpha Orbitals:
       Occupied  (A) (A) (A) (A) (A) (A) (A) (A) (A) (A) (A) (A)
                 (A) (A) (A) (A) (A) (A) (A) (A) (A)
       Virtual   (A) (A) (A) (A) (A) (A) (A) (A) (A) (A) (A) (A)
                 (A) (A) (A) (A) (A) (A) (A) (A) (A) (A) (A) (A)
                 (A) (A) (A) (A) (A) (A) (A) (A) (A) (A) (A) (A)
                 (A) (A) (A) (A) (A) (A) (A) (A) (A) (A) (A) (A)
                 (A) (A) (A) (A) (A) (A) (A) (A) (A) (A) (A) (A)
                 (A) (A) (A) (A) (A) (A) (A) (A) (A) (A) (A) (A)
                 (A) (A) (A) (A) (A) (A) (A) (A) (A) (A) (A) (A)
                 (A) (A) (A) (A) (A) (A) (A) (A) (A) (A) (A) (A)
                 (A) (A) (A) (A) (A) (A) (A) (A) (A) (A) (A) (A)
                 (A) (A) (A) (A) (A) (A) (A) (A) (A) (A) (A) (A)
                 (A) (A) (A) (A) (A) (A) (A) (A) (A) (A) (A) (A)
                 (A) (A) (A) (A) (A) (A) (A) (A) (A) (A) (A) (A)
                 (A) (A) (A) (A) (A) (A) (A) (A) (A) (A) (A) (A)
                 (A) (A) (A) (A) (A) (A) (A) (A) (A) (A) (A) (A)
                 (A) (A) (A) (A) (A) (A) (A) (A) (A) (A) (A) (A)
                 (A) (A) (A) (A) (A) (A) (A) (A) (A) (A) (A) (A)
                 (A) (A) (A) (A) (A) (A) (A) (A) (A) (A) (A) (A)
                 (A) (A) (A) (A) (A) (A) (A) (A) (A) (A) (A) (A)
                 (A) (A) (A) (A) (A) (A) (A) (A) (A) (A) (A)
 Beta  Orbitals:
       Occupied  (A) (A) (A) (A) (A) (A) (A) (A) (A) (A) (A) (A)
                 (A) (A) (A) (A) (A) (A) (A) (A)
       Virtual   (A) (A) (A) (A) (A) (A) (A) (A) (A) (A) (A) (A)
                 (A) (A) (A) (A) (A) (A) (A) (A) (A) (A) (A) (A)
                 (A) (A) (A) (A) (A) (A) (A) (A) (A) (A) (A) (A)
                 (A) (A) (A) (A) (A) (A) (A) (A) (A) (A) (A) (A)
                 (A) (A) (A) (A) (A) (A) (A) (A) (A) (A) (A) (A)
                 (A) (A) (A) (A) (A) (A) (A) (A) (A) (A) (A) (A)
                 (A) (A) (A) (A) (A) (A) (A) (A) (A) (A) (A) (A)
                 (A) (A) (A) (A) (A) (A) (A) (A) (A) (A) (A) (A)
                 (A) (A) (A) (A) (A) (A) (A) (A) (A) (A) (A) (A)
                 (A) (A) (A) (A) (A) (A) (A) (A) (A) (A) (A) (A)
                 (A) (A) (A) (A) (A) (A) (A) (A) (A) (A) (A) (A)
                 (A) (A) (A) (A) (A) (A) (A) (A) (A) (A) (A) (A)
                 (A) (A) (A) (A) (A) (A) (A) (A) (A) (A) (A) (A)
                 (A) (A) (A) (A) (A) (A) (A) (A) (A) (A) (A) (A)
                 (A) (A) (A) (A) (A) (A) (A) (A) (A) (A) (A) (A)
                 (A) (A) (A) (A) (A) (A) (A) (A) (A) (A) (A) (A)
                 (A) (A) (A) (A) (A) (A) (A) (A) (A) (A) (A) (A)
                 (A) (A) (A) (A) (A) (A) (A) (A) (A) (A) (A) (A)
                 (A) (A) (A) (A) (A) (A) (A) (A) (A) (A) (A) (A)
 The electronic state is 2-A.
 Alpha  occ. eigenvalues --  -19.19401 -19.18233 -10.20993 -10.18196 -10.17099
 Alpha  occ. eigenvalues --   -1.13969  -0.85938  -0.79193  -0.69668  -0.57376
 Alpha  occ. eigenvalues --   -0.53075  -0.47838  -0.46192  -0.44706  -0.42652
 Alpha  occ. eigenvalues --   -0.40077  -0.37805  -0.36165  -0.29501  -0.27871
 Alpha  occ. eigenvalues --   -0.22985
 Alpha virt. eigenvalues --    0.01121   0.03794   0.04823   0.07448   0.08293
 Alpha virt. eigenvalues --    0.10739   0.11549   0.11659   0.13153   0.18252
 Alpha virt. eigenvalues --    0.24070   0.25371   0.27374   0.29703   0.31529
 Alpha virt. eigenvalues --    0.33255   0.35609   0.38214   0.39798   0.42239
 Alpha virt. eigenvalues --    0.43872   0.44911   0.45762   0.46610   0.47553
 Alpha virt. eigenvalues --    0.48788   0.50987   0.51925   0.53798   0.56276
 Alpha virt. eigenvalues --    0.59995   0.62223   0.64370   0.66615   0.68249
 Alpha virt. eigenvalues --    0.69928   0.71953   0.73220   0.75954   0.77806
 Alpha virt. eigenvalues --    0.83527   0.86445   0.87620   0.90248   0.91528
 Alpha virt. eigenvalues --    0.97442   0.98194   0.99274   1.01353   1.06616
 Alpha virt. eigenvalues --    1.08500   1.09930   1.10242   1.13111   1.13634
 Alpha virt. eigenvalues --    1.17396   1.18790   1.21222   1.23825   1.25944
 Alpha virt. eigenvalues --    1.28112   1.31875   1.33006   1.35145   1.37666
 Alpha virt. eigenvalues --    1.38069   1.41910   1.43106   1.45024   1.46974
 Alpha virt. eigenvalues --    1.49174   1.50696   1.50978   1.57111   1.65015
 Alpha virt. eigenvalues --    1.69910   1.75160   1.78530   1.83301   1.90809
 Alpha virt. eigenvalues --    1.94958   2.02911   2.09826   2.16826   2.17406
 Alpha virt. eigenvalues --    2.20370   2.28888   2.30389   2.33021   2.38933
 Alpha virt. eigenvalues --    2.41397   2.45929   2.50370   2.51495   2.53021
 Alpha virt. eigenvalues --    2.58128   2.61161   2.64621   2.66620   2.73393
 Alpha virt. eigenvalues --    2.73969   2.76510   2.80102   2.80914   2.85070
 Alpha virt. eigenvalues --    2.85609   2.88629   2.91964   2.92799   2.94755
 Alpha virt. eigenvalues --    2.97929   3.00338   3.02864   3.05698   3.07295
 Alpha virt. eigenvalues --    3.10305   3.11070   3.14783   3.16351   3.20295
 Alpha virt. eigenvalues --    3.24740   3.25087   3.25804   3.27037   3.29220
 Alpha virt. eigenvalues --    3.32348   3.36391   3.42876   3.44227   3.45673
 Alpha virt. eigenvalues --    3.46306   3.48055   3.51823   3.53807   3.56858
 Alpha virt. eigenvalues --    3.57877   3.62279   3.64776   3.68960   3.69808
 Alpha virt. eigenvalues --    3.71831   3.73858   3.75441   3.78791   3.80455
 Alpha virt. eigenvalues --    3.82339   3.83410   3.85592   3.88630   3.89457
 Alpha virt. eigenvalues --    3.93867   3.95536   3.96851   4.00638   4.02129
 Alpha virt. eigenvalues --    4.04250   4.06317   4.09573   4.10219   4.11786
 Alpha virt. eigenvalues --    4.14489   4.20211   4.21237   4.26634   4.30523
 Alpha virt. eigenvalues --    4.33959   4.37300   4.40697   4.41991   4.44091
 Alpha virt. eigenvalues --    4.46374   4.58482   4.63752   4.67583   4.72029
 Alpha virt. eigenvalues --    4.77820   4.81306   4.83043   4.85597   4.86367
 Alpha virt. eigenvalues --    4.91908   4.94437   4.95315   4.97799   5.02354
 Alpha virt. eigenvalues --    5.03079   5.06209   5.10139   5.16561   5.20285
 Alpha virt. eigenvalues --    5.21352   5.22899   5.25567   5.29611   5.33440
 Alpha virt. eigenvalues --    5.36537   5.40320   5.42354   5.44574   5.57542
 Alpha virt. eigenvalues --    5.61625   5.78398   5.83749   5.87647   5.91725
 Alpha virt. eigenvalues --    5.97159   6.07459   6.15228   6.30696   6.34315
 Alpha virt. eigenvalues --    6.36270   6.41458   6.47612   6.55567   6.58700
 Alpha virt. eigenvalues --    6.63827   6.66734   6.82750   7.05889   7.18070
 Alpha virt. eigenvalues --    7.32922   7.60812   9.51705  10.96927  11.20251
 Alpha virt. eigenvalues --   13.20646  13.75061
  Beta  occ. eigenvalues --  -19.19100 -19.16658 -10.21214 -10.17426 -10.17080
  Beta  occ. eigenvalues --   -1.12310  -0.83795  -0.78151  -0.68781  -0.56866
  Beta  occ. eigenvalues --   -0.52263  -0.47503  -0.45416  -0.42974  -0.40585
  Beta  occ. eigenvalues --   -0.39160  -0.37622  -0.36011  -0.26852  -0.25462
  Beta virt. eigenvalues --   -0.10515   0.02210   0.04499   0.05082   0.07559
  Beta virt. eigenvalues --    0.08541   0.11393   0.11591   0.12069   0.13259
  Beta virt. eigenvalues --    0.18254   0.24125   0.25474   0.27843   0.30317
  Beta virt. eigenvalues --    0.31769   0.34045   0.36768   0.39069   0.40026
  Beta virt. eigenvalues --    0.42243   0.44097   0.44940   0.45892   0.47041
  Beta virt. eigenvalues --    0.47759   0.49350   0.51311   0.52088   0.54234
  Beta virt. eigenvalues --    0.56643   0.60350   0.62535   0.64852   0.67352
  Beta virt. eigenvalues --    0.69013   0.70129   0.72467   0.74156   0.76277
  Beta virt. eigenvalues --    0.78316   0.83741   0.86760   0.87987   0.90490
  Beta virt. eigenvalues --    0.91710   0.97845   0.98581   0.99448   1.01553
  Beta virt. eigenvalues --    1.06687   1.08724   1.10229   1.10474   1.13497
  Beta virt. eigenvalues --    1.14339   1.17809   1.19090   1.21746   1.24077
  Beta virt. eigenvalues --    1.26469   1.28360   1.32011   1.33423   1.35425
  Beta virt. eigenvalues --    1.38011   1.38525   1.42172   1.43407   1.45559
  Beta virt. eigenvalues --    1.47213   1.49744   1.50946   1.51456   1.57728
  Beta virt. eigenvalues --    1.66337   1.70440   1.75818   1.78756   1.84311
  Beta virt. eigenvalues --    1.91068   1.95689   2.04374   2.11865   2.17266
  Beta virt. eigenvalues --    2.18475   2.20948   2.29399   2.30746   2.33667
  Beta virt. eigenvalues --    2.39224   2.41677   2.46048   2.51187   2.51618
  Beta virt. eigenvalues --    2.54381   2.58551   2.61417   2.65066   2.66843
  Beta virt. eigenvalues --    2.73516   2.74201   2.77196   2.80151   2.81738
  Beta virt. eigenvalues --    2.85606   2.86851   2.89392   2.92577   2.93547
  Beta virt. eigenvalues --    2.95575   2.98483   3.00590   3.03695   3.06176
  Beta virt. eigenvalues --    3.07505   3.10827   3.11917   3.15533   3.16958
  Beta virt. eigenvalues --    3.20670   3.24893   3.25431   3.25954   3.27234
  Beta virt. eigenvalues --    3.29547   3.32540   3.36574   3.43142   3.44715
  Beta virt. eigenvalues --    3.45816   3.46436   3.48166   3.52103   3.54093
  Beta virt. eigenvalues --    3.57165   3.58298   3.62473   3.65114   3.69437
  Beta virt. eigenvalues --    3.70037   3.71983   3.74439   3.75512   3.79096
  Beta virt. eigenvalues --    3.80660   3.82654   3.83755   3.85927   3.88957
  Beta virt. eigenvalues --    3.90164   3.94033   3.95543   3.96832   4.01029
  Beta virt. eigenvalues --    4.02325   4.04548   4.06757   4.09953   4.10565
  Beta virt. eigenvalues --    4.11756   4.14608   4.20726   4.21702   4.26740
  Beta virt. eigenvalues --    4.30783   4.34172   4.37421   4.40985   4.42422
  Beta virt. eigenvalues --    4.44374   4.46960   4.59035   4.63864   4.67868
  Beta virt. eigenvalues --    4.72766   4.78579   4.81653   4.83400   4.86085
  Beta virt. eigenvalues --    4.87149   4.92401   4.94793   4.96597   4.98776
  Beta virt. eigenvalues --    5.03280   5.03745   5.06588   5.10901   5.16719
  Beta virt. eigenvalues --    5.20955   5.21793   5.24619   5.26412   5.32043
  Beta virt. eigenvalues --    5.33828   5.36751   5.41730   5.43617   5.44805
  Beta virt. eigenvalues --    5.57692   5.62941   5.78527   5.83932   5.87791
  Beta virt. eigenvalues --    5.91910   5.97882   6.09594   6.15423   6.32666
  Beta virt. eigenvalues --    6.35729   6.37347   6.43883   6.51936   6.57410
  Beta virt. eigenvalues --    6.59670   6.64887   6.69604   6.83540   7.08653
  Beta virt. eigenvalues --    7.18540   7.33955   7.61736   9.53386  10.97115
  Beta virt. eigenvalues --   11.20843  13.21094  13.75393
          Condensed to atoms (all electrons):
               1          2          3          4          5          6
     1  C    5.088454   0.413733   0.403792   0.001662   0.488976  -0.049366
     2  H    0.413733   0.545459  -0.036092   0.000051  -0.047296  -0.006012
     3  H    0.403792  -0.036092   0.558149   0.000077  -0.041600   0.006329
     4  H    0.001662   0.000051   0.000077   0.475429  -0.000944  -0.001028
     5  C    0.488976  -0.047296  -0.041600  -0.000944   4.887525   0.413951
     6  H   -0.049366  -0.006012   0.006329  -0.001028   0.413951   0.533051
     7  C   -0.054741   0.007332  -0.006692  -0.000533   0.334834  -0.023834
     8  H   -0.007426  -0.000018   0.005462  -0.000035  -0.031924   0.005976
     9  H    0.007148  -0.000300  -0.000060   0.000128  -0.041320  -0.005026
    10  H   -0.000318  -0.000392   0.000069   0.000027  -0.032748  -0.002016
    11  O    0.004737   0.004124   0.000095   0.329066  -0.039158   0.010616
    12  O   -0.014187  -0.001457   0.000195  -0.031694   0.061180  -0.018743
               7          8          9         10         11         12
     1  C   -0.054741  -0.007426   0.007148  -0.000318   0.004737  -0.014187
     2  H    0.007332  -0.000018  -0.000300  -0.000392   0.004124  -0.001457
     3  H   -0.006692   0.005462  -0.000060   0.000069   0.000095   0.000195
     4  H   -0.000533  -0.000035   0.000128   0.000027   0.329066  -0.031694
     5  C    0.334834  -0.031924  -0.041320  -0.032748  -0.039158   0.061180
     6  H   -0.023834   0.005976  -0.005026  -0.002016   0.010616  -0.018743
     7  C    4.856566   0.400494   0.393453   0.391699   0.002917  -0.027278
     8  H    0.400494   0.589264  -0.027589  -0.027445  -0.000075  -0.000782
     9  H    0.393453  -0.027589   0.578961  -0.028816  -0.000357   0.012776
    10  H    0.391699  -0.027445  -0.028816   0.597068  -0.000174   0.002199
    11  O    0.002917  -0.000075  -0.000357  -0.000174   7.803272   0.064663
    12  O   -0.027278  -0.000782   0.012776   0.002199   0.064663   8.166227
          Atomic-Atomic Spin Densities.
               1          2          3          4          5          6
     1  C    0.561709   0.006410   0.005263   0.002393   0.026895  -0.001659
     2  H    0.006410  -0.027079   0.003422   0.000125   0.000470   0.000633
     3  H    0.005263   0.003422  -0.025312   0.000027   0.000071  -0.000023
     4  H    0.002393   0.000125   0.000027  -0.002719   0.000854   0.000168
     5  C    0.026895   0.000470   0.000071   0.000854  -0.153846   0.001367
     6  H   -0.001659   0.000633  -0.000023   0.000168   0.001367   0.010095
     7  C   -0.004738  -0.000214   0.000600   0.000005   0.008698   0.000842
     8  H    0.000122   0.000009  -0.000076  -0.000000   0.000123  -0.000067
     9  H   -0.000474  -0.000029  -0.000032  -0.000026   0.004983  -0.000346
    10  H    0.000117   0.000045   0.000019  -0.000000   0.001678   0.000384
    11  O    0.009752   0.000409   0.000049   0.001639   0.008013   0.001560
    12  O   -0.052102  -0.001431  -0.000540  -0.002589  -0.029529  -0.006420
               7          8          9         10         11         12
     1  C   -0.004738   0.000122  -0.000474   0.000117   0.009752  -0.052102
     2  H   -0.000214   0.000009  -0.000029   0.000045   0.000409  -0.001431
     3  H    0.000600  -0.000076  -0.000032   0.000019   0.000049  -0.000540
     4  H    0.000005  -0.000000  -0.000026  -0.000000   0.001639  -0.002589
     5  C    0.008698   0.000123   0.004983   0.001678   0.008013  -0.029529
     6  H    0.000842  -0.000067  -0.000346   0.000384   0.001560  -0.006420
     7  C    0.004418  -0.000108   0.001845  -0.001572   0.000172  -0.003341
     8  H   -0.000108  -0.000868   0.000073   0.000306  -0.000004   0.000180
     9  H    0.001845   0.000073  -0.009255   0.002297   0.000067  -0.002564
    10  H   -0.001572   0.000306   0.002297  -0.008080   0.000013  -0.000075
    11  O    0.000172  -0.000004   0.000067   0.000013   0.140626  -0.065517
    12  O   -0.003341   0.000180  -0.002564  -0.000075  -0.065517   0.673064
 Mulliken charges and spin densities:
               1          2
     1  C   -0.282464   0.553687
     2  H    0.120867  -0.017228
     3  H    0.110275  -0.016532
     4  H    0.227795  -0.000122
     5  C    0.048524  -0.130224
     6  H    0.136102   0.006535
     7  C   -0.274219   0.006607
     8  H    0.094098  -0.000311
     9  H    0.111003  -0.003462
    10  H    0.100846  -0.004868
    11  O   -0.179727   0.096780
    12  O   -0.213100   0.509138
 Sum of Mulliken charges =  -0.00000   1.00000
 Mulliken charges and spin densities with hydrogens summed into heavy atoms:
               1          2
     1  C   -0.051323   0.519927
     5  C    0.184626  -0.123689
     7  C    0.031728  -0.002033
    11  O    0.048068   0.096657
    12  O   -0.213100   0.509138
 APT charges:
               1
     1  C   -0.717869
     2  H    0.379962
     3  H    0.376586
     4  H    0.511922
     5  C   -0.233358
     6  H    0.314133
     7  C   -1.009614
     8  H    0.297647
     9  H    0.289568
    10  H    0.445240
    11  O   -0.496333
    12  O   -0.157883
 Sum of APT charges =  -0.00000
 APT charges with hydrogens summed into heavy atoms:
               1
     1  C    0.038679
     5  C    0.080775
     7  C    0.022841
    11  O    0.015589
    12  O   -0.157883
 Electronic spatial extent (au):  <R**2>=            493.7893
 Charge=             -0.0000 electrons
 Dipole moment (field-independent basis, Debye):
    X=             -0.3995    Y=              1.3858    Z=             -0.4217  Tot=              1.5026
 Quadrupole moment (field-independent basis, Debye-Ang):
   XX=            -28.6575   YY=            -30.9292   ZZ=            -30.6667
   XY=              3.7250   XZ=             -1.8215   YZ=             -1.1424
 Traceless Quadrupole moment (field-independent basis, Debye-Ang):
   XX=              1.4270   YY=             -0.8448   ZZ=             -0.5822
   XY=              3.7250   XZ=             -1.8215   YZ=             -1.1424
 Octapole moment (field-independent basis, Debye-Ang**2):
  XXX=             22.1845  YYY=             -2.1170  ZZZ=             -0.5396  XYY=              6.0703
  XXY=              3.5759  XXZ=             -7.4713  XZZ=              3.7619  YZZ=             -0.4960
  YYZ=             -0.7519  XYZ=              0.2796
 Hexadecapole moment (field-independent basis, Debye-Ang**3):
 XXXX=           -349.1829 YYYY=           -185.5718 ZZZZ=            -62.4381 XXXY=             16.0871
 XXXZ=            -18.1534 YYYX=              2.5728 YYYZ=             -0.2672 ZZZX=              1.0256
 ZZZY=             -0.9622 XXYY=            -96.7928 XXZZ=            -70.5560 YYZZ=            -42.6480
 XXYZ=             -4.1394 YYXZ=              1.7605 ZZXY=             -0.2244
 N-N= 1.786634926134D+02 E-N=-9.873685593761D+02  KE= 2.672829507316D+02
  Exact polarizability:   0.000   0.000   0.000   0.000   0.000   0.000
 Approx polarizability:  98.526 -17.791  88.877  -0.525  -1.223  59.458
                          Isotropic Fermi Contact Couplings
        Atom                 a.u.       MegaHertz       Gauss      10(-4) cm-1
     1  C(13)              0.01747      19.63604       7.00663       6.54988
     2  H(1)              -0.00722     -32.29397     -11.52329     -10.77211
     3  H(1)              -0.00700     -31.29612     -11.16723     -10.43926
     4  H(1)              -0.00198      -8.85788      -3.16071      -2.95467
     5  C(13)             -0.00898     -10.08978      -3.60028      -3.36559
     6  H(1)               0.00419      18.74280       6.68790       6.25193
     7  C(13)              0.00469       5.27435       1.88202       1.75933
     8  H(1)              -0.00053      -2.36904      -0.84533      -0.79023
     9  H(1)              -0.00065      -2.88714      -1.03020      -0.96305
    10  H(1)              -0.00308     -13.78240      -4.91790      -4.59731
    11  O(17)              0.01585      -9.60721      -3.42809      -3.20462
    12  O(17)              0.03927     -23.80632      -8.49469      -7.94093
 --------------------------------------------------------
       Center         ----  Spin Dipole Couplings  ----
                      3XX-RR        3YY-RR        3ZZ-RR
 --------------------------------------------------------
     1   Atom        0.270413     -0.193639     -0.076774
     2   Atom        0.012575      0.007631     -0.020206
     3   Atom        0.004418     -0.031320      0.026902
     4   Atom        0.006197      0.003214     -0.009411
     5   Atom       -0.065581      0.045390      0.020191
     6   Atom       -0.004752      0.003959      0.000792
     7   Atom        0.001279      0.006513     -0.007792
     8   Atom        0.004197      0.000548     -0.004745
     9   Atom        0.004782      0.000387     -0.005169
    10   Atom        0.002710      0.000432     -0.003141
    11   Atom        0.046551      0.175078     -0.221629
    12   Atom       -0.200179      1.137831     -0.937652
 --------------------------------------------------------
                        XY            XZ            YZ
 --------------------------------------------------------
     1   Atom       -0.276908     -0.376755      0.179016
     2   Atom        0.018266      0.001182      0.030458
     3   Atom       -0.021245      0.017079     -0.006021
     4   Atom        0.011121     -0.013435     -0.013054
     5   Atom        0.068833      0.067257     -0.049544
     6   Atom       -0.000975     -0.011203     -0.004033
     7   Atom        0.005045     -0.001111      0.003906
     8   Atom        0.003363      0.002632      0.001899
     9   Atom        0.005034     -0.001999     -0.002281
    10   Atom        0.002758     -0.002212     -0.001506
    11   Atom       -0.406456     -0.180016      0.158938
    12   Atom       -1.559305     -0.527834      0.823040
 --------------------------------------------------------


 ---------------------------------------------------------------------------------
              Anisotropic Spin Dipole Couplings in Principal Axis System
 ---------------------------------------------------------------------------------

       Atom             a.u.   MegaHertz   Gauss  10(-4) cm-1        Axes

              Baa    -0.3241   -43.488   -15.518   -14.506  0.1852  0.9082 -0.3753
     1 C(13)  Bbb    -0.3177   -42.633   -15.213   -14.221  0.5937  0.2009  0.7792
              Bcc     0.6418    86.121    30.730    28.727  0.7831 -0.3671 -0.5020
 
              Baa    -0.0413   -22.060    -7.872    -7.358  0.1741 -0.5660  0.8058
     2 H(1)   Bbb     0.0036     1.898     0.677     0.633  0.8164 -0.3746 -0.4395
              Bcc     0.0378    20.162     7.194     6.725  0.5506  0.7344  0.3969
 
              Baa    -0.0413   -22.015    -7.855    -7.343  0.4302  0.9023 -0.0281
     3 H(1)   Bbb     0.0015     0.820     0.293     0.274  0.7295 -0.3658 -0.5780
              Bcc     0.0397    21.195     7.563     7.070  0.5318 -0.2282  0.8155
 
              Baa    -0.0194   -10.347    -3.692    -3.452  0.3073  0.3579  0.8817
     4 H(1)   Bbb    -0.0065    -3.448    -1.230    -1.150 -0.6899  0.7219 -0.0526
              Bcc     0.0259    13.796     4.923     4.602  0.6554  0.5922 -0.4688
 
              Baa    -0.1407   -18.875    -6.735    -6.296  0.7879 -0.4131 -0.4567
     5 C(13)  Bbb     0.0541     7.265     2.592     2.423  0.5849  0.2698  0.7649
              Bcc     0.0865    11.610     4.143     3.873  0.1928  0.8698 -0.4542
 
              Baa    -0.0141    -7.531    -2.687    -2.512  0.7624  0.1798  0.6216
     6 H(1)   Bbb     0.0035     1.862     0.664     0.621 -0.3735  0.9067  0.1959
              Bcc     0.0106     5.669     2.023     1.891 -0.5284 -0.3816  0.7584
 
              Baa    -0.0094    -1.257    -0.448    -0.419  0.2399 -0.3031  0.9223
     7 C(13)  Bbb    -0.0007    -0.089    -0.032    -0.030  0.8450 -0.4025 -0.3521
              Bcc     0.0100     1.345     0.480     0.449  0.4779  0.8638  0.1596
 
              Baa    -0.0056    -3.013    -1.075    -1.005 -0.1923 -0.1907  0.9626
     8 H(1)   Bbb    -0.0014    -0.766    -0.273    -0.256 -0.5324  0.8443  0.0609
              Bcc     0.0071     3.779     1.348     1.261  0.8243  0.5008  0.2638
 
              Baa    -0.0060    -3.196    -1.141    -1.066  0.0277  0.3172  0.9480
     9 H(1)   Bbb    -0.0027    -1.443    -0.515    -0.481 -0.5850  0.7741 -0.2419
              Bcc     0.0087     4.639     1.655     1.548  0.8105  0.5479 -0.2070
 
              Baa    -0.0040    -2.124    -0.758    -0.708  0.2443  0.1729  0.9542
    10 H(1)   Bbb    -0.0014    -0.754    -0.269    -0.251 -0.5587  0.8294 -0.0073
              Bcc     0.0054     2.878     1.027     0.960  0.7926  0.5313 -0.2992
 
              Baa    -0.3286    23.777     8.484     7.931  0.6901  0.3585  0.6287
    11 O(17)  Bbb    -0.2633    19.054     6.799     6.356 -0.3537 -0.5908  0.7252
              Bcc     0.5919   -42.831   -15.283   -14.287 -0.6314  0.7228  0.2809
 
              Baa    -1.2364    89.462    31.922    29.841  0.5899  0.5816 -0.5601
    12 O(17)  Bbb    -1.2116    87.668    31.282    29.243  0.6110  0.1320  0.7806
              Bcc     2.4479  -177.130   -63.204   -59.084 -0.5280  0.8027  0.2774
 

 ---------------------------------------------------------------------------------

 Calling FoFJK, ICntrl=    100147 FMM=F ISym2X=0 I1Cent= 0 IOpClX= 1 NMat=1 NMatS=1 NMatT=0.
 ***** Axes restored to original set *****
 -------------------------------------------------------------------
 Center     Atomic                   Forces (Hartrees/Bohr)
 Number     Number              X              Y              Z
 -------------------------------------------------------------------
      1        6          -0.001952623    0.000852644    0.000775803
      2        1          -0.000688124   -0.000799937   -0.000984508
      3        1           0.000923536    0.000224130    0.001094731
      4        1           0.000499274    0.001040854   -0.001950560
      5        6          -0.002974248    0.002156517    0.000983220
      6        1          -0.001497568    0.000034585   -0.001732443
      7        6           0.000464863    0.000388451    0.000798452
      8        1          -0.000352180   -0.000471440    0.001064267
      9        1          -0.001073803    0.000548007   -0.000114577
     10        1           0.000135182   -0.000532294   -0.000480351
     11        8           0.011675900    0.001532718    0.007181173
     12        8          -0.005160209   -0.004974235   -0.006635208
 -------------------------------------------------------------------
 Cartesian Forces:  Max     0.011675900 RMS     0.003001370
 FormGI is forming the generalized inverse of G from B-inverse, IUseBI=4.

 GradGradGradGradGradGradGradGradGradGradGradGradGradGradGradGradGradGrad
 Berny optimization.
 Internal  Forces:  Max     0.013271163 RMS     0.002488609
 Search for a saddle point.
 Step number   1 out of a maximum of   57
 All quantities printed in internal units (Hartrees-Bohrs-Radians)
 Swapping is turned off.
 Second derivative matrix not updated -- analytic derivatives used.
 ITU=  0
     Eigenvalues ---   -0.04384   0.00107   0.00327   0.01150   0.01933
     Eigenvalues ---    0.02132   0.03351   0.03502   0.04404   0.04488
     Eigenvalues ---    0.08158   0.08747   0.10309   0.11037   0.12372
     Eigenvalues ---    0.13093   0.13988   0.15833   0.16975   0.19445
     Eigenvalues ---    0.31036   0.32989   0.33398   0.34276   0.34695
     Eigenvalues ---    0.35315   0.35625   0.39218   0.47058   0.49935
 Eigenvectors required to have negative eigenvalues:
                          R7        R3        D1        R11       D7
   1                    0.90486  -0.15979  -0.12788  -0.12151  -0.11356
                          D5        D9        D8        D11       D12
   1                    0.11232  -0.11202  -0.10614   0.10501   0.09913
 RFO step:  Lambda0=5.180631434D-04 Lambda=-1.32874356D-03.
 Linear search not attempted -- option 19 set.
 Iteration  1 RMS(Cart)=  0.04299522 RMS(Int)=  0.00154478
 Iteration  2 RMS(Cart)=  0.00222077 RMS(Int)=  0.00020527
 Iteration  3 RMS(Cart)=  0.00000531 RMS(Int)=  0.00020525
 Iteration  4 RMS(Cart)=  0.00000000 RMS(Int)=  0.00020525
 Variable       Old X    -DE/DX   Delta X   Delta X   Delta X     New X
                                 (Linear)    (Quad)   (Total)
    R1        2.04596  -0.00136   0.00000  -0.00382  -0.00382   2.04214
    R2        2.04847  -0.00133   0.00000  -0.00402  -0.00402   2.04444
    R3        2.59330  -0.00019   0.00000   0.01456   0.01456   2.60786
    R4        1.82584   0.00218   0.00000   0.00244   0.00244   1.82828
    R5        2.05131  -0.00215   0.00000  -0.00560  -0.00560   2.04571
    R6        2.83486   0.00021   0.00000  -0.00055  -0.00055   2.83431
    R7        3.65270   0.00724   0.00000  -0.05940  -0.05940   3.59330
    R8        2.06222  -0.00101   0.00000  -0.00253  -0.00253   2.05969
    R9        2.06041  -0.00092   0.00000  -0.00292  -0.00292   2.05749
   R10        2.06519  -0.00041   0.00000  -0.00083  -0.00083   2.06436
   R11        2.58563   0.01327   0.00000   0.04914   0.04914   2.63477
    A1        2.05752  -0.00066   0.00000  -0.00464  -0.00472   2.05280
    A2        2.11560   0.00018   0.00000  -0.00051  -0.00060   2.11501
    A3        2.10658   0.00047   0.00000   0.00330   0.00322   2.10981
    A4        2.05741   0.00044   0.00000  -0.00582  -0.00657   2.05083
    A5        2.12785  -0.00004   0.00000  -0.00556  -0.00637   2.12148
    A6        1.76068   0.00084   0.00000   0.01872   0.01874   1.77942
    A7        2.03277  -0.00075   0.00000  -0.01262  -0.01334   2.01943
    A8        1.60741  -0.00043   0.00000   0.01609   0.01630   1.62371
    A9        1.67674   0.00043   0.00000   0.02723   0.02734   1.70408
   A10        1.93376   0.00066   0.00000   0.00765   0.00763   1.94139
   A11        1.92622   0.00082   0.00000   0.00552   0.00550   1.93172
   A12        1.92007   0.00048   0.00000  -0.00124  -0.00124   1.91883
   A13        1.90017  -0.00057   0.00000  -0.00128  -0.00133   1.89884
   A14        1.89205  -0.00068   0.00000  -0.00632  -0.00631   1.88574
   A15        1.89065  -0.00078   0.00000  -0.00481  -0.00480   1.88584
   A16        1.81589  -0.00107   0.00000  -0.02127  -0.02127   1.79462
   A17        1.91438   0.00589   0.00000   0.01176   0.01176   1.92614
    D1        0.23272   0.00056   0.00000   0.04755   0.04754   0.28026
    D2        2.98082  -0.00062   0.00000  -0.02460  -0.02458   2.95624
    D3       -1.48243   0.00047   0.00000   0.01988   0.01987  -1.46256
    D4       -3.00027   0.00035   0.00000   0.02300   0.02300  -2.97728
    D5       -0.25217  -0.00084   0.00000  -0.04915  -0.04913  -0.30130
    D6        1.56777   0.00026   0.00000  -0.00467  -0.00468   1.56309
    D7        0.50623   0.00061   0.00000   0.04727   0.04715   0.55338
    D8        2.61224   0.00087   0.00000   0.05433   0.05424   2.66648
    D9       -1.58561   0.00072   0.00000   0.05106   0.05095  -1.53466
   D10       -3.02364  -0.00031   0.00000  -0.02251  -0.02236  -3.04600
   D11       -0.91763  -0.00005   0.00000  -0.01545  -0.01527  -0.93290
   D12        1.16770  -0.00020   0.00000  -0.01872  -0.01856   1.14915
   D13       -1.35864  -0.00069   0.00000   0.00758   0.00751  -1.35113
   D14        0.74737  -0.00043   0.00000   0.01465   0.01460   0.76198
   D15        2.83270  -0.00058   0.00000   0.01138   0.01132   2.84402
   D16        1.29805   0.00072   0.00000   0.09849   0.09835   1.39639
   D17       -0.77745   0.00026   0.00000   0.09785   0.09792  -0.67953
   D18       -2.81773   0.00103   0.00000   0.10579   0.10586  -2.71187
   D19       -1.87390  -0.00026   0.00000  -0.02173  -0.02173  -1.89563
         Item               Value     Threshold  Converged?
 Maximum Force            0.013271     0.000450     NO 
 RMS     Force            0.002489     0.000300     NO 
 Maximum Displacement     0.121395     0.001800     NO 
 RMS     Displacement     0.042778     0.001200     NO 
 Predicted change in Energy=-4.311293D-04
 GradGradGradGradGradGradGradGradGradGradGradGradGradGradGradGradGradGrad

                          Input orientation:                          
 ---------------------------------------------------------------------
 Center     Atomic      Atomic             Coordinates (Angstroms)
 Number     Number       Type             X           Y           Z
 ---------------------------------------------------------------------
      1          6           0       -0.656413    1.468451   -0.147203
      2          1           0       -0.045101    2.253009    0.275387
      3          1           0       -1.175956    1.680686   -1.072126
      4          1           0        2.431964    0.405912   -0.406898
      5          6           0       -0.667823    0.200204    0.396736
      6          1           0       -0.266862    0.080826    1.395173
      7          6           0       -1.676386   -0.826155   -0.026293
      8          1           0       -1.958920   -0.694875   -1.070761
      9          1           0       -1.280487   -1.831696    0.106292
     10          1           0       -2.578850   -0.734689    0.582443
     11          8           0        2.020286   -0.189909    0.234621
     12          8           0        0.856219   -0.591924   -0.419053
 ---------------------------------------------------------------------
                    Distance matrix (angstroms):
                    1          2          3          4          5
     1  C    0.000000
     2  H    1.080655   0.000000
     3  H    1.081874   1.849913   0.000000
     4  H    3.276355   3.164354   3.883898   0.000000
     5  C    1.380019   2.148608   2.146527   3.208866   0.000000
     6  H    2.110966   2.453870   3.077916   3.261412   1.082542
     7  C    2.513997   3.497621   2.761964   4.305972   1.499855
     8  H    2.688766   3.763620   2.501264   4.575184   2.149801
     9  H    3.368190   4.270783   3.706268   4.364923   2.142039
    10  H    3.013632   3.929441   3.246497   5.233357   2.135541
    11  O    3.171855   3.199271   3.927172   0.967486   2.721102
    12  O    2.570429   3.064029   3.117851   1.865153   1.901495
                    6          7          8          9         10
     6  H    0.000000
     7  C    2.197712   0.000000
     8  H    3.089596   1.089942   0.000000
     9  H    2.519205   1.088774   1.771465   0.000000
    10  H    2.582805   1.092412   1.766063   1.765188   0.000000
    11  O    2.578997   3.760089   4.218186   3.688772   4.644331
    12  O    2.237258   2.573561   2.891424   2.525577   3.580932
                   11         12
    11  O    0.000000
    12  O    1.394258   0.000000
 Stoichiometry    C3H7O2(2)
 Framework group  C1[X(C3H7O2)]
 Deg. of freedom    30
 Full point group                 C1      NOp   1
 Largest Abelian subgroup         C1      NOp   1
 Largest concise Abelian subgroup C1      NOp   1
                         Standard orientation:                         
 ---------------------------------------------------------------------
 Center     Atomic      Atomic             Coordinates (Angstroms)
 Number     Number       Type             X           Y           Z
 ---------------------------------------------------------------------
      1          6           0       -0.688859    1.457311   -0.124651
      2          1           0       -0.089716    2.250730    0.298824
      3          1           0       -1.219103    1.665554   -1.044394
      4          1           0        2.417442    0.456335   -0.413525
      5          6           0       -0.671885    0.185529    0.410824
      6          1           0       -0.261452    0.067350    1.405548
      7          6           0       -1.663541   -0.857307   -0.011877
      8          1           0       -1.956136   -0.724639   -1.053395
      9          1           0       -1.247394   -1.855868    0.111120
     10          1           0       -2.563149   -0.787291    0.603888
     11          8           0        2.021990   -0.151532    0.226900
     12          8           0        0.861162   -0.571640   -0.421130
 ---------------------------------------------------------------------
 Rotational constants (GHZ):           7.9547642           3.3314716           2.6072562
 Standard basis: CC-pVTZ+d (5D, 7F)
 There are   280 symmetry adapted cartesian basis functions of A   symmetry.
 There are   248 symmetry adapted basis functions of A   symmetry.
   248 basis functions,   379 primitive gaussians,   280 cartesian basis functions
    21 alpha electrons       20 beta electrons
       nuclear repulsion energy       177.9890023637 Hartrees.
 NAtoms=   12 NActive=   12 NUniq=   12 SFac= 1.00D+00 NAtFMM=   60 NAOKFM=F Big=F
 Integral buffers will be    131072 words long.
 Raffenetti 2 integral format.
 Two-electron integral symmetry is turned on.
 One-electron integrals computed using PRISM.
 NBasis=   248 RedAO= T EigKep=  5.21D-04  NBF=   248
 NBsUse=   248 1.00D-06 EigRej= -1.00D+00 NBFU=   248
 Initial guess from the checkpoint file:  "QOOHisop-OOH-elim-TS-b3lyp-c.chk"
 B after Tr=     0.000000    0.000000   -0.000000
         Rot=    0.999936   -0.006703   -0.003093   -0.008551 Ang=  -1.29 deg.
 Initial guess <Sx>= 0.0000 <Sy>= 0.0000 <Sz>= 0.5000 <S**2>= 0.7784 S= 0.5141
 ExpMin= 1.03D-01 ExpMax= 1.53D+04 ExpMxC= 5.22D+02 IAcc=3 IRadAn=         5 AccDes= 0.00D+00
 Harris functional with IExCor=  402 and IRadAn=       5 diagonalized for initial guess.
 HarFok:  IExCor=  402 AccDes= 0.00D+00 IRadAn=         5 IDoV= 1 UseB2=F ITyADJ=14
 ICtDFT=  3500011 ScaDFX=  1.000000  1.000000  1.000000  1.000000
 FoFCou: FMM=F IPFlag=           0 FMFlag=      100000 FMFlg1=           0
         NFxFlg=           0 DoJE=T BraDBF=F KetDBF=T FulRan=T
         wScrn=  0.000000 ICntrl=       500 IOpCl=  0 I1Cent=   200000004 NGrid=           0
         NMat0=    1 NMatS0=      1 NMatT0=    0 NMatD0=    1 NMtDS0=    0 NMtDT0=    0
 Petite list used in FoFCou.
 Keep R1 and R2 ints in memory in canonical form, NReq=980075672.
 Requested convergence on RMS density matrix=1.00D-08 within 128 cycles.
 Requested convergence on MAX density matrix=1.00D-06.
 Requested convergence on             energy=1.00D-06.
 No special actions if energy rises.
 Integral accuracy reduced to 1.0D-05 until final iterations.
 Initial convergence to 1.0D-05 achieved.  Increase integral accuracy.
 SCF Done:  E(UB3LYP) =  -268.908060680     A.U. after   16 cycles
            NFock= 16  Conv=0.43D-08     -V/T= 2.0062
 <Sx>= 0.0000 <Sy>= 0.0000 <Sz>= 0.5000 <S**2>= 0.7788 S= 0.5143
 <L.S>= 0.000000000000E+00
 Annihilation of the first spin contaminant:
 S**2 before annihilation     0.7788,   after     0.7502
 Calling FoFJK, ICntrl=      2127 FMM=F ISym2X=0 I1Cent= 0 IOpClX= 1 NMat=1 NMatS=1 NMatT=0.
 ***** Axes restored to original set *****
 -------------------------------------------------------------------
 Center     Atomic                   Forces (Hartrees/Bohr)
 Number     Number              X              Y              Z
 -------------------------------------------------------------------
      1        6          -0.000189517    0.000277977    0.000040482
      2        1           0.000024202    0.000013765   -0.000027879
      3        1           0.000006168    0.000022355   -0.000030313
      4        1           0.000020879    0.000071142   -0.000098759
      5        6           0.000172320   -0.000243055   -0.000160026
      6        1          -0.000005555    0.000057781    0.000070632
      7        6           0.000010559   -0.000090131    0.000095467
      8        1           0.000000573   -0.000029365   -0.000005914
      9        1          -0.000047496   -0.000014411    0.000029373
     10        1          -0.000014813    0.000016285   -0.000012838
     11        8           0.000813826    0.000002288    0.000687017
     12        8          -0.000791147   -0.000084630   -0.000587241
 -------------------------------------------------------------------
 Cartesian Forces:  Max     0.000813826 RMS     0.000257676

 GradGradGradGradGradGradGradGradGradGradGradGradGradGradGradGradGradGrad
 Berny optimization.
 FormGI is forming the generalized inverse of G from B-inverse, IUseBI=4.
 Internal  Forces:  Max     0.000993886 RMS     0.000164996
 Search for a saddle point.
 Step number   2 out of a maximum of   57
 All quantities printed in internal units (Hartrees-Bohrs-Radians)
 Swapping is turned off.
 Update second derivatives using D2CorX and points    1    2
 ITU=  0  0
     Eigenvalues ---   -0.04445   0.00112   0.00356   0.01150   0.01937
     Eigenvalues ---    0.02129   0.03363   0.03513   0.04404   0.04488
     Eigenvalues ---    0.08148   0.08740   0.10309   0.11032   0.12372
     Eigenvalues ---    0.13091   0.13987   0.15833   0.16974   0.19376
     Eigenvalues ---    0.31035   0.32989   0.33397   0.34276   0.34695
     Eigenvalues ---    0.35315   0.35625   0.39034   0.47055   0.49927
 Eigenvectors required to have negative eigenvalues:
                          R7        R3        D1        R11       D7
   1                    0.90376  -0.16088  -0.12779  -0.12668  -0.11354
                          D9        D5        D8        D11       D4
   1                   -0.11211   0.11198  -0.10639   0.10366  -0.09868
 RFO step:  Lambda0=7.023005971D-07 Lambda=-3.18216876D-05.
 Linear search not attempted -- option 19 set.
 Iteration  1 RMS(Cart)=  0.01779151 RMS(Int)=  0.00035290
 Iteration  2 RMS(Cart)=  0.00050761 RMS(Int)=  0.00000133
 Iteration  3 RMS(Cart)=  0.00000034 RMS(Int)=  0.00000132
 Variable       Old X    -DE/DX   Delta X   Delta X   Delta X     New X
                                 (Linear)    (Quad)   (Total)
    R1        2.04214   0.00001   0.00000   0.00009   0.00009   2.04223
    R2        2.04444   0.00003   0.00000   0.00008   0.00008   2.04453
    R3        2.60786   0.00029   0.00000  -0.00039  -0.00039   2.60747
    R4        1.82828   0.00012   0.00000   0.00025   0.00025   1.82853
    R5        2.04571   0.00006   0.00000   0.00018   0.00018   2.04589
    R6        2.83431   0.00008   0.00000   0.00012   0.00012   2.83444
    R7        3.59330   0.00004   0.00000   0.00748   0.00748   3.60078
    R8        2.05969   0.00000   0.00000   0.00014   0.00014   2.05983
    R9        2.05749  -0.00000   0.00000  -0.00033  -0.00033   2.05716
   R10        2.06436   0.00001   0.00000   0.00016   0.00016   2.06452
   R11        2.63477   0.00099   0.00000   0.00344   0.00344   2.63821
    A1        2.05280  -0.00003   0.00000  -0.00049  -0.00049   2.05231
    A2        2.11501   0.00001   0.00000  -0.00014  -0.00014   2.11487
    A3        2.10981   0.00001   0.00000   0.00057   0.00057   2.11038
    A4        2.05083  -0.00002   0.00000  -0.00023  -0.00023   2.05060
    A5        2.12148   0.00005   0.00000   0.00165   0.00165   2.12314
    A6        1.77942   0.00010   0.00000  -0.00436  -0.00436   1.77506
    A7        2.01943  -0.00005   0.00000  -0.00005  -0.00005   2.01938
    A8        1.62371   0.00000   0.00000  -0.00124  -0.00124   1.62247
    A9        1.70408  -0.00005   0.00000   0.00251   0.00251   1.70659
   A10        1.94139   0.00003   0.00000   0.00001   0.00001   1.94139
   A11        1.93172   0.00005   0.00000   0.00083   0.00083   1.93255
   A12        1.91883  -0.00002   0.00000  -0.00045  -0.00045   1.91838
   A13        1.89884  -0.00002   0.00000  -0.00017  -0.00017   1.89867
   A14        1.88574  -0.00001   0.00000  -0.00075  -0.00075   1.88499
   A15        1.88584  -0.00002   0.00000   0.00051   0.00051   1.88635
   A16        1.79462  -0.00007   0.00000  -0.00149  -0.00149   1.79313
   A17        1.92614   0.00013   0.00000  -0.00508  -0.00508   1.92106
    D1        0.28026   0.00006   0.00000  -0.00338  -0.00338   0.27688
    D2        2.95624  -0.00002   0.00000  -0.00011  -0.00011   2.95613
    D3       -1.46256   0.00001   0.00000   0.00060   0.00060  -1.46196
    D4       -2.97728   0.00004   0.00000  -0.00398  -0.00398  -2.98125
    D5       -0.30130  -0.00005   0.00000  -0.00071  -0.00071  -0.30201
    D6        1.56309  -0.00002   0.00000   0.00000  -0.00000   1.56309
    D7        0.55338   0.00007   0.00000   0.01800   0.01800   0.57138
    D8        2.66648   0.00009   0.00000   0.01836   0.01836   2.68484
    D9       -1.53466   0.00008   0.00000   0.01923   0.01923  -1.51543
   D10       -3.04600  -0.00000   0.00000   0.02116   0.02116  -3.02485
   D11       -0.93290   0.00001   0.00000   0.02152   0.02152  -0.91138
   D12        1.14915   0.00000   0.00000   0.02238   0.02238   1.17153
   D13       -1.35113  -0.00004   0.00000   0.02101   0.02101  -1.33012
   D14        0.76198  -0.00002   0.00000   0.02137   0.02137   0.78335
   D15        2.84402  -0.00003   0.00000   0.02224   0.02224   2.86626
   D16        1.39639   0.00016   0.00000   0.04690   0.04691   1.44330
   D17       -0.67953   0.00016   0.00000   0.04825   0.04825  -0.63129
   D18       -2.71187   0.00022   0.00000   0.04820   0.04820  -2.66367
   D19       -1.89563   0.00001   0.00000  -0.01226  -0.01226  -1.90789
         Item               Value     Threshold  Converged?
 Maximum Force            0.000994     0.000450     NO 
 RMS     Force            0.000165     0.000300     YES
 Maximum Displacement     0.055260     0.001800     NO 
 RMS     Displacement     0.017822     0.001200     NO 
 Predicted change in Energy=-1.573633D-05
 GradGradGradGradGradGradGradGradGradGradGradGradGradGradGradGradGradGrad

                          Input orientation:                          
 ---------------------------------------------------------------------
 Center     Atomic      Atomic             Coordinates (Angstroms)
 Number     Number       Type             X           Y           Z
 ---------------------------------------------------------------------
      1          6           0       -0.665639    1.473171   -0.147926
      2          1           0       -0.052873    2.258332    0.271546
      3          1           0       -1.194808    1.687478   -1.066947
      4          1           0        2.448304    0.397133   -0.378720
      5          6           0       -0.666752    0.202999    0.391098
      6          1           0       -0.252118    0.080987    1.383720
      7          6           0       -1.674878   -0.827148   -0.023913
      8          1           0       -1.955872   -0.705511   -1.070041
      9          1           0       -1.280293   -1.831665    0.118574
     10          1           0       -2.578570   -0.728739    0.582063
     11          8           0        2.018186   -0.212765    0.237159
     12          8           0        0.856984   -0.574431   -0.448295
 ---------------------------------------------------------------------
                    Distance matrix (angstroms):
                    1          2          3          4          5
     1  C    0.000000
     2  H    1.080702   0.000000
     3  H    1.081918   1.849717   0.000000
     4  H    3.302691   3.184775   3.925673   0.000000
     5  C    1.379813   2.148379   2.146722   3.214635   0.000000
     6  H    2.110714   2.453051   3.078189   3.240127   1.082639
     7  C    2.515037   3.498340   2.764368   4.315714   1.499918
     8  H    2.694745   3.769035   2.511100   4.592441   2.149918
     9  H    3.372056   4.272942   3.714449   4.372330   2.142559
    10  H    3.006758   3.924048   3.236068   5.240243   2.135334
    11  O    3.192739   3.224404   3.954104   0.967617   2.721294
    12  O    2.569295   3.061136   3.115896   1.865764   1.905452
                    6          7          8          9         10
     6  H    0.000000
     7  C    2.197814   0.000000
     8  H    3.089061   1.090017   0.000000
     9  H    2.513160   1.088602   1.771280   0.000000
    10  H    2.590499   1.092496   1.765712   1.765443   0.000000
    11  O    2.560307   3.752912   4.212446   3.676256   4.638464
    12  O    2.239634   2.579592   2.883732   2.543606   3.590053
                   11         12
    11  O    0.000000
    12  O    1.396080   0.000000
 Stoichiometry    C3H7O2(2)
 Framework group  C1[X(C3H7O2)]
 Deg. of freedom    30
 Full point group                 C1      NOp   1
 Largest Abelian subgroup         C1      NOp   1
 Largest concise Abelian subgroup C1      NOp   1
                         Standard orientation:                         
 ---------------------------------------------------------------------
 Center     Atomic      Atomic             Coordinates (Angstroms)
 Number     Number       Type             X           Y           Z
 ---------------------------------------------------------------------
      1          6           0       -0.710029    1.455635   -0.121395
      2          1           0       -0.117049    2.255159    0.299381
      3          1           0       -1.250766    1.660642   -1.035792
      4          1           0        2.431530    0.469464   -0.377990
      5          6           0       -0.671937    0.182597    0.409462
      6          1           0       -0.247832    0.066152    1.398745
      7          6           0       -1.653173   -0.873007   -0.006025
      8          1           0       -1.944019   -0.752827   -1.049626
      9          1           0       -1.229522   -1.866846    0.127612
     10          1           0       -2.555476   -0.803956    0.606044
     11          8           0        2.022647   -0.156176    0.236561
     12          8           0        0.867850   -0.546216   -0.444139
 ---------------------------------------------------------------------
 Rotational constants (GHZ):           7.9236647           3.3208465           2.6054329
 Standard basis: CC-pVTZ+d (5D, 7F)
 There are   280 symmetry adapted cartesian basis functions of A   symmetry.
 There are   248 symmetry adapted basis functions of A   symmetry.
   248 basis functions,   379 primitive gaussians,   280 cartesian basis functions
    21 alpha electrons       20 beta electrons
       nuclear repulsion energy       177.8405744406 Hartrees.
 NAtoms=   12 NActive=   12 NUniq=   12 SFac= 1.00D+00 NAtFMM=   60 NAOKFM=F Big=F
 Integral buffers will be    131072 words long.
 Raffenetti 2 integral format.
 Two-electron integral symmetry is turned on.
 One-electron integrals computed using PRISM.
 NBasis=   248 RedAO= T EigKep=  5.23D-04  NBF=   248
 NBsUse=   248 1.00D-06 EigRej= -1.00D+00 NBFU=   248
 Initial guess from the checkpoint file:  "QOOHisop-OOH-elim-TS-b3lyp-c.chk"
 B after Tr=     0.000000   -0.000000    0.000000
         Rot=    0.999991   -0.002066   -0.000288   -0.003758 Ang=  -0.49 deg.
 Initial guess <Sx>= 0.0000 <Sy>= 0.0000 <Sz>= 0.5000 <S**2>= 0.7788 S= 0.5143
 ExpMin= 1.03D-01 ExpMax= 1.53D+04 ExpMxC= 5.22D+02 IAcc=3 IRadAn=         5 AccDes= 0.00D+00
 Harris functional with IExCor=  402 and IRadAn=       5 diagonalized for initial guess.
 HarFok:  IExCor=  402 AccDes= 0.00D+00 IRadAn=         5 IDoV= 1 UseB2=F ITyADJ=14
 ICtDFT=  3500011 ScaDFX=  1.000000  1.000000  1.000000  1.000000
 FoFCou: FMM=F IPFlag=           0 FMFlag=      100000 FMFlg1=           0
         NFxFlg=           0 DoJE=T BraDBF=F KetDBF=T FulRan=T
         wScrn=  0.000000 ICntrl=       500 IOpCl=  0 I1Cent=   200000004 NGrid=           0
         NMat0=    1 NMatS0=      1 NMatT0=    0 NMatD0=    1 NMtDS0=    0 NMtDT0=    0
 Petite list used in FoFCou.
 Keep R1 and R2 ints in memory in canonical form, NReq=980075672.
 Requested convergence on RMS density matrix=1.00D-08 within 128 cycles.
 Requested convergence on MAX density matrix=1.00D-06.
 Requested convergence on             energy=1.00D-06.
 No special actions if energy rises.
 Integral accuracy reduced to 1.0D-05 until final iterations.
 Initial convergence to 1.0D-05 achieved.  Increase integral accuracy.
 SCF Done:  E(UB3LYP) =  -268.908079321     A.U. after   14 cycles
            NFock= 14  Conv=0.66D-08     -V/T= 2.0063
 <Sx>= 0.0000 <Sy>= 0.0000 <Sz>= 0.5000 <S**2>= 0.7786 S= 0.5142
 <L.S>= 0.000000000000E+00
 Annihilation of the first spin contaminant:
 S**2 before annihilation     0.7786,   after     0.7501
 Calling FoFJK, ICntrl=      2127 FMM=F ISym2X=0 I1Cent= 0 IOpClX= 1 NMat=1 NMatS=1 NMatT=0.
 ***** Axes restored to original set *****
 -------------------------------------------------------------------
 Center     Atomic                   Forces (Hartrees/Bohr)
 Number     Number              X              Y              Z
 -------------------------------------------------------------------
      1        6          -0.000066344   -0.000082303    0.000074090
      2        1          -0.000001838   -0.000013798   -0.000010333
      3        1           0.000005845   -0.000002979   -0.000000699
      4        1          -0.000014811   -0.000004193    0.000018908
      5        6          -0.000096643    0.000071863   -0.000103053
      6        1           0.000002577    0.000016758   -0.000030206
      7        6          -0.000012423    0.000043668    0.000042369
      8        1           0.000008477   -0.000001162    0.000002773
      9        1          -0.000002290   -0.000006696    0.000004285
     10        1          -0.000011394   -0.000004683   -0.000001618
     11        8           0.000018214   -0.000123371   -0.000092962
     12        8           0.000170630    0.000106895    0.000096445
 -------------------------------------------------------------------
 Cartesian Forces:  Max     0.000170630 RMS     0.000058244

 GradGradGradGradGradGradGradGradGradGradGradGradGradGradGradGradGradGrad
 Berny optimization.
 FormGI is forming the generalized inverse of G from B-inverse, IUseBI=4.
 Internal  Forces:  Max     0.000304603 RMS     0.000056040
 Search for a saddle point.
 Step number   3 out of a maximum of   57
 All quantities printed in internal units (Hartrees-Bohrs-Radians)
 Swapping is turned off.
 Update second derivatives using D2CorX and points    1    2    3
 ITU=  0  0  0
     Eigenvalues ---   -0.04432   0.00113   0.00311   0.01150   0.01937
     Eigenvalues ---    0.02122   0.03359   0.03496   0.04404   0.04488
     Eigenvalues ---    0.08147   0.08736   0.10308   0.11031   0.12371
     Eigenvalues ---    0.13088   0.13979   0.15820   0.16961   0.19372
     Eigenvalues ---    0.31035   0.32989   0.33397   0.34276   0.34695
     Eigenvalues ---    0.35315   0.35624   0.39037   0.47053   0.49927
 Eigenvectors required to have negative eigenvalues:
                          R7        R3        D1        R11       D5
   1                    0.90491  -0.16098  -0.12786  -0.12615   0.11099
                          D11       D7        D9        D12       D10
   1                    0.10901  -0.10810  -0.10629   0.10348   0.10167
 RFO step:  Lambda0=5.220525990D-07 Lambda=-2.76234010D-06.
 Linear search not attempted -- option 19 set.
 Iteration  1 RMS(Cart)=  0.00498791 RMS(Int)=  0.00002706
 Iteration  2 RMS(Cart)=  0.00003455 RMS(Int)=  0.00000015
 Iteration  3 RMS(Cart)=  0.00000000 RMS(Int)=  0.00000015
 Variable       Old X    -DE/DX   Delta X   Delta X   Delta X     New X
                                 (Linear)    (Quad)   (Total)
    R1        2.04223  -0.00002   0.00000  -0.00004  -0.00004   2.04220
    R2        2.04453  -0.00000   0.00000  -0.00001  -0.00001   2.04452
    R3        2.60747  -0.00012   0.00000   0.00020   0.00020   2.60767
    R4        1.82853  -0.00002   0.00000  -0.00004  -0.00004   1.82849
    R5        2.04589  -0.00003   0.00000  -0.00005  -0.00005   2.04584
    R6        2.83444  -0.00002   0.00000  -0.00008  -0.00008   2.83436
    R7        3.60078   0.00014   0.00000  -0.00218  -0.00218   3.59861
    R8        2.05983  -0.00001   0.00000   0.00002   0.00002   2.05986
    R9        2.05716   0.00001   0.00000  -0.00005  -0.00005   2.05711
   R10        2.06452   0.00001   0.00000   0.00003   0.00003   2.06455
   R11        2.63821  -0.00007   0.00000   0.00024   0.00024   2.63845
    A1        2.05231   0.00000   0.00000  -0.00009  -0.00009   2.05222
    A2        2.11487   0.00000   0.00000  -0.00005  -0.00005   2.11482
    A3        2.11038  -0.00000   0.00000   0.00005   0.00005   2.11043
    A4        2.05060   0.00001   0.00000  -0.00042  -0.00042   2.05017
    A5        2.12314  -0.00003   0.00000  -0.00025  -0.00025   2.12289
    A6        1.77506   0.00003   0.00000   0.00007   0.00007   1.77513
    A7        2.01938   0.00000   0.00000  -0.00007  -0.00007   2.01931
    A8        1.62247  -0.00003   0.00000   0.00029   0.00029   1.62276
    A9        1.70659   0.00003   0.00000   0.00131   0.00131   1.70789
   A10        1.94139  -0.00001   0.00000  -0.00017  -0.00017   1.94123
   A11        1.93255   0.00000   0.00000   0.00017   0.00017   1.93272
   A12        1.91838   0.00001   0.00000   0.00001   0.00001   1.91839
   A13        1.89867   0.00000   0.00000  -0.00011  -0.00011   1.89856
   A14        1.88499  -0.00000   0.00000  -0.00013  -0.00013   1.88486
   A15        1.88635  -0.00001   0.00000   0.00022   0.00022   1.88658
   A16        1.79313   0.00000   0.00000  -0.00010  -0.00010   1.79303
   A17        1.92106   0.00030   0.00000   0.00096   0.00096   1.92203
    D1        0.27688   0.00001   0.00000   0.00070   0.00070   0.27758
    D2        2.95613  -0.00002   0.00000  -0.00112  -0.00112   2.95501
    D3       -1.46196   0.00002   0.00000   0.00045   0.00045  -1.46151
    D4       -2.98125   0.00000   0.00000  -0.00016  -0.00016  -2.98142
    D5       -0.30201  -0.00003   0.00000  -0.00198  -0.00198  -0.30399
    D6        1.56309   0.00001   0.00000  -0.00041  -0.00041   1.56268
    D7        0.57138   0.00003   0.00000   0.00699   0.00699   0.57837
    D8        2.68484   0.00002   0.00000   0.00686   0.00686   2.69171
    D9       -1.51543   0.00002   0.00000   0.00725   0.00725  -1.50818
   D10       -3.02485   0.00000   0.00000   0.00512   0.00512  -3.01973
   D11       -0.91138  -0.00000   0.00000   0.00499   0.00499  -0.90639
   D12        1.17153  -0.00000   0.00000   0.00538   0.00538   1.17691
   D13       -1.33012  -0.00001   0.00000   0.00609   0.00609  -1.32403
   D14        0.78335  -0.00002   0.00000   0.00596   0.00596   0.78931
   D15        2.86626  -0.00002   0.00000   0.00635   0.00635   2.87261
   D16        1.44330   0.00006   0.00000   0.01275   0.01275   1.45605
   D17       -0.63129   0.00005   0.00000   0.01310   0.01310  -0.61819
   D18       -2.66367   0.00004   0.00000   0.01295   0.01295  -2.65072
   D19       -1.90789   0.00002   0.00000  -0.00071  -0.00071  -1.90860
         Item               Value     Threshold  Converged?
 Maximum Force            0.000305     0.000450     YES
 RMS     Force            0.000056     0.000300     YES
 Maximum Displacement     0.014292     0.001800     NO 
 RMS     Displacement     0.004990     0.001200     NO 
 Predicted change in Energy=-1.120140D-06
 GradGradGradGradGradGradGradGradGradGradGradGradGradGradGradGradGradGrad

                          Input orientation:                          
 ---------------------------------------------------------------------
 Center     Atomic      Atomic             Coordinates (Angstroms)
 Number     Number       Type             X           Y           Z
 ---------------------------------------------------------------------
      1          6           0       -0.668583    1.474546   -0.147905
      2          1           0       -0.056029    2.260207    0.270891
      3          1           0       -1.200328    1.689095   -1.065374
      4          1           0        2.452124    0.394442   -0.371367
      5          6           0       -0.665582    0.203464    0.389237
      6          1           0       -0.248171    0.081321    1.380648
      7          6           0       -1.674005   -0.827289   -0.023399
      8          1           0       -1.954018   -0.708514   -1.070131
      9          1           0       -1.280274   -1.831657    0.122247
     10          1           0       -2.578215   -0.726318    0.581410
     11          8           0        2.018160   -0.220327    0.236892
     12          8           0        0.856589   -0.569130   -0.454833
 ---------------------------------------------------------------------
                    Distance matrix (angstroms):
                    1          2          3          4          5
     1  C    0.000000
     2  H    1.080683   0.000000
     3  H    1.081912   1.849647   0.000000
     4  H    3.309890   3.191302   3.936773   0.000000
     5  C    1.379920   2.148430   2.146846   3.214822   0.000000
     6  H    2.110520   2.452758   3.078078   3.234068   1.082611
     7  C    2.514918   3.498153   2.764465   4.317250   1.499878
     8  H    2.696032   3.770146   2.513284   4.595527   2.149773
     9  H    3.373147   4.273666   3.716521   4.373781   2.142626
    10  H    3.003730   3.921374   3.231824   5.241011   2.135320
    11  O    3.199883   3.233646   3.962380   0.967597   2.721265
    12  O    2.568455   3.060178   3.115003   1.865789   1.904301
                    6          7          8          9         10
     6  H    0.000000
     7  C    2.197708   0.000000
     8  H    3.088701   1.090029   0.000000
     9  H    2.511632   1.088573   1.771199   0.000000
    10  H    2.592329   1.092513   1.765652   1.765575   0.000000
    11  O    2.556448   3.750765   4.210087   3.672764   4.636959
    12  O    2.238877   2.580056   2.880544   2.548172   3.591154
                   11         12
    11  O    0.000000
    12  O    1.396207   0.000000
 Stoichiometry    C3H7O2(2)
 Framework group  C1[X(C3H7O2)]
 Deg. of freedom    30
 Full point group                 C1      NOp   1
 Largest Abelian subgroup         C1      NOp   1
 Largest concise Abelian subgroup C1      NOp   1
                         Standard orientation:                         
 ---------------------------------------------------------------------
 Center     Atomic      Atomic             Coordinates (Angstroms)
 Number     Number       Type             X           Y           Z
 ---------------------------------------------------------------------
[...]
    D6        1.56268  -0.00000   0.00000   0.00003   0.00003   1.56271
    D7        0.57837   0.00000   0.00000  -0.00010  -0.00010   0.57827
    D8        2.69171   0.00000   0.00000  -0.00011  -0.00011   2.69160
    D9       -1.50818   0.00000   0.00000  -0.00009  -0.00009  -1.50827
   D10       -3.01973  -0.00000   0.00000  -0.00005  -0.00005  -3.01978
   D11       -0.90639  -0.00000   0.00000  -0.00006  -0.00006  -0.90645
   D12        1.17691  -0.00000   0.00000  -0.00005  -0.00005   1.17686
   D13       -1.32403  -0.00000   0.00000  -0.00004  -0.00004  -1.32407
   D14        0.78931  -0.00000   0.00000  -0.00005  -0.00005   0.78925
   D15        2.87261  -0.00000   0.00000  -0.00004  -0.00004   2.87257
   D16        1.45605   0.00001   0.00000   0.00137   0.00137   1.45741
   D17       -0.61819   0.00000   0.00000   0.00137   0.00137  -0.61682
   D18       -2.65072   0.00001   0.00000   0.00138   0.00138  -2.64934
   D19       -1.90860   0.00001   0.00000   0.00005   0.00005  -1.90855
         Item               Value     Threshold  Converged?
 Maximum Force            0.000049     0.000450     YES
 RMS     Force            0.000009     0.000300     YES
 Maximum Displacement     0.001878     0.001800     NO 
 RMS     Displacement     0.000540     0.001200     YES
 Predicted change in Energy=-1.381993D-08
                           ----------------------------
                           ! Non-Optimized Parameters !
                           ! (Angstroms and Degrees)  !
 --------------------------                            --------------------------
 ! Name  Definition              Value          Derivative Info.                !
 --------------------------------------------------------------------------------
 ! R1    R(1,2)                  1.0807         -DE/DX =    0.0                 !
 ! R2    R(1,3)                  1.0819         -DE/DX =    0.0                 !
 ! R3    R(1,5)                  1.3799         -DE/DX =    0.0                 !
 ! R4    R(4,11)                 0.9676         -DE/DX =    0.0                 !
 ! R5    R(5,6)                  1.0826         -DE/DX =    0.0                 !
 ! R6    R(5,7)                  1.4999         -DE/DX =    0.0                 !
 ! R7    R(5,12)                 1.9044         -DE/DX =    0.0                 !
 ! R8    R(7,8)                  1.09           -DE/DX =    0.0                 !
 ! R9    R(7,9)                  1.0886         -DE/DX =    0.0                 !
 ! R10   R(7,10)                 1.0925         -DE/DX =    0.0                 !
 ! R11   R(11,12)                1.3961         -DE/DX =    0.0                 !
 ! A1    A(2,1,3)              117.5826         -DE/DX =    0.0                 !
 ! A2    A(2,1,5)              121.1709         -DE/DX =    0.0                 !
 ! A3    A(3,1,5)              120.9194         -DE/DX =    0.0                 !
 ! A4    A(1,5,6)              117.4668         -DE/DX =    0.0                 !
 ! A5    A(1,5,7)              121.6338         -DE/DX =    0.0                 !
 ! A6    A(1,5,12)             101.7033         -DE/DX =    0.0                 !
 ! A7    A(6,5,7)              115.6973         -DE/DX =    0.0                 !
 ! A8    A(6,5,12)              92.9771         -DE/DX =    0.0                 !
 ! A9    A(7,5,12)              97.8568         -DE/DX =    0.0                 !
 ! A10   A(5,7,8)              111.2238         -DE/DX =    0.0                 !
 ! A11   A(5,7,9)              110.7376         -DE/DX =    0.0                 !
 ! A12   A(5,7,10)             109.9165         -DE/DX =    0.0                 !
 ! A13   A(8,7,9)              108.779          -DE/DX =    0.0                 !
 ! A14   A(8,7,10)             107.994          -DE/DX =    0.0                 !
 ! A15   A(9,7,10)             108.0927         -DE/DX =    0.0                 !
 ! A16   A(4,11,12)            102.7369         -DE/DX =    0.0                 !
 ! A17   A(5,12,11)            110.1222         -DE/DX =    0.0                 !
 ! D1    D(2,1,5,6)             15.9034         -DE/DX =    0.0                 !
 ! D2    D(2,1,5,7)            169.3112         -DE/DX =    0.0                 !
 ! D3    D(2,1,5,12)           -83.7369         -DE/DX =    0.0                 !
 ! D4    D(3,1,5,6)           -170.8229         -DE/DX =    0.0                 !
 ! D5    D(3,1,5,7)            -17.4152         -DE/DX =    0.0                 !
 ! D6    D(3,1,5,12)            89.5368         -DE/DX =    0.0                 !
 ! D7    D(1,5,7,8)             33.1326         -DE/DX =    0.0                 !
 ! D8    D(1,5,7,9)            154.2172         -DE/DX =    0.0                 !
 ! D9    D(1,5,7,10)           -86.4175         -DE/DX =    0.0                 !
 ! D10   D(6,5,7,8)           -173.0206         -DE/DX =    0.0                 !
 ! D11   D(6,5,7,9)            -51.936          -DE/DX =    0.0                 !
 ! D12   D(6,5,7,10)            67.4293         -DE/DX =    0.0                 !
 ! D13   D(12,5,7,8)           -75.8637         -DE/DX =    0.0                 !
 ! D14   D(12,5,7,9)            45.221          -DE/DX =    0.0                 !
 ! D15   D(12,5,7,10)          164.5862         -DE/DX =    0.0                 !
 ! D16   D(1,5,12,11)           83.5037         -DE/DX =    0.0                 !
 ! D17   D(6,5,12,11)          -35.341          -DE/DX =    0.0                 !
 ! D18   D(7,5,12,11)         -151.796          -DE/DX =    0.0                 !
 ! D19   D(4,11,12,5)         -109.3521         -DE/DX =    0.0                 !
 --------------------------------------------------------------------------------
 GradGradGradGradGradGradGradGradGradGradGradGradGradGradGradGradGradGrad


 ----------------------------------------------------------------------

 Electric dipole moment (input orientation):
 (Debye = 10**-18 statcoulomb cm , SI units = C m)
                  (au)            (Debye)         (10**-30 SI)
   Tot        0.620558D+00      0.157730D+01      0.526131D+01
   x         -0.209334D+00     -0.532074D+00     -0.177481D+01
   y          0.577790D+00      0.146860D+01      0.489871D+01
   z         -0.861933D-01     -0.219082D+00     -0.730777D+00

 Dipole polarizability, Alpha (input orientation).
 (esu units = cm**3 , SI units = C**2 m**2 J**-1)
 Alpha(0;0):
               (au)            (10**-24 esu)      (10**-40 SI)
   iso        0.565535D+02      0.838036D+01      0.932440D+01
   aniso      0.305038D+02      0.452020D+01      0.502940D+01
   xx         0.716994D+02      0.106248D+02      0.118216D+02
   yx        -0.790009D+01     -0.117067D+01     -0.130255D+01
   yy         0.575878D+02      0.853363D+01      0.949495D+01
   zx         0.432016D-02      0.640181D-03      0.712298D-03
   zy        -0.127044D+01     -0.188260D+00     -0.209468D+00
   zz         0.403731D+02      0.598268D+01      0.665663D+01

 ----------------------------------------------------------------------

 Dipole orientation:
     6         -0.27446196         -0.05677783          3.05946968
     1          0.90991594         -1.46743721          3.94142746
     1         -0.48224822          1.73779529          4.01674996
     1          4.61314765         -0.80250877         -0.77165275
     6         -1.27418846         -0.42981421          0.68011319
     1         -1.25985214         -2.33660400         -0.06110314
     6         -3.26356090          1.28691889         -0.38234532
     1         -3.01068399          3.22096150          0.27987932
     1         -3.21012682          1.27872510         -2.43874048
     1         -5.13446933          0.64842290          0.21296677
     8          3.16688382         -1.36913669         -1.73634987
     8          1.45032440          0.61070644         -1.42804165

 Electric dipole moment (dipole orientation):
 (Debye = 10**-18 statcoulomb cm , SI units = C m)
                  (au)            (Debye)         (10**-30 SI)
   Tot        0.620558D+00      0.157730D+01      0.526131D+01
   x          0.000000D+00      0.000000D+00      0.000000D+00
   y          0.000000D+00      0.000000D+00      0.000000D+00
   z          0.620558D+00      0.157730D+01      0.526131D+01

 Dipole polarizability, Alpha (dipole orientation).
 (esu units = cm**3 , SI units = C**2 m**2 J**-1)
 Alpha(0;0):
               (au)            (10**-24 esu)      (10**-40 SI)
   iso        0.565535D+02      0.838036D+01      0.932440D+01
   aniso      0.305038D+02      0.452020D+01      0.502940D+01
   xx         0.633732D+02      0.939094D+01      0.104488D+02
   yx        -0.639008D+01     -0.946912D+00     -0.105358D+01
   yy         0.421341D+02      0.624362D+01      0.694697D+01
   zx        -0.105294D+02     -0.156029D+01     -0.173606D+01
   zy         0.153937D+01      0.228112D+00      0.253808D+00
   zz         0.641531D+02      0.950651D+01      0.105774D+02

 ----------------------------------------------------------------------
 1\1\GINC-CNODE0261\Freq\UB3LYP\CC-pVTZ+d\C3H7O2(2)\KOTUKILE\15-Mar-202
 2\0\\#N Geom=AllCheck Guess=TCheck SCRF=Check GenChk UB3LYP/CC-pVTZ+d 
 Freq\\QOOHisop-OOH-elim-TS-b3lyp-c\\0,2\C,-0.6685828112,1.4745455252,-
 0.147905065\H,-0.0560291891,2.2602066448,0.2708914627\H,-1.200328023,1
 .6890945268,-1.0653743614\H,2.452124139,0.39444163,-0.3713666204\C,-0.
 6655821362,0.2034640772,0.3892372994\H,-0.2481707706,0.0813213446,1.38
 06481782\C,-1.6740045099,-0.8272885826,-0.0233987812\H,-1.9540175169,-
 0.7085136376,-1.0701312042\H,-1.2802738569,-1.8316568348,0.1222467925\
 H,-2.5782150677,-0.7263177696,0.5814101705\O,2.0181604124,-0.220327323
 8,0.2368917724\O,0.8565893302,-0.5691296,-0.4548326434\\Version=ES64L-
 G16RevB.01\State=2-A\HF=-268.9080805\S2=0.77855\S2-1=0.\S2A=0.750149\R
 MSD=7.441e-10\RMSF=1.260e-05\ZeroPoint=0.0952228\Thermal=0.1019893\Dip
 ole=-0.209334,0.5777904,-0.0861933\DipoleDeriv=-0.1848261,0.0302681,0.
 1910434,-0.4732146,0.0913667,0.1069112,0.4263591,-0.0694911,-0.0659468
 ,0.050273,-0.1059353,-0.0605678,-0.0573184,-0.0225949,-0.0062811,-0.06
 90739,-0.0171984,0.051502,0.0737781,-0.008743,-0.095769,-0.0256396,0.0
 510168,-0.0022712,-0.0936141,0.052911,-0.0212727,0.30094,-0.0675597,-0
 .0095374,-0.0293187,0.235394,0.0627056,-0.0914393,0.1229505,0.1992682,
 -0.2317657,0.3334786,0.0931045,1.0087375,-0.0426907,-0.2197924,0.02861
 96,-0.0466801,0.1266192,0.0593728,-0.047563,-0.0901563,-0.0514194,0.04
 64564,0.0167965,-0.0521093,0.0215258,-0.0390846,-0.006671,-0.1150102,-
 0.0123693,-0.1198309,0.0409918,-0.0020099,0.0189551,0.0232321,0.088027
 4,0.049967,-0.0092308,-0.0232832,-0.0062021,0.0359727,0.0525491,-0.074
 6269,-0.0018149,-0.1036632,0.0335561,0.0892089,-0.0137948,-0.022647,-0
 .0664411,0.0254582,-0.0535045,0.0056417,0.0704781,-0.0656748,-0.039895
 6,0.0793967,-0.0120995,0.0448569,-0.0190994,0.0702575,-0.0248101,0.020
 1842,-1.141499,0.4041451,0.0086387,-0.3207164,-0.0773349,-0.0953081,-0
 .3971833,0.0828811,-0.1294726,1.0625496,-0.4631633,-0.0667055,0.109669
 2,-0.3369936,0.0803415,0.28736,-0.1491477,-0.1966391\Polar=71.699393,-
 7.9000856,57.5878174,0.0043202,-1.2704433,40.373147\Quadrupole=1.31469
 49,-0.5709787,-0.7437162,2.870122,-1.0412349,-0.7439959\PG=C01 [X(C3H7
 O2)]\NImag=1\\0.30781722,0.12685134,0.60949717,0.23535341,-0.08958495,
 0.47389619,-0.13067062,-0.12694347,-0.07848328,0.12816017,-0.12081936,
 -0.19895298,-0.07534795,0.13491520,0.21105886,-0.07876461,-0.07596095,
 -0.09282053,0.08403122,0.08072968,0.08766327,-0.10621693,0.01760876,-0
 .12979358,-0.00352917,0.00386224,-0.01292121,0.10296251,0.01775830,-0.
 06378240,0.04530378,-0.01038635,0.00689521,-0.01696304,-0.02108043,0.0
 6180296,-0.13232118,0.05110949,-0.24924138,-0.00392587,0.00387175,-0.0
 0496955,0.14316667,-0.05690282,0.26000781,0.00025943,0.00185157,-0.000
 72985,-0.00014717,0.00045223,0.00022117,-0.00004938,0.00015648,0.00005
 841,0.13641687,0.00089138,-0.00020580,-0.00048958,0.00009124,-0.000386
 23,-0.00016496,-0.00004113,-0.00015991,0.00001184,0.14126580,0.2032089
 9,-0.00003685,-0.00136351,0.00062882,0.00012127,-0.00020856,-0.0000553
 5,-0.00022242,-0.00009779,0.00000794,-0.10862280,-0.19375531,0.2284207
 1,-0.06111015,-0.08437200,-0.00386885,0.00371619,-0.01904374,0.0086613
 2,0.00317533,0.01400401,-0.00721336,0.00155756,0.00000033,-0.00189995,
 0.22520468,-0.02438136,-0.27512695,0.09472767,0.00354529,-0.01798416,0
 .00899393,0.00071180,-0.00275664,0.00060942,-0.00635437,0.00141350,0.0
 0326948,0.20450042,0.48112990,-0.02980680,0.14046245,-0.14714925,-0.00
 097020,-0.01225481,0.00789351,-0.00171037,0.02750783,-0.00847103,-0.00
 046115,-0.00023783,-0.00069435,0.19635791,-0.15686808,0.55165169,0.003
 07112,0.00529089,-0.00340892,-0.00212343,0.00121393,0.00232400,0.00456
 549,-0.00138894,-0.00224606,-0.00010326,0.00008424,-0.00016547,-0.0799
 6103,-0.00318958,-0.10808754,0.09106037,0.01322032,-0.00456476,0.03046
 959,0.00106003,0.00068174,-0.00143609,-0.00191495,-0.00402682,0.003036
 39,0.00004259,-0.00000836,0.00005787,0.00244199,-0.05230690,0.03257777
 ,-0.00850794,0.06052247,-0.00579367,-0.00164299,-0.00671843,0.00151944
 ,-0.00041815,-0.00005477,-0.00127205,0.00207959,0.00199106,0.00018104,
 0.00002876,0.00006635,-0.10952966,0.04040628,-0.28192788,0.11255089,-0
 .03560979,0.29796940,0.00275167,-0.00101247,0.00013589,0.00396656,0.00
 144415,-0.00300394,-0.00167864,0.00167435,0.00138931,-0.00116595,0.000
 61723,-0.00000058,-0.12376351,-0.06850030,-0.03368982,-0.00546417,-0.0
 0739883,-0.00221984,0.51207006,-0.02469134,-0.02853367,-0.00626963,-0.
 00205839,-0.00211760,0.00336647,0.00137379,0.00143540,-0.00229906,0.00
 005855,0.00011097,-0.00004643,-0.06641966,-0.13745810,-0.02178466,0.00
 223087,0.00302304,0.00076014,-0.03839165,0.53270821,0.00817979,0.00523
 418,0.00792675,-0.00234167,0.00333418,0.00117523,0.00266962,0.00048426
 ,-0.00012151,0.00071180,-0.00017854,0.00037640,-0.04062810,-0.02198015
 ,-0.09812142,-0.02024517,-0.02028052,-0.00341419,-0.00145438,-0.020051
 95,0.56017139,0.00065029,0.00118178,0.00061265,-0.00008736,0.00019566,
 0.00031519,0.00054921,-0.00041218,0.00040898,0.00002430,-0.00005005,0.
 00002221,-0.00931512,0.00311515,-0.02470842,-0.00185529,-0.00354756,-0
 .00072512,-0.06141252,0.00786011,-0.06155128,0.06573308,0.00001733,0.0
 0082788,-0.00088810,0.00020164,0.00020956,0.00023541,0.00023250,-0.000
 16797,0.00066469,-0.00000369,0.00004086,0.00002359,-0.00619403,0.00361
 790,-0.02465586,-0.00328050,-0.00265559,-0.00047990,0.00815510,-0.0530
 6502,0.03158328,-0.00505112,0.05359375,0.00072065,0.00073274,0.0012830
 3,0.00002866,-0.00002930,0.00043826,0.00015160,-0.00087306,0.00027326,
 -0.00002794,0.00001758,-0.00001202,-0.00295263,0.00121701,-0.00966205,
 -0.00057007,-0.00115518,0.00113716,-0.06369267,0.02916236,-0.28901477,
 0.07091988,-0.03195286,0.31445676,-0.00274037,-0.00347370,-0.00144020,
 -0.00026773,-0.00107934,0.00051286,-0.00000016,0.00002239,0.00002498,-
 0.00005846,0.00007765,0.00003252,0.00667613,-0.02158201,0.00549718,0.0
 0061224,0.00075772,0.00006920,-0.08095556,0.09323149,-0.01605053,-0.00
 343022,0.00589705,-0.00021686,0.08860616,-0.00293148,-0.00368381,-0.00
 231157,-0.00063448,-0.00064334,0.00092248,0.00029737,0.00010756,-0.000
 30526,0.00042126,-0.00008891,-0.00005969,0.00577903,-0.01975025,0.0044
 7010,-0.00009934,0.00067327,-0.00018858,0.08959390,-0.27038560,0.03354
 301,0.00058077,-0.00176143,0.00060328,-0.09727220,0.29645554,-0.001247
 78,-0.00137217,0.00037113,-0.00003282,-0.00014117,0.00051841,-0.000076
 89,-0.00026760,0.00030265,0.00000549,0.00006017,-0.00009705,0.00406401
 ,-0.00684170,0.00092564,0.00049453,0.00003061,0.00027503,-0.01600416,0
 .03344237,-0.05406734,-0.01148038,0.02904899,-0.00270323,0.01672976,-0
 .03593841,0.05266854,0.00007069,0.00127208,-0.00158504,0.00050720,-0.0
 0038659,-0.00036142,-0.00043600,0.00012387,0.00032779,-0.00036266,0.00
 017122,-0.00005981,-0.01720949,-0.00048216,0.01257357,0.00046889,0.000
 21511,-0.00064210,-0.22012401,0.02140279,0.11885990,0.00799463,-0.0009
 3984,-0.00443465,-0.00961001,0.00128369,0.00638125,0.24121389,-0.00080
 764,-0.00081995,-0.00072877,0.00080287,-0.00039967,-0.00058084,-0.0004
 6740,0.00005404,0.00041350,0.00003455,0.00008962,0.00001813,-0.0193251
 1,0.00010848,0.01458408,0.00070120,0.00072441,-0.00036804,0.02007432,-
 0.04622084,-0.01436370,-0.00366810,-0.00054359,0.00232764,0.02421074,-
 0.00169031,-0.01771137,-0.02115788,0.04957020,-0.00034608,-0.00003409,
 0.00055805,0.00009172,0.00006276,-0.00001052,0.00019296,-0.00006268,-0
 .00009162,-0.00019153,0.00009017,-0.00002087,-0.00643918,0.00211969,0.
 00521795,0.00065519,0.00056587,0.00002534,0.11723271,-0.01551944,-0.12
 571764,0.02607115,-0.00357640,-0.01655096,-0.00447550,-0.00017490,0.00
 230204,-0.13053116,0.01705177,0.13378108,-0.00314812,-0.01559280,0.008
 51417,0.00027822,0.00051936,-0.00025815,0.00002978,-0.00005627,0.00009
 502,-0.09964076,-0.13276066,0.13428275,-0.03328848,0.02903441,-0.00820
 050,0.00318491,-0.00192779,-0.00125631,-0.00299248,0.00081443,0.003271
 99,0.00009963,0.00013923,-0.00001126,-0.00003111,-0.00082171,-0.000693
 10,-0.00042909,-0.00096116,-0.00075580,0.30523990,0.00036916,-0.007341
 45,0.00470397,-0.00033146,0.00093633,0.00045408,0.00040734,0.00021409,
 -0.00011832,-0.11369318,-0.19885527,0.21688111,-0.00912056,0.01499938,
 0.00535916,0.00035157,-0.00034793,0.00086832,0.00071953,-0.00099226,0.
 00063719,0.00009508,-0.00010723,-0.00012282,-0.00035811,0.00011086,-0.
 00051016,-0.00025759,0.00030689,-0.00024507,0.18075522,0.23761754,-0.0
 0195338,-0.01062146,0.00636012,-0.00005244,0.00059984,0.00006609,0.000
 25406,0.00002934,-0.00006849,0.09966597,0.19712235,-0.24259778,-0.0134
 8575,0.02720465,0.00760104,0.00078365,-0.00022494,0.00105988,0.0037373
 4,-0.00070536,-0.00147833,0.00014763,-0.00004092,0.00005452,-0.0000692
 4,-0.00114282,-0.00044095,0.00107015,-0.00018114,0.00016744,-0.0284683
 9,-0.19141329,0.33228006,-0.01073422,0.07733801,-0.02530642,0.00019715
 ,-0.00127375,-0.00075641,0.00062797,-0.00041523,0.00023531,-0.03673053
 ,-0.01034725,-0.02345086,0.08431791,-0.11641729,-0.00679386,-0.0134558
 4,0.00555931,0.00711818,-0.02123146,0.00458900,0.00857803,0.00104937,0
 .00082633,0.00008529,0.00119909,0.00380319,0.00186010,-0.00208404,0.00
 056360,-0.00150450,-0.16930241,-0.05893700,-0.06162960,0.16614700,0.01
 452335,-0.02731329,0.00041554,-0.00026213,0.00070228,0.00040383,-0.000
 98990,0.00038448,-0.00009161,-0.02423181,-0.00515945,-0.02471889,-0.02
 225067,0.00411383,-0.00916015,0.00659361,-0.00171457,-0.00543565,-0.00
 697533,0.00149549,0.00203878,-0.00029954,0.00001086,0.00007261,-0.0004
 3167,0.00065644,0.00020043,-0.00124471,-0.00117929,-0.00027769,-0.0591
 4228,-0.04654095,-0.02062625,0.09471108,0.07454417,0.00601650,-0.01695
 875,0.00490550,0.00001395,-0.00019827,0.00015592,-0.00043839,-0.000237
 81,0.00038087,0.00918938,-0.00250465,0.01397721,-0.02306576,0.00714180
 ,-0.02726386,0.01791498,-0.00803158,-0.01040895,-0.00242985,-0.0000547
 9,0.00228542,-0.00003250,0.00003807,0.00030004,-0.00061418,0.00058235,
 -0.00005488,-0.00159848,-0.00046126,0.00033971,-0.10652041,-0.03649417
 ,-0.10300360,0.10156474,0.05717904,0.11838662\\0.00000361,-0.00001959,
 0.00000664,-0.00000128,0.00000003,0.00000146,0.00000092,-0.00000140,0.
 00000015,0.00000356,-0.00000009,-0.00000366,-0.00002643,0.00001923,0.0
 0000419,0.00000444,-0.00000151,-0.00000754,0.00000090,0.00000359,-0.00
 000102,-0.00000010,-0.00000058,0.00000071,0.00000112,0.00000087,0.0000
 0139,0.00000024,0.00000117,0.00000043,0.00003829,0.00001820,0.00002335
 ,-0.00002527,-0.00001991,-0.00002610\\\@


 BE CAREFUL NOT TO BECOME TOO GOOD OF A SONGBIRD OR 
 THEY'LL THROW YOU INTO A CAGE.

                                    -- SNOOPY TO WOODSTOCK
 Job cpu time:       0 days  0 hours  0 minutes 39.3 seconds.
 Elapsed time:       0 days  0 hours  2 minutes 21.2 seconds.
 File lengths (MBytes):  RWF=    113 Int=      0 D2E=      0 Chk=      8 Scr=      1
 Normal termination of Gaussian 16 at Tue Mar 15 23:26:38 2022.
