 Entering Gaussian System, Link 0=g16
 Initial command:
 /apps/chpc/chem/gaussian16/B01/g16/l1.exe "/mnt/lustre/users/kotukile/Kgalaletso/4104039.sched01/Gau-125287.inp" -scrdir="/mnt/lustre/users/kotukile/Kgalaletso/4104039.sched01/"
 Entering Link 1 = /apps/chpc/chem/gaussian16/B01/g16/l1.exe PID=    125289.
  
 Copyright (c) 1988-2017, Gaussian, Inc.  All Rights Reserved.
  
 This is part of the Gaussian(R) 16 program.  It is based on
 the Gaussian(R) 09 system (copyright 2009, Gaussian, Inc.),
 the Gaussian(R) 03 system (copyright 2003, Gaussian, Inc.),
 the Gaussian(R) 98 system (copyright 1998, Gaussian, Inc.),
 the Gaussian(R) 94 system (copyright 1995, Gaussian, Inc.),
 the Gaussian 92(TM) system (copyright 1992, Gaussian, Inc.),
 the Gaussian 90(TM) system (copyright 1990, Gaussian, Inc.),
 the Gaussian 88(TM) system (copyright 1988, Gaussian, Inc.),
 the Gaussian 86(TM) system (copyright 1986, Carnegie Mellon
 University), and the Gaussian 82(TM) system (copyright 1983,
 Carnegie Mellon University). Gaussian is a federally registered
 trademark of Gaussian, Inc.
  
 This software contains proprietary and confidential information,
 including trade secrets, belonging to Gaussian, Inc.
  
 This software is provided under written license and may be
 used, copied, transmitted, or stored only in accord with that
 written license.
  
 The following legend is applicable only to US Government
 contracts under FAR:
  
                    RESTRICTED RIGHTS LEGEND
  
 Use, reproduction and disclosure by the US Government is
 subject to restrictions as set forth in subparagraphs (a)
 and (c) of the Commercial Computer Software - Restricted
 Rights clause in FAR 52.227-19.
  
 Gaussian, Inc.
 340 Quinnipiac St., Bldg. 40, Wallingford CT 06492
  
  
 ---------------------------------------------------------------
 Warning -- This program may not be used in any manner that
 competes with the business of Gaussian, Inc. or will provide
 assistance to any competitor of Gaussian, Inc.  The licensee
 of this program is prohibited from giving any competitor of
 Gaussian, Inc. access to this program.  By using this program,
 the user acknowledges that Gaussian, Inc. is engaged in the
 business of creating and licensing software in the field of
 computational chemistry and represents and warrants to the
 licensee that it is not a competitor of Gaussian, Inc. and that
 it will not use this program in any manner prohibited above.
 ---------------------------------------------------------------
  

 Cite this work as:
 Gaussian 16, Revision B.01,
 M. J. Frisch, G. W. Trucks, H. B. Schlegel, G. E. Scuseria, 
 M. A. Robb, J. R. Cheeseman, G. Scalmani, V. Barone, 
 G. A. Petersson, H. Nakatsuji, X. Li, M. Caricato, A. V. Marenich, 
 J. Bloino, B. G. Janesko, R. Gomperts, B. Mennucci, H. P. Hratchian, 
 J. V. Ortiz, A. F. Izmaylov, J. L. Sonnenberg, D. Williams-Young, 
 F. Ding, F. Lipparini, F. Egidi, J. Goings, B. Peng, A. Petrone, 
 T. Henderson, D. Ranasinghe, V. G. Zakrzewski, J. Gao, N. Rega, 
 G. Zheng, W. Liang, M. Hada, M. Ehara, K. Toyota, R. Fukuda, 
 J. Hasegawa, M. Ishida, T. Nakajima, Y. Honda, O. Kitao, H. Nakai, 
 T. Vreven, K. Throssell, J. A. Montgomery, Jr., J. E. Peralta, 
 F. Ogliaro, M. J. Bearpark, J. J. Heyd, E. N. Brothers, K. N. Kudin, 
 V. N. Staroverov, T. A. Keith, R. Kobayashi, J. Normand, 
 K. Raghavachari, A. P. Rendell, J. C. Burant, S. S. Iyengar, 
 J. Tomasi, M. Cossi, J. M. Millam, M. Klene, C. Adamo, R. Cammi, 
 J. W. Ochterski, R. L. Martin, K. Morokuma, O. Farkas, 
 J. B. Foresman, and D. J. Fox, Gaussian, Inc., Wallingford CT, 2016.
 
 ******************************************
 Gaussian 16:  ES64L-G16RevB.01 20-Dec-2017
                 1-Apr-2022 
 ******************************************
 %nprocshared=24
 Will use up to   24 processors via shared memory.
 %lindaworkers=cnode1333.cm.cluster,cnode1339.cm.cluster
 %mem=20GB
 %chk=RisopO2-OH-elim-TS4-b3lyp-c.chk
 SetLPE:    new flags="-opt 'Tsnet.Node.lindarsharg: ssh'  -nodelist 'cnode1333.cm.cluster cnode1339.cm.cluster' -env GAUSS_MDEF=2684354560 -env GAUSS_EXEDIR="/apps/chpc/chem/gaussian16/B01/g16/bsd:/apps/chpc/chem/gaussian16/B01/g16""
 Will use up to    2 processors via Linda.
 ----------------------------------------------------------------------
 # opt=(calcfc,ts,noeigentest) freq ub3lyp scf=(xqc,maxcyc=1000) cc-pvt
 z+d
 ----------------------------------------------------------------------
 1/5=1,10=4,11=1,18=20,26=3,38=1/1,3;
 2/9=110,12=2,17=6,18=5,40=1/2;
 3/5=16,6=1,7=9,11=2,25=1,30=1,71=2,74=-5,116=2,140=1/1,2,3;
 4//1;
 5/5=2,7=1000,8=3,13=1,38=5/2,8;
 8/6=4,10=90,11=11/1;
 11/6=1,8=1,9=11,15=111,16=1/1,2,10;
 10/6=1,13=1/2;
 6/7=2,8=2,9=2,10=2,28=1/1;
 7/10=1,18=20,25=1/1,2,3,16;
 1/5=1,10=4,11=1,18=20,26=3/3(2);
 2/9=110/2;
 99//99;
 2/9=110/2;
 3/5=16,6=1,7=9,11=2,25=1,30=1,71=1,74=-5,116=2/1,2,3;
 4/5=5,16=3,69=1/1;
 5/5=2,7=1000,8=3,13=1,38=5/2,8;
 7//1,2,3,16;
 1/5=1,11=1,18=20,26=3/3(-5);
 2/9=110/2;
 6/7=2,8=2,9=2,10=2,19=2,28=1/1;
 99/9=1/99;
 ---------------------------
 RisopO2-OH-elim-TS4-b3lyp-c
 ---------------------------
 Symbolic Z-matrix:
 Charge =  0 Multiplicity = 2
 C                     1.32535  -1.11729  -0.00971 
 H                     1.33017  -2.0315    0.57163 
 H                     1.81146  -1.11512  -0.97885 
 C                     0.5084    0.04098   0.41479 
 H                     0.29021   0.05001   1.49037 
 C                     0.87      1.41933  -0.10404 
 H                     1.10926   1.37659  -1.17184 
 H                     0.01995   2.09402   0.03283 
 H                     1.73192   1.82476   0.4388 
 O                    -0.49507  -0.62132  -0.31618 
 O                    -2.01111   0.17278   0.01689 
 H                    -2.46602  -0.66852   0.20517 
 
 Add virtual bond connecting atoms O11        and O10        Dist= 3.29D+00.

 GradGradGradGradGradGradGradGradGradGradGradGradGradGradGradGradGradGrad
 Berny optimization.
 Initialization pass.
                           ----------------------------
                           !    Initial Parameters    !
                           ! (Angstroms and Degrees)  !
 --------------------------                            --------------------------
 ! Name  Definition              Value          Derivative Info.                !
 --------------------------------------------------------------------------------
 ! R1    R(1,2)                  1.0834         calculate D2E/DX2 analytically  !
 ! R2    R(1,3)                  1.0842         calculate D2E/DX2 analytically  !
 ! R3    R(1,4)                  1.4796         calculate D2E/DX2 analytically  !
 ! R4    R(4,5)                  1.0975         calculate D2E/DX2 analytically  !
 ! R5    R(4,6)                  1.5165         calculate D2E/DX2 analytically  !
 ! R6    R(4,10)                 1.4071         calculate D2E/DX2 analytically  !
 ! R7    R(6,7)                  1.0951         calculate D2E/DX2 analytically  !
 ! R8    R(6,8)                  1.0939         calculate D2E/DX2 analytically  !
 ! R9    R(6,9)                  1.0963         calculate D2E/DX2 analytically  !
 ! R10   R(10,11)                1.7435         calculate D2E/DX2 analytically  !
 ! R11   R(11,12)                0.9748         calculate D2E/DX2 analytically  !
 ! A1    A(2,1,3)              118.6419         calculate D2E/DX2 analytically  !
 ! A2    A(2,1,4)              120.6027         calculate D2E/DX2 analytically  !
 ! A3    A(3,1,4)              120.1611         calculate D2E/DX2 analytically  !
 ! A4    A(1,4,5)              113.4141         calculate D2E/DX2 analytically  !
 ! A5    A(1,4,6)              118.797          calculate D2E/DX2 analytically  !
 ! A6    A(1,4,10)              82.8913         calculate D2E/DX2 analytically  !
 ! A7    A(5,4,6)              112.0371         calculate D2E/DX2 analytically  !
 ! A8    A(5,4,10)             111.7891         calculate D2E/DX2 analytically  !
 ! A9    A(6,4,10)             114.8426         calculate D2E/DX2 analytically  !
 ! A10   A(4,6,7)              110.5002         calculate D2E/DX2 analytically  !
 ! A11   A(4,6,8)              109.4207         calculate D2E/DX2 analytically  !
 ! A12   A(4,6,9)              110.7428         calculate D2E/DX2 analytically  !
 ! A13   A(7,6,8)              108.4133         calculate D2E/DX2 analytically  !
 ! A14   A(7,6,9)              108.9931         calculate D2E/DX2 analytically  !
 ! A15   A(8,6,9)              108.7176         calculate D2E/DX2 analytically  !
 ! A16   A(4,10,11)            107.8474         calculate D2E/DX2 analytically  !
 ! A17   A(10,11,12)            92.8429         calculate D2E/DX2 analytically  !
 ! D1    D(2,1,4,5)             24.2174         calculate D2E/DX2 analytically  !
 ! D2    D(2,1,4,6)            159.0152         calculate D2E/DX2 analytically  !
 ! D3    D(2,1,4,10)           -86.492          calculate D2E/DX2 analytically  !
 ! D4    D(3,1,4,5)           -164.7406         calculate D2E/DX2 analytically  !
 ! D5    D(3,1,4,6)            -29.9427         calculate D2E/DX2 analytically  !
 ! D6    D(3,1,4,10)            84.55           calculate D2E/DX2 analytically  !
 ! D7    D(1,4,6,7)             43.0703         calculate D2E/DX2 analytically  !
 ! D8    D(1,4,6,8)            162.3707         calculate D2E/DX2 analytically  !
 ! D9    D(1,4,6,9)            -77.803          calculate D2E/DX2 analytically  !
 ! D10   D(5,4,6,7)            178.4432         calculate D2E/DX2 analytically  !
 ! D11   D(5,4,6,8)            -62.2564         calculate D2E/DX2 analytically  !
 ! D12   D(5,4,6,9)             57.5699         calculate D2E/DX2 analytically  !
 ! D13   D(10,4,6,7)           -52.6039         calculate D2E/DX2 analytically  !
 ! D14   D(10,4,6,8)            66.6965         calculate D2E/DX2 analytically  !
 ! D15   D(10,4,6,9)          -173.4772         calculate D2E/DX2 analytically  !
 ! D16   D(1,4,10,11)          169.7144         calculate D2E/DX2 analytically  !
 ! D17   D(5,4,10,11)           57.2934         calculate D2E/DX2 analytically  !
 ! D18   D(6,4,10,11)          -71.7827         calculate D2E/DX2 analytically  !
 ! D19   D(4,10,11,12)        -130.9838         calculate D2E/DX2 analytically  !
 --------------------------------------------------------------------------------
 Trust Radius=3.00D-01 FncErr=1.00D-07 GrdErr=1.00D-06 EigMax=2.50D+02 EigMin=1.00D-04
 Number of steps in this run=     57 maximum allowed number of steps=    100.
 Search for a saddle point of order  1.
 GradGradGradGradGradGradGradGradGradGradGradGradGradGradGradGradGradGrad

                          Input orientation:                          
 ---------------------------------------------------------------------
 Center     Atomic      Atomic             Coordinates (Angstroms)
 Number     Number       Type             X           Y           Z
 ---------------------------------------------------------------------
      1          6           0        1.325350   -1.117294   -0.009712
      2          1           0        1.330165   -2.031502    0.571634
      3          1           0        1.811455   -1.115123   -0.978847
      4          6           0        0.508403    0.040983    0.414787
      5          1           0        0.290207    0.050011    1.490370
      6          6           0        0.869999    1.419330   -0.104040
      7          1           0        1.109263    1.376589   -1.171839
      8          1           0        0.019952    2.094016    0.032834
      9          1           0        1.731918    1.824755    0.438797
     10          8           0       -0.495072   -0.621324   -0.316181
     11          8           0       -2.011109    0.172781    0.016890
     12          1           0       -2.466021   -0.668521    0.205172
 ---------------------------------------------------------------------
                    Distance matrix (angstroms):
                    1          2          3          4          5
     1  C    0.000000
     2  H    1.083403   0.000000
     3  H    1.084217   1.864238   0.000000
     4  C    1.479597   2.234969   2.230861   0.000000
     5  H    2.164340   2.501656   3.125502   1.097529   0.000000
     6  C    2.578896   3.546340   2.841668   1.516500   2.180215
     7  H    2.759834   3.834525   2.595948   2.159226   3.085129
     8  H    3.466754   4.361979   3.812028   2.144625   2.524957
     9  H    3.003683   3.879403   3.264801   2.163194   2.516754
    10  O    1.911504   2.471499   2.450108   1.407099   2.081101
    11  O    3.577284   4.041128   4.154779   2.554140   2.735374
    12  H    3.823881   4.050067   4.460735   3.065050   3.124870
                    6          7          8          9         10
     6  C    0.000000
     7  H    1.095111   0.000000
     8  H    1.093854   1.775539   0.000000
     9  H    1.096333   1.784012   1.779926   0.000000
    10  O    2.464283   2.701425   2.785701   3.393049   0.000000
    11  O    3.141543   3.549500   2.795820   4.113061   1.743533
    12  H    3.947628   4.342959   3.720400   4.888118   2.039283
                   11         12
    11  O    0.000000
    12  H    0.974774   0.000000
 Stoichiometry    C3H7O2(2)
 Framework group  C1[X(C3H7O2)]
 Deg. of freedom    30
 Full point group                 C1      NOp   1
 Largest Abelian subgroup         C1      NOp   1
 Largest concise Abelian subgroup C1      NOp   1
                         Standard orientation:                         
 ---------------------------------------------------------------------
 Center     Atomic      Atomic             Coordinates (Angstroms)
 Number     Number       Type             X           Y           Z
 ---------------------------------------------------------------------
      1          6           0        1.325350   -1.117294   -0.009712
      2          1           0        1.330165   -2.031502    0.571634
      3          1           0        1.811455   -1.115123   -0.978847
      4          6           0        0.508403    0.040983    0.414787
      5          1           0        0.290207    0.050011    1.490370
      6          6           0        0.869999    1.419330   -0.104040
      7          1           0        1.109263    1.376589   -1.171839
      8          1           0        0.019952    2.094016    0.032834
      9          1           0        1.731918    1.824755    0.438797
     10          8           0       -0.495072   -0.621324   -0.316181
     11          8           0       -2.011109    0.172781    0.016890
     12          1           0       -2.466021   -0.668521    0.205172
 ---------------------------------------------------------------------
 Rotational constants (GHZ):           7.1970912           4.0033134           2.8290909
 Standard basis: CC-pVTZ+d (5D, 7F)
 There are   280 symmetry adapted cartesian basis functions of A   symmetry.
 There are   248 symmetry adapted basis functions of A   symmetry.
   248 basis functions,   379 primitive gaussians,   280 cartesian basis functions
    21 alpha electrons       20 beta electrons
       nuclear repulsion energy       181.8876498697 Hartrees.
 NAtoms=   12 NActive=   12 NUniq=   12 SFac= 1.00D+00 NAtFMM=   60 NAOKFM=F Big=F
 Integral buffers will be    131072 words long.
 Raffenetti 2 integral format.
 Two-electron integral symmetry is turned on.
 One-electron integrals computed using PRISM.
 NBasis=   248 RedAO= T EigKep=  5.97D-04  NBF=   248
 NBsUse=   248 1.00D-06 EigRej= -1.00D+00 NBFU=   248
 ExpMin= 1.03D-01 ExpMax= 1.53D+04 ExpMxC= 5.22D+02 IAcc=3 IRadAn=         5 AccDes= 0.00D+00
 Harris functional with IExCor=  402 and IRadAn=       5 diagonalized for initial guess.
 HarFok:  IExCor=  402 AccDes= 0.00D+00 IRadAn=         5 IDoV= 1 UseB2=F ITyADJ=14
 ICtDFT=  3500011 ScaDFX=  1.000000  1.000000  1.000000  1.000000
 FoFCou: FMM=F IPFlag=           0 FMFlag=      100000 FMFlg1=           0
         NFxFlg=           0 DoJE=T BraDBF=F KetDBF=T FulRan=T
         wScrn=  0.000000 ICntrl=       500 IOpCl=  0 I1Cent=   200000004 NGrid=           0
         NMat0=    1 NMatS0=      1 NMatT0=    0 NMatD0=    1 NMtDS0=    0 NMtDT0=    0
 Petite list used in FoFCou.
 Initial guess <Sx>= 0.0000 <Sy>= 0.0000 <Sz>= 0.5000 <S**2>= 0.7500 S= 0.5000
 Keep R1 and R2 ints in memory in canonical form, NReq=980075672.
 Requested convergence on RMS density matrix=1.00D-08 within 128 cycles.
 Requested convergence on MAX density matrix=1.00D-06.
 Requested convergence on             energy=1.00D-06.
 No special actions if energy rises.
 Integral accuracy reduced to 1.0D-05 until final iterations.
 Initial convergence to 1.0D-05 achieved.  Increase integral accuracy.
 SCF Done:  E(UB3LYP) =  -268.907162423     A.U. after   20 cycles
            NFock= 20  Conv=0.75D-08     -V/T= 2.0065
 <Sx>= 0.0000 <Sy>= 0.0000 <Sz>= 0.5000 <S**2>= 0.8104 S= 0.5298
 <L.S>= 0.000000000000E+00
 Annihilation of the first spin contaminant:
 S**2 before annihilation     0.8104,   after     0.7504
 QCSCF skips out because SCF is already converged.
 DoSCS=F DFT=T ScalE2(SS,OS)=  1.000000  1.000000
 Range of M.O.s used for correlation:     1   248
 NBasis=   248 NAE=    21 NBE=    20 NFC=     0 NFV=     0
 NROrb=    248 NOA=    21 NOB=    20 NVA=   227 NVB=   228

 **** Warning!!: The largest alpha MO coefficient is  0.11647302D+02


 **** Warning!!: The largest beta MO coefficient is  0.11640563D+02

 Symmetrizing basis deriv contribution to polar:
 IMax=3 JMax=2 DiffMx= 0.00D+00
 G2DrvN: will do    13 centers at a time, making    1 passes.
 Calling FoFCou, ICntrl=  3107 FMM=F I1Cent=   0 AccDes= 0.00D+00.
 End of G2Drv F.D. properties file   721 does not exist.
 End of G2Drv F.D. properties file   722 does not exist.
 End of G2Drv F.D. properties file   788 does not exist.
          IDoAtm=111111111111
          Differentiating once with respect to nuclear coordinates.
 Keep R1 and R2 ints in memory in canonical form, NReq=980004093.
          There are    39 degrees of freedom in the 1st order CPHF.  IDoFFX=6 NUNeed=     0.
     33 vectors produced by pass  0 Test12= 2.39D-14 2.56D-09 XBig12= 1.93D-01 2.43D-01.
 AX will form    33 AO Fock derivatives at one time.
     33 vectors produced by pass  1 Test12= 2.39D-14 2.56D-09 XBig12= 7.21D-02 5.40D-02.
     33 vectors produced by pass  2 Test12= 2.39D-14 2.56D-09 XBig12= 1.58D-03 8.09D-03.
     33 vectors produced by pass  3 Test12= 2.39D-14 2.56D-09 XBig12= 9.66D-06 3.49D-04.
     33 vectors produced by pass  4 Test12= 2.39D-14 2.56D-09 XBig12= 5.21D-08 2.64D-05.
     33 vectors produced by pass  5 Test12= 2.39D-14 2.56D-09 XBig12= 3.97D-10 2.00D-06.
     26 vectors produced by pass  6 Test12= 2.39D-14 2.56D-09 XBig12= 1.73D-12 1.12D-07.
      4 vectors produced by pass  7 Test12= 2.39D-14 2.56D-09 XBig12= 7.20D-15 8.14D-09.
 InvSVY:  IOpt=1 It=  1 EMax= 3.77D-15
 Solved reduced A of dimension   228 with    33 vectors.
 End of Minotr F.D. properties file   721 does not exist.
 End of Minotr F.D. properties file   722 does not exist.
 End of Minotr F.D. properties file   788 does not exist.

 **********************************************************************

            Population analysis using the SCF Density.

 **********************************************************************

 Orbital symmetries:
 Alpha Orbitals:
       Occupied  (A) (A) (A) (A) (A) (A) (A) (A) (A) (A) (A) (A)
                 (A) (A) (A) (A) (A) (A) (A) (A) (A)
       Virtual   (A) (A) (A) (A) (A) (A) (A) (A) (A) (A) (A) (A)
                 (A) (A) (A) (A) (A) (A) (A) (A) (A) (A) (A) (A)
                 (A) (A) (A) (A) (A) (A) (A) (A) (A) (A) (A) (A)
                 (A) (A) (A) (A) (A) (A) (A) (A) (A) (A) (A) (A)
                 (A) (A) (A) (A) (A) (A) (A) (A) (A) (A) (A) (A)
                 (A) (A) (A) (A) (A) (A) (A) (A) (A) (A) (A) (A)
                 (A) (A) (A) (A) (A) (A) (A) (A) (A) (A) (A) (A)
                 (A) (A) (A) (A) (A) (A) (A) (A) (A) (A) (A) (A)
                 (A) (A) (A) (A) (A) (A) (A) (A) (A) (A) (A) (A)
                 (A) (A) (A) (A) (A) (A) (A) (A) (A) (A) (A) (A)
                 (A) (A) (A) (A) (A) (A) (A) (A) (A) (A) (A) (A)
                 (A) (A) (A) (A) (A) (A) (A) (A) (A) (A) (A) (A)
                 (A) (A) (A) (A) (A) (A) (A) (A) (A) (A) (A) (A)
                 (A) (A) (A) (A) (A) (A) (A) (A) (A) (A) (A) (A)
                 (A) (A) (A) (A) (A) (A) (A) (A) (A) (A) (A) (A)
                 (A) (A) (A) (A) (A) (A) (A) (A) (A) (A) (A) (A)
                 (A) (A) (A) (A) (A) (A) (A) (A) (A) (A) (A) (A)
                 (A) (A) (A) (A) (A) (A) (A) (A) (A) (A) (A) (A)
                 (A) (A) (A) (A) (A) (A) (A) (A) (A) (A) (A)
 Beta  Orbitals:
       Occupied  (A) (A) (A) (A) (A) (A) (A) (A) (A) (A) (A) (A)
                 (A) (A) (A) (A) (A) (A) (A) (A)
       Virtual   (A) (A) (A) (A) (A) (A) (A) (A) (A) (A) (A) (A)
                 (A) (A) (A) (A) (A) (A) (A) (A) (A) (A) (A) (A)
                 (A) (A) (A) (A) (A) (A) (A) (A) (A) (A) (A) (A)
                 (A) (A) (A) (A) (A) (A) (A) (A) (A) (A) (A) (A)
                 (A) (A) (A) (A) (A) (A) (A) (A) (A) (A) (A) (A)
                 (A) (A) (A) (A) (A) (A) (A) (A) (A) (A) (A) (A)
                 (A) (A) (A) (A) (A) (A) (A) (A) (A) (A) (A) (A)
                 (A) (A) (A) (A) (A) (A) (A) (A) (A) (A) (A) (A)
                 (A) (A) (A) (A) (A) (A) (A) (A) (A) (A) (A) (A)
                 (A) (A) (A) (A) (A) (A) (A) (A) (A) (A) (A) (A)
                 (A) (A) (A) (A) (A) (A) (A) (A) (A) (A) (A) (A)
                 (A) (A) (A) (A) (A) (A) (A) (A) (A) (A) (A) (A)
                 (A) (A) (A) (A) (A) (A) (A) (A) (A) (A) (A) (A)
                 (A) (A) (A) (A) (A) (A) (A) (A) (A) (A) (A) (A)
                 (A) (A) (A) (A) (A) (A) (A) (A) (A) (A) (A) (A)
                 (A) (A) (A) (A) (A) (A) (A) (A) (A) (A) (A) (A)
                 (A) (A) (A) (A) (A) (A) (A) (A) (A) (A) (A) (A)
                 (A) (A) (A) (A) (A) (A) (A) (A) (A) (A) (A) (A)
                 (A) (A) (A) (A) (A) (A) (A) (A) (A) (A) (A) (A)
 The electronic state is 2-A.
 Alpha  occ. eigenvalues --  -19.16950 -19.14186 -10.24199 -10.23274 -10.16992
 Alpha  occ. eigenvalues --   -1.04181  -0.94676  -0.75855  -0.70668  -0.59051
 Alpha  occ. eigenvalues --   -0.50977  -0.47705  -0.45329  -0.42491  -0.40721
 Alpha  occ. eigenvalues --   -0.39241  -0.37531  -0.35389  -0.30603  -0.27019
 Alpha  occ. eigenvalues --   -0.24453
 Alpha virt. eigenvalues --   -0.04647   0.03751   0.06014   0.06829   0.07645
 Alpha virt. eigenvalues --    0.10679   0.11208   0.12495   0.14721   0.17867
 Alpha virt. eigenvalues --    0.23214   0.23449   0.26084   0.28429   0.29961
 Alpha virt. eigenvalues --    0.32514   0.36822   0.39515   0.41067   0.41561
 Alpha virt. eigenvalues --    0.42365   0.44541   0.45105   0.45972   0.46548
 Alpha virt. eigenvalues --    0.47493   0.49465   0.51255   0.52962   0.54956
 Alpha virt. eigenvalues --    0.59997   0.62374   0.65410   0.66603   0.68527
 Alpha virt. eigenvalues --    0.70430   0.74882   0.76309   0.78822   0.82430
 Alpha virt. eigenvalues --    0.83999   0.86543   0.89878   0.90931   0.92814
 Alpha virt. eigenvalues --    0.95768   0.96847   1.00554   1.03300   1.04276
 Alpha virt. eigenvalues --    1.05236   1.07280   1.08417   1.12352   1.14221
 Alpha virt. eigenvalues --    1.14655   1.20550   1.21806   1.23085   1.25646
 Alpha virt. eigenvalues --    1.27927   1.29567   1.32061   1.34089   1.36240
 Alpha virt. eigenvalues --    1.36563   1.38287   1.41606   1.44290   1.47169
 Alpha virt. eigenvalues --    1.52020   1.52437   1.57518   1.63158   1.66868
 Alpha virt. eigenvalues --    1.69939   1.73910   1.80973   1.86637   1.92119
 Alpha virt. eigenvalues --    1.96467   2.03121   2.06618   2.18659   2.21284
 Alpha virt. eigenvalues --    2.22977   2.24869   2.31415   2.37790   2.39399
 Alpha virt. eigenvalues --    2.42675   2.47998   2.48712   2.52120   2.52467
 Alpha virt. eigenvalues --    2.58664   2.61726   2.65630   2.69468   2.71051
 Alpha virt. eigenvalues --    2.72650   2.74823   2.79440   2.80224   2.85820
 Alpha virt. eigenvalues --    2.87995   2.90398   2.92210   2.93526   2.94565
 Alpha virt. eigenvalues --    2.98005   3.00712   3.03445   3.04807   3.09142
 Alpha virt. eigenvalues --    3.10002   3.11983   3.13754   3.18305   3.19459
 Alpha virt. eigenvalues --    3.22292   3.23526   3.27158   3.28441   3.30317
 Alpha virt. eigenvalues --    3.31279   3.36025   3.41326   3.41869   3.43851
 Alpha virt. eigenvalues --    3.44935   3.46580   3.48403   3.51742   3.53431
 Alpha virt. eigenvalues --    3.58941   3.61631   3.67846   3.68842   3.71459
 Alpha virt. eigenvalues --    3.72504   3.74159   3.75324   3.78177   3.80860
 Alpha virt. eigenvalues --    3.82796   3.84023   3.85823   3.88279   3.92566
 Alpha virt. eigenvalues --    3.92996   3.96134   3.96944   3.98090   3.99494
 Alpha virt. eigenvalues --    4.01975   4.05692   4.07895   4.10093   4.10847
 Alpha virt. eigenvalues --    4.13584   4.20291   4.21445   4.24235   4.28263
 Alpha virt. eigenvalues --    4.29924   4.31239   4.36224   4.37161   4.41969
 Alpha virt. eigenvalues --    4.43549   4.54453   4.62553   4.68954   4.73681
 Alpha virt. eigenvalues --    4.77390   4.82222   4.84603   4.85279   4.87230
 Alpha virt. eigenvalues --    4.89857   4.95403   4.98082   5.01463   5.07291
 Alpha virt. eigenvalues --    5.10580   5.13361   5.15588   5.15824   5.18834
 Alpha virt. eigenvalues --    5.25884   5.31639   5.32387   5.35368   5.37197
 Alpha virt. eigenvalues --    5.38211   5.41773   5.44782   5.49673   5.54980
 Alpha virt. eigenvalues --    5.61598   5.70413   5.73107   5.79694   5.84558
 Alpha virt. eigenvalues --    5.86022   5.95230   5.99240   6.15628   6.31282
 Alpha virt. eigenvalues --    6.36651   6.38576   6.50602   6.55325   6.64165
 Alpha virt. eigenvalues --    6.66683   6.73779   6.86599   6.87646   7.05344
 Alpha virt. eigenvalues --    7.09634   7.52663  10.63489  10.82475  11.40680
 Alpha virt. eigenvalues --   12.45016  13.40879
  Beta  occ. eigenvalues --  -19.17180 -19.12695 -10.24261 -10.22319 -10.16988
  Beta  occ. eigenvalues --   -1.03821  -0.91648  -0.75442  -0.69136  -0.58647
  Beta  occ. eigenvalues --   -0.50386  -0.47258  -0.44819  -0.41641  -0.40239
  Beta  occ. eigenvalues --   -0.38802  -0.37400  -0.32992  -0.29996  -0.26145
  Beta virt. eigenvalues --   -0.11396  -0.01022   0.03965   0.06381   0.07011
  Beta virt. eigenvalues --    0.08011   0.10777   0.11207   0.12666   0.14846
  Beta virt. eigenvalues --    0.17947   0.23305   0.23936   0.26729   0.29374
  Beta virt. eigenvalues --    0.30580   0.33642   0.37786   0.39638   0.41389
  Beta virt. eigenvalues --    0.41998   0.42556   0.44735   0.45231   0.46363
  Beta virt. eigenvalues --    0.47243   0.47707   0.49812   0.51729   0.53649
  Beta virt. eigenvalues --    0.55671   0.60345   0.62874   0.66573   0.66950
  Beta virt. eigenvalues --    0.69449   0.70821   0.75144   0.76822   0.79085
  Beta virt. eigenvalues --    0.82661   0.84507   0.86749   0.90191   0.91000
  Beta virt. eigenvalues --    0.93219   0.96739   0.97053   1.01079   1.03452
  Beta virt. eigenvalues --    1.04673   1.05700   1.07561   1.08659   1.12768
  Beta virt. eigenvalues --    1.14373   1.15469   1.21048   1.21889   1.23402
  Beta virt. eigenvalues --    1.26021   1.28179   1.29808   1.32508   1.34449
  Beta virt. eigenvalues --    1.36809   1.37424   1.38415   1.42211   1.44592
  Beta virt. eigenvalues --    1.47402   1.52575   1.53250   1.58529   1.63716
  Beta virt. eigenvalues --    1.67770   1.70253   1.74378   1.81324   1.86987
  Beta virt. eigenvalues --    1.93527   1.96783   2.04310   2.06863   2.20153
  Beta virt. eigenvalues --    2.21684   2.23554   2.26059   2.32632   2.38332
  Beta virt. eigenvalues --    2.39726   2.42921   2.48225   2.49306   2.52432
  Beta virt. eigenvalues --    2.54192   2.58873   2.62713   2.65837   2.70263
  Beta virt. eigenvalues --    2.72263   2.73470   2.75539   2.79575   2.80358
  Beta virt. eigenvalues --    2.87921   2.89099   2.91263   2.92891   2.93967
  Beta virt. eigenvalues --    2.95317   2.98619   3.01749   3.04423   3.05496
  Beta virt. eigenvalues --    3.09652   3.10598   3.13065   3.14518   3.18882
  Beta virt. eigenvalues --    3.19666   3.22694   3.23902   3.27531   3.28712
  Beta virt. eigenvalues --    3.30430   3.31727   3.36787   3.41741   3.42151
  Beta virt. eigenvalues --    3.44202   3.45164   3.46834   3.48993   3.51864
  Beta virt. eigenvalues --    3.53933   3.59172   3.62302   3.68108   3.68996
  Beta virt. eigenvalues --    3.71645   3.72844   3.74442   3.76130   3.78383
  Beta virt. eigenvalues --    3.81123   3.83095   3.84270   3.86099   3.88603
  Beta virt. eigenvalues --    3.92750   3.93058   3.96179   3.97251   3.98199
  Beta virt. eigenvalues --    3.99832   4.02273   4.05809   4.08234   4.10372
  Beta virt. eigenvalues --    4.11117   4.13974   4.20446   4.21716   4.24502
  Beta virt. eigenvalues --    4.28272   4.30777   4.31440   4.37010   4.37629
  Beta virt. eigenvalues --    4.42733   4.43821   4.54511   4.62882   4.69165
  Beta virt. eigenvalues --    4.74319   4.77858   4.82381   4.85093   4.85749
  Beta virt. eigenvalues --    4.87436   4.91080   4.96266   4.98717   5.01982
  Beta virt. eigenvalues --    5.08673   5.10811   5.13750   5.15615   5.16636
  Beta virt. eigenvalues --    5.19020   5.26508   5.31948   5.32936   5.35454
  Beta virt. eigenvalues --    5.38146   5.38513   5.43456   5.45630   5.50719
  Beta virt. eigenvalues --    5.55495   5.61857   5.71088   5.73237   5.79661
  Beta virt. eigenvalues --    5.84771   5.86050   5.95314   5.99298   6.15715
  Beta virt. eigenvalues --    6.34410   6.37778   6.42104   6.53328   6.55859
  Beta virt. eigenvalues --    6.64505   6.67046   6.76080   6.87202   6.88521
  Beta virt. eigenvalues --    7.05361   7.10190   7.54340  10.63528  10.83798
  Beta virt. eigenvalues --   11.41139  12.45895  13.40934
          Condensed to atoms (all electrons):
               1          2          3          4          5          6
     1  C    5.090486   0.410273   0.400961   0.333370  -0.026889  -0.039012
     2  H    0.410273   0.514111  -0.030386  -0.032473  -0.005017   0.004263
     3  H    0.400961  -0.030386   0.523390  -0.030866   0.004006  -0.001708
     4  C    0.333370  -0.032473  -0.030866   4.612450   0.405920   0.337430
     5  H   -0.026889  -0.005017   0.004006   0.405920   0.650295  -0.068975
     6  C   -0.039012   0.004263  -0.001708   0.337430  -0.068975   4.951259
     7  H   -0.004670   0.000018   0.004084  -0.028873   0.008718   0.381999
     8  H    0.007281  -0.000328  -0.000186  -0.028509  -0.005053   0.397400
     9  H   -0.000869  -0.000047   0.000050  -0.026091   0.003189   0.368978
    10  O    0.009364  -0.000343   0.000171   0.282256  -0.043737  -0.050979
    11  O    0.013148  -0.000093  -0.000299  -0.011173   0.008263  -0.007100
    12  H   -0.002798   0.000120   0.000032  -0.002250   0.000498   0.000704
               7          8          9         10         11         12
     1  C   -0.004670   0.007281  -0.000869   0.009364   0.013148  -0.002798
     2  H    0.000018  -0.000328  -0.000047  -0.000343  -0.000093   0.000120
     3  H    0.004084  -0.000186   0.000050   0.000171  -0.000299   0.000032
     4  C   -0.028873  -0.028509  -0.026091   0.282256  -0.011173  -0.002250
     5  H    0.008718  -0.005053   0.003189  -0.043737   0.008263   0.000498
     6  C    0.381999   0.397400   0.368978  -0.050979  -0.007100   0.000704
     7  H    0.597241  -0.025053  -0.026919   0.006500  -0.000717   0.000061
     8  H   -0.025053   0.560163  -0.028902  -0.004380   0.010375  -0.000822
     9  H   -0.026919  -0.028902   0.620714   0.005038   0.000044  -0.000056
    10  O    0.006500  -0.004380   0.005038   8.046439   0.003244   0.003658
    11  O   -0.000717   0.010375   0.000044   0.003244   8.003692   0.299868
    12  H    0.000061  -0.000822  -0.000056   0.003658   0.299868   0.478340
          Atomic-Atomic Spin Densities.
               1          2          3          4          5          6
     1  C    0.695157   0.006070   0.006865  -0.007902  -0.001662  -0.001235
     2  H    0.006070  -0.027373   0.003043   0.000139   0.000538  -0.000187
     3  H    0.006865   0.003043  -0.029343  -0.000165  -0.000221   0.000416
     4  C   -0.007902   0.000139  -0.000165  -0.031859   0.002499   0.001589
     5  H   -0.001662   0.000538  -0.000221   0.002499   0.008154   0.000566
     6  C   -0.001235  -0.000187   0.000416   0.001589   0.000566  -0.002279
     7  H    0.000019   0.000017  -0.000155   0.000783   0.000160  -0.000214
     8  H   -0.000212   0.000002   0.000017  -0.001065  -0.001124   0.000145
     9  H    0.000695  -0.000010   0.000022  -0.000289   0.000016   0.000141
    10  O   -0.026480  -0.000601  -0.000415   0.015198  -0.006598   0.000710
    11  O    0.010227   0.000050  -0.000103  -0.004830   0.003046  -0.000192
    12  H   -0.001184  -0.000029   0.000008   0.000320  -0.000499   0.000042
               7          8          9         10         11         12
     1  C    0.000019  -0.000212   0.000695  -0.026480   0.010227  -0.001184
     2  H    0.000017   0.000002  -0.000010  -0.000601   0.000050  -0.000029
     3  H   -0.000155   0.000017   0.000022  -0.000415  -0.000103   0.000008
     4  C    0.000783  -0.001065  -0.000289   0.015198  -0.004830   0.000320
     5  H    0.000160  -0.001124   0.000016  -0.006598   0.003046  -0.000499
     6  C   -0.000214   0.000145   0.000141   0.000710  -0.000192   0.000042
     7  H    0.000375  -0.000923   0.000225  -0.000581   0.000401  -0.000037
     8  H   -0.000923   0.004920  -0.000251   0.001513  -0.002158   0.000232
     9  H    0.000225  -0.000251   0.000422   0.000135  -0.000061   0.000005
    10  O   -0.000581   0.001513   0.000135  -0.061546  -0.087996   0.005723
    11  O    0.000401  -0.002158  -0.000061  -0.087996   0.628662  -0.001475
    12  H   -0.000037   0.000232   0.000005   0.005723  -0.001475  -0.010741
 Mulliken charges and spin densities:
               1          2
     1  C   -0.190645   0.680357
     2  H    0.139901  -0.018341
     3  H    0.130752  -0.020029
     4  C    0.188810  -0.025582
     5  H    0.068782   0.004875
     6  C   -0.274259  -0.000497
     7  H    0.087611   0.000071
     8  H    0.118013   0.001098
     9  H    0.084871   0.001049
    10  O   -0.257231  -0.160938
    11  O   -0.319250   0.545573
    12  H    0.222645  -0.007635
 Sum of Mulliken charges =  -0.00000   1.00000
 Mulliken charges and spin densities with hydrogens summed into heavy atoms:
               1          2
     1  C    0.080008   0.641986
     4  C    0.257592  -0.020707
     6  C    0.016236   0.001721
    10  O   -0.257231  -0.160938
    11  O   -0.096605   0.537938
 APT charges:
               1
     1  C   -0.712986
     2  H    0.474199
     3  H    0.394007
     4  C   -0.201025
     5  H    0.277481
     6  C   -0.935280
     7  H    0.282587
     8  H    0.311927
     9  H    0.400301
    10  O   -0.167479
    11  O   -0.668509
    12  H    0.544778
 Sum of APT charges =  -0.00000
 APT charges with hydrogens summed into heavy atoms:
               1
     1  C    0.155220
     4  C    0.076456
     6  C    0.059535
    10  O   -0.167479
    11  O   -0.123731
 Electronic spatial extent (au):  <R**2>=            465.7304
 Charge=             -0.0000 electrons
 Dipole moment (field-independent basis, Debye):
    X=              2.0580    Y=             -1.1165    Z=              1.0004  Tot=              2.5462
 Quadrupole moment (field-independent basis, Debye-Ang):
   XX=            -29.3952   YY=            -29.1784   ZZ=            -31.0718
   XY=              1.5317   XZ=             -1.7054   YZ=             -0.8061
 Traceless Quadrupole moment (field-independent basis, Debye-Ang):
   XX=              0.4866   YY=              0.7034   ZZ=             -1.1900
   XY=              1.5317   XZ=             -1.7054   YZ=             -0.8061
 Octapole moment (field-independent basis, Debye-Ang**2):
  XXX=            -17.5358  YYY=             -5.0399  ZZZ=             -0.7320  XYY=             -2.6143
  XXY=            -10.7011  XXZ=              0.7750  XZZ=             -1.0302  YZZ=             -1.3938
  YYZ=              1.5021  XYZ=              1.2458
 Hexadecapole moment (field-independent basis, Debye-Ang**3):
 XXXX=           -295.0041 YYYY=           -209.3131 ZZZZ=            -60.3029 XXXY=             20.5242
 XXXZ=             -9.4556 YYYX=             -4.5111 YYYZ=             -2.6713 ZZZX=             -2.4629
 ZZZY=             -0.0026 XXYY=            -80.6276 XXZZ=            -63.7906 YYZZ=            -45.7005
 XXYZ=              0.8328 YYXZ=              0.9298 ZZXY=             -0.2133
 N-N= 1.818876498697D+02 E-N=-9.938248627929D+02  KE= 2.671742106198D+02
  Exact polarizability:   0.000   0.000   0.000   0.000   0.000   0.000
 Approx polarizability: 124.025 -22.456  69.233   0.102   1.092  56.406
                          Isotropic Fermi Contact Couplings
        Atom                 a.u.       MegaHertz       Gauss      10(-4) cm-1
     1  C(13)              0.00694       7.80513       2.78506       2.60351
     2  H(1)              -0.00878     -39.22915     -13.99794     -13.08544
     3  H(1)              -0.00900     -40.24915     -14.36190     -13.42567
     4  C(13)             -0.00718      -8.06862      -2.87908      -2.69140
     5  H(1)               0.00281      12.55455       4.47978       4.18775
     6  C(13)              0.00099       1.11288       0.39710       0.37122
     7  H(1)              -0.00021      -0.93366      -0.33315      -0.31144
     8  H(1)               0.00048       2.14460       0.76525       0.71536
     9  H(1)               0.00041       1.83712       0.65553       0.61280
    10  O(17)              0.49098    -297.63040    -106.20193     -99.27882
    11  O(17)              0.01515      -9.18088      -3.27597      -3.06241
    12  H(1)              -0.00800     -35.76990     -12.76359     -11.93155
 --------------------------------------------------------
       Center         ----  Spin Dipole Couplings  ----
                      3XX-RR        3YY-RR        3ZZ-RR
 --------------------------------------------------------
     1   Atom        0.447143     -0.284992     -0.162152
     2   Atom       -0.013984      0.023233     -0.009249
     3   Atom        0.005221     -0.044947      0.039726
     4   Atom       -0.011570      0.008956      0.002614
     5   Atom        0.004985     -0.002633     -0.002351
     6   Atom        0.000798      0.004566     -0.005363
     7   Atom       -0.001278      0.003472     -0.002194
     8   Atom        0.001664      0.002635     -0.004299
     9   Atom       -0.001472      0.005291     -0.003819
    10   Atom       -0.357108     -0.156187      0.513296
    11   Atom        1.406236     -0.314482     -1.091754
    12   Atom        0.005092      0.060868     -0.065960
 --------------------------------------------------------
                        XY            XZ            YZ
 --------------------------------------------------------
     1   Atom        0.336223      0.445840      0.163232
     2   Atom        0.012337      0.019269     -0.037996
     3   Atom        0.014323     -0.019095      0.006451
     4   Atom        0.007564     -0.001749      0.004554
     5   Atom       -0.005254     -0.002039      0.006112
     6   Atom       -0.003569      0.001570     -0.002390
     7   Atom       -0.000706     -0.000110     -0.003870
     8   Atom        0.002026     -0.000206     -0.000057
     9   Atom        0.001088      0.000351      0.001089
    10   Atom        0.661944     -0.010093     -0.040762
    11   Atom       -1.435904     -0.386820      0.224769
    12   Atom        0.048485     -0.020888     -0.024393
 --------------------------------------------------------


 ---------------------------------------------------------------------------------
              Anisotropic Spin Dipole Couplings in Principal Axis System
 ---------------------------------------------------------------------------------

       Atom             a.u.   MegaHertz   Gauss  10(-4) cm-1        Axes

              Baa    -0.4190   -56.230   -20.064   -18.756 -0.4746  0.8285  0.2973
     1 C(13)  Bbb    -0.3909   -52.455   -18.717   -17.497 -0.2676 -0.4576  0.8480
              Bcc     0.8099   108.685    38.782    36.253  0.8385  0.3229  0.4388
 
              Baa    -0.0492   -26.248    -9.366    -8.755 -0.5448  0.4605  0.7008
     2 H(1)   Bbb     0.0009     0.469     0.167     0.157  0.8385  0.3049  0.4516
              Bcc     0.0483    25.779     9.198     8.599 -0.0057  0.8337 -0.5522
 
              Baa    -0.0502   -26.786    -9.558    -8.935 -0.2897  0.9483 -0.1295
     3 H(1)   Bbb     0.0020     1.065     0.380     0.355  0.8669  0.3173  0.3845
              Bcc     0.0482    25.721     9.178     8.580 -0.4057  0.0009  0.9140
 
              Baa    -0.0146    -1.963    -0.700    -0.655  0.9256 -0.3320  0.1816
     4 C(13)  Bbb     0.0017     0.234     0.083     0.078 -0.2815 -0.2835  0.9167
              Bcc     0.0129     1.729     0.617     0.577  0.2528  0.8997  0.3559
 
              Baa    -0.0091    -4.834    -1.725    -1.612  0.1907  0.7538 -0.6288
     5 H(1)   Bbb    -0.0006    -0.314    -0.112    -0.105  0.6238  0.4015  0.6706
              Bcc     0.0096     5.148     1.837     1.717  0.7580 -0.5201 -0.3937
 
              Baa    -0.0060    -0.806    -0.288    -0.269 -0.1330  0.1756  0.9754
     6 C(13)  Bbb    -0.0014    -0.181    -0.065    -0.060  0.8521  0.5228  0.0221
              Bcc     0.0074     0.988     0.352     0.329 -0.5061  0.8341 -0.2192
 
              Baa    -0.0042    -2.250    -0.803    -0.751  0.1424  0.4554  0.8788
     7 H(1)   Bbb    -0.0013    -0.676    -0.241    -0.226  0.9861  0.0115 -0.1657
              Bcc     0.0055     2.927     1.044     0.976 -0.0856  0.8902 -0.4474
 
              Baa    -0.0043    -2.298    -0.820    -0.766  0.0352 -0.0021  0.9994
     8 H(1)   Bbb     0.0001     0.037     0.013     0.012  0.7841 -0.6200 -0.0290
              Bcc     0.0042     2.260     0.806     0.754  0.6197  0.7846 -0.0202
 
              Baa    -0.0040    -2.117    -0.755    -0.706 -0.0934 -0.1054  0.9900
     9 H(1)   Bbb    -0.0016    -0.869    -0.310    -0.290  0.9832 -0.1663  0.0750
              Bcc     0.0056     2.986     1.066     0.996  0.1568  0.9804  0.1192
 
              Baa    -0.9264    67.035    23.920    22.361  0.7580 -0.6521 -0.0131
    10 O(17)  Bbb     0.4005   -28.976   -10.339    -9.665  0.6222  0.7169  0.3146
              Bcc     0.5260   -38.059   -13.580   -12.695 -0.1957 -0.2466  0.9491
 
              Baa    -1.1521    83.365    29.747    27.807  0.0151 -0.2349  0.9719
    11 O(17)  Bbb    -1.1271    81.555    29.101    27.204  0.5060  0.8401  0.1952
              Bcc     2.2792  -164.919   -58.847   -55.011  0.8624 -0.4888 -0.1316
 
              Baa    -0.0728   -38.851   -13.863   -12.959  0.1946  0.1073  0.9750
    12 H(1)   Bbb    -0.0223   -11.898    -4.245    -3.969  0.8441 -0.5246 -0.1108
              Bcc     0.0951    50.748    18.108    16.928  0.4996  0.8446 -0.1927
 

 ---------------------------------------------------------------------------------

 Calling FoFJK, ICntrl=    100147 FMM=F ISym2X=0 I1Cent= 0 IOpClX= 1 NMat=1 NMatS=1 NMatT=0.
 ***** Axes restored to original set *****
 -------------------------------------------------------------------
 Center     Atomic                   Forces (Hartrees/Bohr)
 Number     Number              X              Y              Z
 -------------------------------------------------------------------
      1        6          -0.001869446   -0.000550486   -0.000895961
      2        1          -0.000230293    0.003125228   -0.001345427
      3        1          -0.001342696    0.000484168    0.002880941
      4        6           0.001998090   -0.000385893    0.000054102
      5        1           0.000378848   -0.000166676   -0.003087734
      6        6          -0.000209739    0.000296655   -0.000396270
      7        1          -0.000620480    0.000106342    0.003016244
      8        1           0.002494347   -0.001882026   -0.000239541
      9        1          -0.002543858   -0.001336093   -0.001382272
     10        8           0.004253119    0.000022488    0.001093653
     11        8          -0.004932736   -0.006671078    0.001615150
     12        1           0.002624846    0.006957373   -0.001312885
 -------------------------------------------------------------------
 Cartesian Forces:  Max     0.006957373 RMS     0.002460447
 FormGI is forming the generalized inverse of G from B-inverse, IUseBI=4.

 GradGradGradGradGradGradGradGradGradGradGradGradGradGradGradGradGradGrad
 Berny optimization.
 Internal  Forces:  Max     0.007483136 RMS     0.001881544
 Search for a saddle point.
 Step number   1 out of a maximum of   57
 All quantities printed in internal units (Hartrees-Bohrs-Radians)
 Swapping is turned off.
 Second derivative matrix not updated -- analytic derivatives used.
 ITU=  0
     Eigenvalues ---   -0.17508   0.00217   0.00268   0.00740   0.00906
     Eigenvalues ---    0.01822   0.03435   0.04315   0.04407   0.06278
     Eigenvalues ---    0.08103   0.09923   0.09971   0.10547   0.12229
     Eigenvalues ---    0.12447   0.12782   0.15096   0.16903   0.19378
     Eigenvalues ---    0.27706   0.29043   0.31436   0.32485   0.32743
     Eigenvalues ---    0.33534   0.35355   0.35514   0.35710   0.48581
 Eigenvectors required to have negative eigenvalues:
                          R10       A6        D13       D14       A5
   1                   -0.68489   0.44270  -0.18311  -0.18283  -0.18025
                          D15       A9        D9        D8        D7
   1                   -0.17984  -0.17743   0.17541   0.17242   0.17214
 RFO step:  Lambda0=7.922765725D-05 Lambda=-4.41880575D-04.
 Linear search not attempted -- option 19 set.
 Iteration  1 RMS(Cart)=  0.00947152 RMS(Int)=  0.00006681
 Iteration  2 RMS(Cart)=  0.00008241 RMS(Int)=  0.00000558
 Iteration  3 RMS(Cart)=  0.00000001 RMS(Int)=  0.00000558
 Variable       Old X    -DE/DX   Delta X   Delta X   Delta X     New X
                                 (Linear)    (Quad)   (Total)
    R1        2.04734  -0.00336   0.00000  -0.00958  -0.00958   2.03776
    R2        2.04887  -0.00318   0.00000  -0.00898  -0.00898   2.03989
    R3        2.79603  -0.00448   0.00000  -0.01053  -0.01053   2.78550
    R4        2.07403  -0.00310   0.00000  -0.00898  -0.00898   2.06505
    R5        2.86577  -0.00311   0.00000  -0.00989  -0.00989   2.85588
    R6        2.65903  -0.00226   0.00000  -0.00058  -0.00058   2.65845
    R7        2.06946  -0.00308   0.00000  -0.00916  -0.00916   2.06030
    R8        2.06708  -0.00313   0.00000  -0.00927  -0.00927   2.05781
    R9        2.07177  -0.00318   0.00000  -0.00921  -0.00921   2.06256
   R10        3.29480   0.00219   0.00000  -0.01672  -0.01672   3.27808
   R11        1.84206  -0.00748   0.00000  -0.01535  -0.01535   1.82670
    A1        2.07069   0.00067   0.00000   0.00657   0.00656   2.07725
    A2        2.10491  -0.00047   0.00000  -0.00400  -0.00401   2.10090
    A3        2.09721  -0.00017   0.00000  -0.00130  -0.00131   2.09590
    A4        1.97945   0.00004   0.00000  -0.00166  -0.00165   1.97780
    A5        2.07340   0.00063   0.00000   0.00049   0.00048   2.07388
    A6        1.44673  -0.00133   0.00000   0.00898   0.00898   1.45570
    A7        1.95542  -0.00028   0.00000  -0.00098  -0.00098   1.95444
    A8        1.95109  -0.00009   0.00000  -0.00586  -0.00586   1.94523
    A9        2.00438   0.00087   0.00000   0.00065   0.00064   2.00502
   A10        1.92859   0.00009   0.00000   0.00189   0.00189   1.93048
   A11        1.90975   0.00007   0.00000   0.00198   0.00198   1.91173
   A12        1.93283  -0.00039   0.00000  -0.00386  -0.00386   1.92897
   A13        1.89217   0.00006   0.00000   0.00162   0.00162   1.89379
   A14        1.90229   0.00014   0.00000   0.00005   0.00005   1.90234
   A15        1.89748   0.00005   0.00000  -0.00164  -0.00164   1.89584
   A16        1.88229   0.00114   0.00000   0.00560   0.00560   1.88790
   A17        1.62041   0.00186   0.00000   0.01776   0.01776   1.63817
    D1        0.42267  -0.00040   0.00000  -0.00432  -0.00432   0.41836
    D2        2.77534  -0.00009   0.00000  -0.00733  -0.00734   2.76800
    D3       -1.50957   0.00025   0.00000  -0.00161  -0.00161  -1.51118
    D4       -2.87527  -0.00018   0.00000   0.00581   0.00581  -2.86946
    D5       -0.52260   0.00013   0.00000   0.00279   0.00279  -0.51981
    D6        1.47568   0.00047   0.00000   0.00851   0.00852   1.48419
    D7        0.75172  -0.00048   0.00000   0.00680   0.00680   0.75852
    D8        2.83390  -0.00031   0.00000   0.01120   0.01120   2.84511
    D9       -1.35792  -0.00045   0.00000   0.00803   0.00803  -1.34989
   D10        3.11442  -0.00004   0.00000   0.00352   0.00352   3.11794
   D11       -1.08658   0.00012   0.00000   0.00792   0.00792  -1.07865
   D12        1.00478  -0.00002   0.00000   0.00475   0.00475   1.00954
   D13       -0.91811   0.00035   0.00000  -0.00511  -0.00511  -0.92322
   D14        1.16407   0.00051   0.00000  -0.00071  -0.00071   1.16337
   D15       -3.02775   0.00037   0.00000  -0.00388  -0.00388  -3.03163
   D16        2.96208  -0.00021   0.00000   0.00187   0.00185   2.96393
   D17        0.99996   0.00026   0.00000   0.00041   0.00043   1.00038
   D18       -1.25284  -0.00003   0.00000   0.00661   0.00661  -1.24623
   D19       -2.28610  -0.00010   0.00000  -0.01279  -0.01279  -2.29889
         Item               Value     Threshold  Converged?
 Maximum Force            0.007483     0.000450     NO 
 RMS     Force            0.001882     0.000300     NO 
 Maximum Displacement     0.023431     0.001800     NO 
 RMS     Displacement     0.009453     0.001200     NO 
 Predicted change in Energy=-1.817756D-04
 GradGradGradGradGradGradGradGradGradGradGradGradGradGradGradGradGradGrad

                          Input orientation:                          
 ---------------------------------------------------------------------
 Center     Atomic      Atomic             Coordinates (Angstroms)
 Number     Number       Type             X           Y           Z
 ---------------------------------------------------------------------
      1          6           0        1.328146   -1.113396   -0.009991
      2          1           0        1.336284   -2.019103    0.575192
      3          1           0        1.816131   -1.107683   -0.972843
      4          6           0        0.510226    0.038447    0.410739
      5          1           0        0.293687    0.047039    1.481813
      6          6           0        0.867787    1.413205   -0.105126
      7          1           0        1.102434    1.374765   -1.169147
      8          1           0        0.024349    2.086804    0.038697
      9          1           0        1.728574    1.812364    0.434321
     10          8           0       -0.499777   -0.621097   -0.313111
     11          8           0       -2.007582    0.169700    0.018993
     12          1           0       -2.475750   -0.656344    0.200329
 ---------------------------------------------------------------------
                    Distance matrix (angstroms):
                    1          2          3          4          5
     1  C    0.000000
     2  H    1.078336   0.000000
     3  H    1.079466   1.859395   0.000000
     4  C    1.474025   2.223270   2.221103   0.000000
     5  H    2.154575   2.485540   3.110716   1.092777   0.000000
     6  C    2.569960   3.530306   2.829693   1.511266   2.171262
     7  H    2.754185   3.823055   2.590453   2.152323   3.073193
     8  H    3.455943   4.343670   3.799795   2.137816   2.513120
     9  H    2.986273   3.854073   3.242599   2.152140   2.504499
    10  O    1.917170   2.472776   2.456713   1.406792   2.073100
    11  O    3.574110   4.035054   4.151654   2.551481   2.729603
    12  H    3.837024   4.065616   4.472167   3.072957   3.131570
                    6          7          8          9         10
     6  C    0.000000
     7  H    1.090264   0.000000
     8  H    1.088948   1.768658   0.000000
     9  H    1.091460   1.776134   1.770937   0.000000
    10  O    2.460056   2.698767   2.780505   3.383184   0.000000
    11  O    3.135197   3.540629   2.793640   4.102402   1.734685
    12  H    3.944056   4.336389   3.715035   4.881149   2.041895
                   11         12
    11  O    0.000000
    12  H    0.966651   0.000000
 Stoichiometry    C3H7O2(2)
 Framework group  C1[X(C3H7O2)]
 Deg. of freedom    30
 Full point group                 C1      NOp   1
 Largest Abelian subgroup         C1      NOp   1
 Largest concise Abelian subgroup C1      NOp   1
                         Standard orientation:                         
 ---------------------------------------------------------------------
 Center     Atomic      Atomic             Coordinates (Angstroms)
 Number     Number       Type             X           Y           Z
 ---------------------------------------------------------------------
      1          6           0        1.328475   -1.111817   -0.010983
      2          1           0        1.336768   -2.018147    0.573232
      3          1           0        1.816763   -1.104889   -0.973674
      4          6           0        0.509989    0.039267    0.410720
      5          1           0        0.293107    0.046630    1.481734
      6          6           0        0.867196    1.414711   -0.103559
      7          1           0        1.102195    1.377499   -1.167546
      8          1           0        0.023459    2.087839    0.040717
      9          1           0        1.727662    1.813616    0.436589
     10          8           0       -0.499537   -0.619881   -0.314157
     11          8           0       -2.007745    0.169994    0.018315
     12          1           0       -2.475659   -0.656420    0.198617
 ---------------------------------------------------------------------
 Rotational constants (GHZ):           7.2605443           4.0077505           2.8376229
 Standard basis: CC-pVTZ+d (5D, 7F)
 There are   280 symmetry adapted cartesian basis functions of A   symmetry.
 There are   248 symmetry adapted basis functions of A   symmetry.
   248 basis functions,   379 primitive gaussians,   280 cartesian basis functions
    21 alpha electrons       20 beta electrons
       nuclear repulsion energy       182.3262984218 Hartrees.
 NAtoms=   12 NActive=   12 NUniq=   12 SFac= 1.00D+00 NAtFMM=   60 NAOKFM=F Big=F
 Integral buffers will be    131072 words long.
 Raffenetti 2 integral format.
 Two-electron integral symmetry is turned on.
 One-electron integrals computed using PRISM.
 NBasis=   248 RedAO= T EigKep=  5.88D-04  NBF=   248
 NBsUse=   248 1.00D-06 EigRej= -1.00D+00 NBFU=   248
 Initial guess from the checkpoint file:  "RisopO2-OH-elim-TS4-b3lyp-c.chk"
 B after Tr=    -0.000000    0.000000    0.000000
         Rot=    1.000000   -0.000373   -0.000337   -0.000387 Ang=  -0.07 deg.
 Initial guess <Sx>= 0.0000 <Sy>= 0.0000 <Sz>= 0.5000 <S**2>= 0.8103 S= 0.5297
 ExpMin= 1.03D-01 ExpMax= 1.53D+04 ExpMxC= 5.22D+02 IAcc=3 IRadAn=         5 AccDes= 0.00D+00
 Harris functional with IExCor=  402 and IRadAn=       5 diagonalized for initial guess.
 HarFok:  IExCor=  402 AccDes= 0.00D+00 IRadAn=         5 IDoV= 1 UseB2=F ITyADJ=14
 ICtDFT=  3500011 ScaDFX=  1.000000  1.000000  1.000000  1.000000
 FoFCou: FMM=F IPFlag=           0 FMFlag=      100000 FMFlg1=           0
         NFxFlg=           0 DoJE=T BraDBF=F KetDBF=T FulRan=T
         wScrn=  0.000000 ICntrl=       500 IOpCl=  0 I1Cent=   200000004 NGrid=           0
         NMat0=    1 NMatS0=      1 NMatT0=    0 NMatD0=    1 NMtDS0=    0 NMtDT0=    0
 Petite list used in FoFCou.
 Keep R1 and R2 ints in memory in canonical form, NReq=980075672.
 Requested convergence on RMS density matrix=1.00D-08 within 128 cycles.
 Requested convergence on MAX density matrix=1.00D-06.
 Requested convergence on             energy=1.00D-06.
 No special actions if energy rises.
 Integral accuracy reduced to 1.0D-05 until final iterations.
 Initial convergence to 1.0D-05 achieved.  Increase integral accuracy.
 SCF Done:  E(UB3LYP) =  -268.907341433     A.U. after   16 cycles
            NFock= 16  Conv=0.47D-08     -V/T= 2.0062
 <Sx>= 0.0000 <Sy>= 0.0000 <Sz>= 0.5000 <S**2>= 0.8088 S= 0.5290
 <L.S>= 0.000000000000E+00
 Annihilation of the first spin contaminant:
 S**2 before annihilation     0.8088,   after     0.7503
 QCSCF skips out because SCF is already converged.
 Calling FoFJK, ICntrl=      2127 FMM=F ISym2X=0 I1Cent= 0 IOpClX= 1 NMat=1 NMatS=1 NMatT=0.
 ***** Axes restored to original set *****
 -------------------------------------------------------------------
 Center     Atomic                   Forces (Hartrees/Bohr)
 Number     Number              X              Y              Z
 -------------------------------------------------------------------
      1        6          -0.000023713   -0.000005784   -0.000018589
      2        1           0.000003536   -0.000039770    0.000025584
      3        1           0.000028450    0.000002058   -0.000030201
      4        6          -0.000027020    0.000038063    0.000012579
      5        1          -0.000009326   -0.000001469    0.000037211
      6        6          -0.000000229   -0.000003373   -0.000005006
      7        1           0.000007944   -0.000000743   -0.000036994
      8        1          -0.000028521    0.000025671    0.000008744
      9        1           0.000031154    0.000014077    0.000016587
     10        8           0.000014545   -0.000049595   -0.000015614
     11        8           0.000087849    0.000206832   -0.000027664
     12        1          -0.000084669   -0.000185968    0.000033363
 -------------------------------------------------------------------
 Cartesian Forces:  Max     0.000206832 RMS     0.000055335

 GradGradGradGradGradGradGradGradGradGradGradGradGradGradGradGradGradGrad
 Berny optimization.
 FormGI is forming the generalized inverse of G from B-inverse, IUseBI=4.
 Internal  Forces:  Max     0.000206343 RMS     0.000035702
 Search for a saddle point.
 Step number   2 out of a maximum of   57
 All quantities printed in internal units (Hartrees-Bohrs-Radians)
 Swapping is turned off.
 Update second derivatives using D2CorX and points    1    2
 ITU=  0  0
     Eigenvalues ---   -0.17519   0.00207   0.00259   0.00738   0.00906
     Eigenvalues ---    0.01805   0.03435   0.04315   0.04403   0.06276
     Eigenvalues ---    0.08100   0.09925   0.09972   0.10545   0.12230
     Eigenvalues ---    0.12447   0.12784   0.15104   0.16903   0.19398
     Eigenvalues ---    0.27722   0.29046   0.31439   0.32485   0.32745
     Eigenvalues ---    0.33577   0.35374   0.35527   0.35791   0.48945
 Eigenvectors required to have negative eigenvalues:
                          R10       A6        D13       D14       A5
   1                   -0.68506   0.44321  -0.18284  -0.18236  -0.18019
                          D15       A9        D9        D8        D7
   1                   -0.17953  -0.17728   0.17539   0.17257   0.17208
 RFO step:  Lambda0=2.766811669D-09 Lambda=-1.73161581D-07.
 Linear search not attempted -- option 19 set.
 Iteration  1 RMS(Cart)=  0.00056606 RMS(Int)=  0.00000041
 Iteration  2 RMS(Cart)=  0.00000039 RMS(Int)=  0.00000001
 Variable       Old X    -DE/DX   Delta X   Delta X   Delta X     New X
                                 (Linear)    (Quad)   (Total)
    R1        2.03776   0.00005   0.00000   0.00013   0.00013   2.03789
    R2        2.03989   0.00004   0.00000   0.00011   0.00011   2.04001
    R3        2.78550   0.00005   0.00000   0.00018   0.00018   2.78568
    R4        2.06505   0.00004   0.00000   0.00011   0.00011   2.06516
    R5        2.85588   0.00004   0.00000   0.00013   0.00013   2.85601
    R6        2.65845   0.00001   0.00000   0.00001   0.00001   2.65846
    R7        2.06030   0.00004   0.00000   0.00011   0.00011   2.06041
    R8        2.05781   0.00004   0.00000   0.00011   0.00011   2.05792
    R9        2.06256   0.00004   0.00000   0.00011   0.00011   2.06267
   R10        3.27808   0.00001   0.00000  -0.00010  -0.00010   3.27798
   R11        1.82670   0.00021   0.00000   0.00042   0.00042   1.82712
    A1        2.07725  -0.00000   0.00000   0.00001   0.00001   2.07726
    A2        2.10090   0.00000   0.00000   0.00001   0.00001   2.10091
    A3        2.09590   0.00000   0.00000   0.00003   0.00003   2.09593
    A4        1.97780   0.00000   0.00000   0.00002   0.00002   1.97782
    A5        2.07388   0.00001   0.00000  -0.00009  -0.00009   2.07379
    A6        1.45570  -0.00002   0.00000   0.00004   0.00004   1.45574
    A7        1.95444  -0.00000   0.00000   0.00004   0.00004   1.95448
    A8        1.94523   0.00000   0.00000  -0.00001  -0.00001   1.94521
    A9        2.00502   0.00001   0.00000   0.00001   0.00001   2.00503
   A10        1.93048   0.00000   0.00000  -0.00004  -0.00004   1.93044
   A11        1.91173   0.00000   0.00000   0.00005   0.00005   1.91178
   A12        1.92897   0.00000   0.00000  -0.00002  -0.00002   1.92895
   A13        1.89379   0.00000   0.00000   0.00002   0.00002   1.89381
   A14        1.90234  -0.00000   0.00000  -0.00001  -0.00001   1.90234
   A15        1.89584  -0.00000   0.00000  -0.00001  -0.00001   1.89583
   A16        1.88790  -0.00004   0.00000  -0.00029  -0.00029   1.88761
   A17        1.63817  -0.00003   0.00000  -0.00026  -0.00026   1.63791
    D1        0.41836  -0.00001   0.00000   0.00010   0.00010   0.41846
    D2        2.76800  -0.00000   0.00000   0.00008   0.00008   2.76808
    D3       -1.51118   0.00000   0.00000   0.00009   0.00009  -1.51108
    D4       -2.86946   0.00000   0.00000   0.00047   0.00047  -2.86898
    D5       -0.51981   0.00001   0.00000   0.00045   0.00045  -0.51936
    D6        1.48419   0.00001   0.00000   0.00047   0.00047   1.48466
    D7        0.75852  -0.00001   0.00000   0.00078   0.00078   0.75930
    D8        2.84511  -0.00000   0.00000   0.00082   0.00082   2.84593
    D9       -1.34989  -0.00001   0.00000   0.00083   0.00083  -1.34906
   D10        3.11794   0.00000   0.00000   0.00076   0.00076   3.11870
   D11       -1.07865   0.00000   0.00000   0.00079   0.00079  -1.07786
   D12        1.00954   0.00000   0.00000   0.00080   0.00080   1.01034
   D13       -0.92322   0.00001   0.00000   0.00078   0.00078  -0.92244
   D14        1.16337   0.00001   0.00000   0.00082   0.00082   1.16419
   D15       -3.03163   0.00001   0.00000   0.00083   0.00083  -3.03080
   D16        2.96393  -0.00000   0.00000   0.00017   0.00017   2.96410
   D17        1.00038   0.00000   0.00000   0.00014   0.00014   1.00052
   D18       -1.24623  -0.00000   0.00000   0.00009   0.00009  -1.24615
   D19       -2.29889  -0.00000   0.00000  -0.00182  -0.00182  -2.30071
         Item               Value     Threshold  Converged?
 Maximum Force            0.000206     0.000450     YES
 RMS     Force            0.000036     0.000300     YES
 Maximum Displacement     0.002045     0.001800     NO 
 RMS     Displacement     0.000566     0.001200     YES
 Predicted change in Energy=-8.519739D-08
 GradGradGradGradGradGradGradGradGradGradGradGradGradGradGradGradGradGrad

                          Input orientation:                          
 ---------------------------------------------------------------------
 Center     Atomic      Atomic             Coordinates (Angstroms)
 Number     Number       Type             X           Y           Z
 ---------------------------------------------------------------------
      1          6           0        1.328220   -1.113436   -0.009895
      2          1           0        1.336434   -2.019202    0.575318
      3          1           0        1.816522   -1.107570   -0.972652
      4          6           0        0.510165    0.038419    0.410866
      5          1           0        0.293689    0.047063    1.482011
      6          6           0        0.867681    1.413199   -0.105177
      7          1           0        1.101508    1.374752   -1.169437
      8          1           0        0.024515    2.087078    0.039370
      9          1           0        1.729053    1.812089    0.433656
     10          8           0       -0.499866   -0.621230   -0.312863
     11          8           0       -2.007372    0.169945    0.019422
     12          1           0       -2.476038   -0.656406    0.199246
 ---------------------------------------------------------------------
                    Distance matrix (angstroms):
                    1          2          3          4          5
     1  C    0.000000
     2  H    1.078404   0.000000
     3  H    1.079525   1.859508   0.000000
     4  C    1.474118   2.223414   2.221257   0.000000
     5  H    2.154715   2.485732   3.110879   1.092835   0.000000
     6  C    2.570031   3.530465   2.829680   1.511337   2.171396
     7  H    2.754454   3.823387   2.590732   2.152401   3.073354
     8  H    3.456206   4.343951   3.800165   2.137959   2.513032
     9  H    2.985984   3.853960   3.241876   2.152234   2.504922
    10  O    1.917278   2.472891   2.457133   1.406799   2.073142
    11  O    3.574087   4.035149   4.151918   2.551180   2.729313
    12  H    3.837316   4.066151   4.472468   3.073267   3.132370
                    6          7          8          9         10
     6  C    0.000000
     7  H    1.090322   0.000000
     8  H    1.089006   1.768766   0.000000
     9  H    1.091520   1.776227   1.771025   0.000000
    10  O    2.460126   2.698530   2.781003   3.383255   0.000000
    11  O    3.134826   3.539785   2.793629   4.102328   1.734631
    12  H    3.944159   4.335635   3.715513   4.881721   2.041751
                   11         12
    11  O    0.000000
    12  H    0.966872   0.000000
 Stoichiometry    C3H7O2(2)
 Framework group  C1[X(C3H7O2)]
 Deg. of freedom    30
 Full point group                 C1      NOp   1
 Largest Abelian subgroup         C1      NOp   1
 Largest concise Abelian subgroup C1      NOp   1
                         Standard orientation:                         
 ---------------------------------------------------------------------
 Center     Atomic      Atomic             Coordinates (Angstroms)
 Number     Number       Type             X           Y           Z
 ---------------------------------------------------------------------
      1          6           0        1.328750   -1.111615   -0.010989
      2          1           0        1.337250   -2.018033    0.573212
      3          1           0        1.817421   -1.104394   -0.973549
      4          6           0        0.509882    0.039305    0.410748
      5          1           0        0.292989    0.046625    1.481818
      6          6           0        0.866820    1.414864   -0.103616
      7          1           0        1.101080    1.377743   -1.167827
      8          1           0        0.023219    2.088105    0.041361
      9          1           0        1.727759    1.813636    0.435997
     10          8           0       -0.499496   -0.620103   -0.314111
     11          8           0       -2.007577    0.169848    0.018478
     12          1           0       -2.475845   -0.656969    0.197195
 ---------------------------------------------------------------------
 Rotational constants (GHZ):           7.2601021           4.0080562           2.8377012
 Standard basis: CC-pVTZ+d (5D, 7F)
 There are   280 symmetry adapted cartesian basis functions of A   symmetry.
 There are   248 symmetry adapted basis functions of A   symmetry.
   248 basis functions,   379 primitive gaussians,   280 cartesian basis functions
    21 alpha electrons       20 beta electrons
       nuclear repulsion energy       182.3232169897 Hartrees.
 NAtoms=   12 NActive=   12 NUniq=   12 SFac= 1.00D+00 NAtFMM=   60 NAOKFM=F Big=F
 Integral buffers will be    131072 words long.
 Raffenetti 2 integral format.
 Two-electron integral symmetry is turned on.
 One-electron integrals computed using PRISM.
 NBasis=   248 RedAO= T EigKep=  5.88D-04  NBF=   248
 NBsUse=   248 1.00D-06 EigRej= -1.00D+00 NBFU=   248
 Initial guess from the checkpoint file:  "RisopO2-OH-elim-TS4-b3lyp-c.chk"
 B after Tr=     0.000000   -0.000000    0.000000
         Rot=    1.000000   -0.000006   -0.000009   -0.000081 Ang=  -0.01 deg.
 Initial guess <Sx>= 0.0000 <Sy>= 0.0000 <Sz>= 0.5000 <S**2>= 0.8088 S= 0.5290
 Keep R1 and R2 ints in memory in canonical form, NReq=980075672.
 Requested convergence on RMS density matrix=1.00D-08 within 128 cycles.
 Requested convergence on MAX density matrix=1.00D-06.
 Requested convergence on             energy=1.00D-06.
 No special actions if energy rises.
 SCF Done:  E(UB3LYP) =  -268.907341514     A.U. after    9 cycles
            NFock=  9  Conv=0.87D-08     -V/T= 2.0062
 <Sx>= 0.0000 <Sy>= 0.0000 <Sz>= 0.5000 <S**2>= 0.8088 S= 0.5290
 <L.S>= 0.000000000000E+00
 Annihilation of the first spin contaminant:
 S**2 before annihilation     0.8088,   after     0.7503
 QCSCF skips out because SCF is already converged.
 Calling FoFJK, ICntrl=      2127 FMM=F ISym2X=0 I1Cent= 0 IOpClX= 1 NMat=1 NMatS=1 NMatT=0.
 ***** Axes restored to original set *****
 -------------------------------------------------------------------
 Center     Atomic                   Forces (Hartrees/Bohr)
 Number     Number              X              Y              Z
 -------------------------------------------------------------------
      1        6           0.000000197    0.000000472    0.000000403
      2        1          -0.000000388    0.000000233   -0.000000645
      3        1          -0.000000114   -0.000000514    0.000000769
      4        6          -0.000000948   -0.000000058    0.000000755
      5        1           0.000000568   -0.000000041   -0.000000207
      6        6           0.000000593   -0.000000124    0.000000062
      7        1           0.000000304   -0.000000113    0.000000525
      8        1           0.000000180   -0.000000523   -0.000000793
      9        1          -0.000000513   -0.000000058    0.000000026
     10        8           0.000000012    0.000000457   -0.000000294
     11        8          -0.000005632   -0.000009021    0.000001656
     12        1           0.000005740    0.000009290   -0.000002256
 -------------------------------------------------------------------
 Cartesian Forces:  Max     0.000009290 RMS     0.000002615

 GradGradGradGradGradGradGradGradGradGradGradGradGradGradGradGradGradGrad
 Berny optimization.
 FormGI is forming the generalized inverse of G from B-inverse, IUseBI=4.
 Internal  Forces:  Max     0.000010980 RMS     0.000001635
 Search for a saddle point.
 Step number   3 out of a maximum of   57
 All quantities printed in internal units (Hartrees-Bohrs-Radians)
 Swapping is turned off.
 Update second derivatives using D2CorX and points    1    2    3
 ITU=  0  0  0
     Eigenvalues ---   -0.17519   0.00194   0.00254   0.00740   0.00898
     Eigenvalues ---    0.01809   0.03435   0.04315   0.04404   0.06276
     Eigenvalues ---    0.08100   0.09924   0.09970   0.10545   0.12230
     Eigenvalues ---    0.12447   0.12784   0.15104   0.16903   0.19397
     Eigenvalues ---    0.27722   0.29046   0.31439   0.32485   0.32745
     Eigenvalues ---    0.33579   0.35375   0.35528   0.35794   0.49024
 Eigenvectors required to have negative eigenvalues:
                          R10       A6        D13       D14       A5
   1                   -0.68506   0.44321  -0.18276  -0.18230  -0.18023
                          D15       A9        D9        D8        D7
   1                   -0.17945  -0.17729   0.17545   0.17260   0.17215
 RFO step:  Lambda0=1.278144257D-14 Lambda= 0.00000000D+00.
 Linear search not attempted -- option 19 set.
 Iteration  1 RMS(Cart)=  0.00007001 RMS(Int)=  0.00000000
 Iteration  2 RMS(Cart)=  0.00000000 RMS(Int)=  0.00000000
 Variable       Old X    -DE/DX   Delta X   Delta X   Delta X     New X
                                 (Linear)    (Quad)   (Total)
    R1        2.03789  -0.00000   0.00000  -0.00000  -0.00000   2.03789
    R2        2.04001  -0.00000   0.00000  -0.00000  -0.00000   2.04001
    R3        2.78568  -0.00000   0.00000  -0.00000  -0.00000   2.78568
    R4        2.06516  -0.00000   0.00000  -0.00000  -0.00000   2.06516
    R5        2.85601  -0.00000   0.00000  -0.00000  -0.00000   2.85601
    R6        2.65846  -0.00000   0.00000   0.00000   0.00000   2.65847
    R7        2.06041  -0.00000   0.00000  -0.00000  -0.00000   2.06041
    R8        2.05792  -0.00000   0.00000  -0.00000  -0.00000   2.05792
    R9        2.06267  -0.00000   0.00000  -0.00000  -0.00000   2.06267
   R10        3.27798  -0.00000   0.00000  -0.00000  -0.00000   3.27798
   R11        1.82712  -0.00001   0.00000  -0.00002  -0.00002   1.82710
    A1        2.07726  -0.00000   0.00000  -0.00001  -0.00001   2.07725
    A2        2.10091   0.00000   0.00000   0.00000   0.00000   2.10091
    A3        2.09593   0.00000   0.00000   0.00000   0.00000   2.09594
    A4        1.97782  -0.00000   0.00000  -0.00000  -0.00000   1.97782
    A5        2.07379  -0.00000   0.00000  -0.00000  -0.00000   2.07379
    A6        1.45574   0.00000   0.00000   0.00000   0.00000   1.45574
    A7        1.95448   0.00000   0.00000   0.00000   0.00000   1.95448
    A8        1.94521   0.00000   0.00000   0.00001   0.00001   1.94522
    A9        2.00503  -0.00000   0.00000  -0.00001  -0.00001   2.00502
   A10        1.93044  -0.00000   0.00000   0.00000   0.00000   1.93044
   A11        1.91178  -0.00000   0.00000  -0.00001  -0.00001   1.91177
   A12        1.92895   0.00000   0.00000   0.00001   0.00001   1.92895
   A13        1.89381  -0.00000   0.00000  -0.00000  -0.00000   1.89381
   A14        1.90234  -0.00000   0.00000   0.00000   0.00000   1.90234
   A15        1.89583   0.00000   0.00000   0.00000   0.00000   1.89583
   A16        1.88761   0.00000   0.00000   0.00001   0.00001   1.88762
   A17        1.63791  -0.00000   0.00000  -0.00001  -0.00001   1.63791
    D1        0.41846   0.00000   0.00000   0.00003   0.00003   0.41848
    D2        2.76808   0.00000   0.00000   0.00003   0.00003   2.76811
    D3       -1.51108   0.00000   0.00000   0.00002   0.00002  -1.51106
    D4       -2.86898  -0.00000   0.00000   0.00001   0.00001  -2.86898
    D5       -0.51936   0.00000   0.00000   0.00001   0.00001  -0.51935
    D6        1.48466  -0.00000   0.00000  -0.00000  -0.00000   1.48466
    D7        0.75930  -0.00000   0.00000  -0.00012  -0.00012   0.75918
    D8        2.84593  -0.00000   0.00000  -0.00012  -0.00012   2.84581
    D9       -1.34906  -0.00000   0.00000  -0.00012  -0.00012  -1.34918
   D10        3.11870  -0.00000   0.00000  -0.00012  -0.00012   3.11858
   D11       -1.07786  -0.00000   0.00000  -0.00012  -0.00012  -1.07798
   D12        1.01034  -0.00000   0.00000  -0.00012  -0.00012   1.01022
   D13       -0.92244   0.00000   0.00000  -0.00011  -0.00011  -0.92255
   D14        1.16419  -0.00000   0.00000  -0.00012  -0.00012   1.16407
   D15       -3.03080  -0.00000   0.00000  -0.00012  -0.00012  -3.03092
   D16        2.96410  -0.00000   0.00000  -0.00002  -0.00002   2.96409
   D17        1.00052  -0.00000   0.00000  -0.00002  -0.00002   1.00051
   D18       -1.24615  -0.00000   0.00000  -0.00002  -0.00002  -1.24616
   D19       -2.30071   0.00000   0.00000   0.00017   0.00017  -2.30054
         Item               Value     Threshold  Converged?
 Maximum Force            0.000011     0.000450     YES
 RMS     Force            0.000002     0.000300     YES
 Maximum Displacement     0.000228     0.001800     YES
 RMS     Displacement     0.000070     0.001200     YES
 Predicted change in Energy=-3.105215D-10
 Optimization completed.
    -- Stationary point found.
                           ----------------------------
                           !   Optimized Parameters   !
                           ! (Angstroms and Degrees)  !
 --------------------------                            --------------------------
 ! Name  Definition              Value          Derivative Info.                !
 --------------------------------------------------------------------------------
 ! R1    R(1,2)                  1.0784         -DE/DX =    0.0                 !
 ! R2    R(1,3)                  1.0795         -DE/DX =    0.0                 !
 ! R3    R(1,4)                  1.4741         -DE/DX =    0.0                 !
 ! R4    R(4,5)                  1.0928         -DE/DX =    0.0                 !
 ! R5    R(4,6)                  1.5113         -DE/DX =    0.0                 !
 ! R6    R(4,10)                 1.4068         -DE/DX =    0.0                 !
 ! R7    R(6,7)                  1.0903         -DE/DX =    0.0                 !
 ! R8    R(6,8)                  1.089          -DE/DX =    0.0                 !
 ! R9    R(6,9)                  1.0915         -DE/DX =    0.0                 !
 ! R10   R(10,11)                1.7346         -DE/DX =    0.0                 !
 ! R11   R(11,12)                0.9669         -DE/DX =    0.0                 !
 ! A1    A(2,1,3)              119.0181         -DE/DX =    0.0                 !
 ! A2    A(2,1,4)              120.3732         -DE/DX =    0.0                 !
 ! A3    A(3,1,4)              120.0881         -DE/DX =    0.0                 !
 ! A4    A(1,4,5)              113.3206         -DE/DX =    0.0                 !
 ! A5    A(1,4,6)              118.8192         -DE/DX =    0.0                 !
 ! A6    A(1,4,10)              83.4078         -DE/DX =    0.0                 !
 ! A7    A(5,4,6)              111.9832         -DE/DX =    0.0                 !
 ! A8    A(5,4,10)             111.4526         -DE/DX =    0.0                 !
 ! A9    A(6,4,10)             114.8797         -DE/DX =    0.0                 !
 ! A10   A(4,6,7)              110.6061         -DE/DX =    0.0                 !
 ! A11   A(4,6,8)              109.5369         -DE/DX =    0.0                 !
 ! A12   A(4,6,9)              110.5207         -DE/DX =    0.0                 !
 ! A13   A(7,6,8)              108.5072         -DE/DX =    0.0                 !
 ! A14   A(7,6,9)              108.996          -DE/DX =    0.0                 !
 ! A15   A(8,6,9)              108.6229         -DE/DX =    0.0                 !
 ! A16   A(4,10,11)            108.1521         -DE/DX =    0.0                 !
 ! A17   A(10,11,12)            93.8455         -DE/DX =    0.0                 !
 ! D1    D(2,1,4,5)             23.9757         -DE/DX =    0.0                 !
 ! D2    D(2,1,4,6)            158.5993         -DE/DX =    0.0                 !
 ! D3    D(2,1,4,10)           -86.5788         -DE/DX =    0.0                 !
 ! D4    D(3,1,4,5)           -164.3807         -DE/DX =    0.0                 !
 ! D5    D(3,1,4,6)            -29.7572         -DE/DX =    0.0                 !
 ! D6    D(3,1,4,10)            85.0648         -DE/DX =    0.0                 !
 ! D7    D(1,4,6,7)             43.5046         -DE/DX =    0.0                 !
 ! D8    D(1,4,6,8)            163.0596         -DE/DX =    0.0                 !
 ! D9    D(1,4,6,9)            -77.2956         -DE/DX =    0.0                 !
 ! D10   D(5,4,6,7)            178.6882         -DE/DX =    0.0                 !
 ! D11   D(5,4,6,8)            -61.7568         -DE/DX =    0.0                 !
 ! D12   D(5,4,6,9)             57.888          -DE/DX =    0.0                 !
 ! D13   D(10,4,6,7)           -52.852          -DE/DX =    0.0                 !
 ! D14   D(10,4,6,8)            66.703          -DE/DX =    0.0                 !
[...]
    D5       -0.51936   0.00000   0.00000   0.00001   0.00001  -0.51935
    D6        1.48466  -0.00000   0.00000   0.00000   0.00000   1.48466
    D7        0.75930  -0.00000   0.00000  -0.00011  -0.00011   0.75919
    D8        2.84593  -0.00000   0.00000  -0.00012  -0.00012   2.84581
    D9       -1.34906  -0.00000   0.00000  -0.00012  -0.00012  -1.34918
   D10        3.11870  -0.00000   0.00000  -0.00011  -0.00011   3.11859
   D11       -1.07786  -0.00000   0.00000  -0.00012  -0.00012  -1.07798
   D12        1.01034  -0.00000   0.00000  -0.00012  -0.00012   1.01022
   D13       -0.92244   0.00000   0.00000  -0.00011  -0.00011  -0.92255
   D14        1.16419  -0.00000   0.00000  -0.00011  -0.00011   1.16407
   D15       -3.03080  -0.00000   0.00000  -0.00011  -0.00011  -3.03091
   D16        2.96410  -0.00000   0.00000  -0.00002  -0.00002   2.96408
   D17        1.00052  -0.00000   0.00000  -0.00002  -0.00002   1.00050
   D18       -1.24615  -0.00000   0.00000  -0.00002  -0.00002  -1.24617
   D19       -2.30071   0.00000   0.00000   0.00015   0.00015  -2.30056
         Item               Value     Threshold  Converged?
 Maximum Force            0.000011     0.000450     YES
 RMS     Force            0.000002     0.000300     YES
 Maximum Displacement     0.000218     0.001800     YES
 RMS     Displacement     0.000066     0.001200     YES
 Predicted change in Energy=-3.078597D-10
 Optimization completed.
    -- Stationary point found.
                           ----------------------------
                           !   Optimized Parameters   !
                           ! (Angstroms and Degrees)  !
 --------------------------                            --------------------------
 ! Name  Definition              Value          Derivative Info.                !
 --------------------------------------------------------------------------------
 ! R1    R(1,2)                  1.0784         -DE/DX =    0.0                 !
 ! R2    R(1,3)                  1.0795         -DE/DX =    0.0                 !
 ! R3    R(1,4)                  1.4741         -DE/DX =    0.0                 !
 ! R4    R(4,5)                  1.0928         -DE/DX =    0.0                 !
 ! R5    R(4,6)                  1.5113         -DE/DX =    0.0                 !
 ! R6    R(4,10)                 1.4068         -DE/DX =    0.0                 !
 ! R7    R(6,7)                  1.0903         -DE/DX =    0.0                 !
 ! R8    R(6,8)                  1.089          -DE/DX =    0.0                 !
 ! R9    R(6,9)                  1.0915         -DE/DX =    0.0                 !
 ! R10   R(10,11)                1.7346         -DE/DX =    0.0                 !
 ! R11   R(11,12)                0.9669         -DE/DX =    0.0                 !
 ! A1    A(2,1,3)              119.0181         -DE/DX =    0.0                 !
 ! A2    A(2,1,4)              120.3732         -DE/DX =    0.0                 !
 ! A3    A(3,1,4)              120.0881         -DE/DX =    0.0                 !
 ! A4    A(1,4,5)              113.3206         -DE/DX =    0.0                 !
 ! A5    A(1,4,6)              118.8192         -DE/DX =    0.0                 !
 ! A6    A(1,4,10)              83.4078         -DE/DX =    0.0                 !
 ! A7    A(5,4,6)              111.9832         -DE/DX =    0.0                 !
 ! A8    A(5,4,10)             111.4526         -DE/DX =    0.0                 !
 ! A9    A(6,4,10)             114.8797         -DE/DX =    0.0                 !
 ! A10   A(4,6,7)              110.6061         -DE/DX =    0.0                 !
 ! A11   A(4,6,8)              109.5369         -DE/DX =    0.0                 !
 ! A12   A(4,6,9)              110.5207         -DE/DX =    0.0                 !
 ! A13   A(7,6,8)              108.5072         -DE/DX =    0.0                 !
 ! A14   A(7,6,9)              108.996          -DE/DX =    0.0                 !
 ! A15   A(8,6,9)              108.6229         -DE/DX =    0.0                 !
 ! A16   A(4,10,11)            108.1521         -DE/DX =    0.0                 !
 ! A17   A(10,11,12)            93.8455         -DE/DX =    0.0                 !
 ! D1    D(2,1,4,5)             23.9757         -DE/DX =    0.0                 !
 ! D2    D(2,1,4,6)            158.5993         -DE/DX =    0.0                 !
 ! D3    D(2,1,4,10)           -86.5788         -DE/DX =    0.0                 !
 ! D4    D(3,1,4,5)           -164.3807         -DE/DX =    0.0                 !
 ! D5    D(3,1,4,6)            -29.7572         -DE/DX =    0.0                 !
 ! D6    D(3,1,4,10)            85.0648         -DE/DX =    0.0                 !
 ! D7    D(1,4,6,7)             43.5046         -DE/DX =    0.0                 !
 ! D8    D(1,4,6,8)            163.0596         -DE/DX =    0.0                 !
 ! D9    D(1,4,6,9)            -77.2956         -DE/DX =    0.0                 !
 ! D10   D(5,4,6,7)            178.6882         -DE/DX =    0.0                 !
 ! D11   D(5,4,6,8)            -61.7568         -DE/DX =    0.0                 !
 ! D12   D(5,4,6,9)             57.888          -DE/DX =    0.0                 !
 ! D13   D(10,4,6,7)           -52.852          -DE/DX =    0.0                 !
 ! D14   D(10,4,6,8)            66.703          -DE/DX =    0.0                 !
 ! D15   D(10,4,6,9)          -173.6522         -DE/DX =    0.0                 !
 ! D16   D(1,4,10,11)          169.8306         -DE/DX =    0.0                 !
 ! D17   D(5,4,10,11)           57.3258         -DE/DX =    0.0                 !
 ! D18   D(6,4,10,11)          -71.3989         -DE/DX =    0.0                 !
 ! D19   D(4,10,11,12)        -131.8209         -DE/DX =    0.0                 !
 --------------------------------------------------------------------------------
 GradGradGradGradGradGradGradGradGradGradGradGradGradGradGradGradGradGrad


 ----------------------------------------------------------------------

 Electric dipole moment (input orientation):
 (Debye = 10**-18 statcoulomb cm , SI units = C m)
                  (au)            (Debye)         (10**-30 SI)
   Tot        0.979086D+00      0.248859D+01      0.830103D+01
   x          0.791132D+00      0.201086D+01      0.670750D+01
   y         -0.426130D+00     -0.108311D+01     -0.361288D+01
   z          0.388757D+00      0.988121D+00      0.329602D+01

 Dipole polarizability, Alpha (input orientation).
 (esu units = cm**3 , SI units = C**2 m**2 J**-1)
 Alpha(0;0):
               (au)            (10**-24 esu)      (10**-40 SI)
   iso        0.550816D+02      0.816225D+01      0.908172D+01
   aniso      0.362786D+02      0.537593D+01      0.598153D+01
   xx         0.759355D+02      0.112525D+02      0.125201D+02
   yx        -0.899936D+01     -0.133357D+01     -0.148379D+01
   yy         0.500684D+02      0.741937D+01      0.825516D+01
   zx        -0.149939D+01     -0.222186D+00     -0.247216D+00
   zy        -0.263188D-01     -0.390005D-02     -0.433939D-02
   zz         0.392408D+02      0.581489D+01      0.646993D+01

 ----------------------------------------------------------------------

 Dipole orientation:
     6          0.82238578         -1.19509984          2.93647947
     1         -0.49381583         -2.18944127          4.13309438
     1          2.78677421         -1.74507120          2.95488186
     6         -0.09558623          0.64336780          1.05568945
     1         -1.94496513          1.43549524          1.52175002
     6          1.70623641          2.63470896          0.08368050
     1          3.54838966          1.80781663         -0.32620575
     1          0.95738356          3.45328179         -1.64958432
     1          1.94023809          4.13922369          1.47519212
     8         -0.32093740         -1.50988540         -0.48708472
     8         -1.96936181         -0.66132800         -3.19037660
     1         -3.10878408         -2.08621592         -3.09143151

 Electric dipole moment (dipole orientation):
 (Debye = 10**-18 statcoulomb cm , SI units = C m)
                  (au)            (Debye)         (10**-30 SI)
   Tot        0.979086D+00      0.248859D+01      0.830103D+01
   x          0.000000D+00      0.000000D+00      0.000000D+00
   y          0.000000D+00      0.000000D+00      0.000000D+00
   z          0.979086D+00      0.248859D+01      0.830103D+01

 Dipole polarizability, Alpha (dipole orientation).
 (esu units = cm**3 , SI units = C**2 m**2 J**-1)
 Alpha(0;0):
               (au)            (10**-24 esu)      (10**-40 SI)
   iso        0.550816D+02      0.816225D+01      0.908172D+01
   aniso      0.362786D+02      0.537593D+01      0.598153D+01
   xx         0.492259D+02      0.729452D+01      0.811625D+01
   yx         0.253528D+01      0.375689D+00      0.418011D+00
   yy         0.453917D+02      0.672635D+01      0.748407D+01
   zx         0.155128D+02      0.229876D+01      0.255772D+01
   zy        -0.259068D+01     -0.383899D+00     -0.427146D+00
   zz         0.706272D+02      0.104659D+02      0.116448D+02

 ----------------------------------------------------------------------
 1\1\GINC-CNODE1333\Freq\UB3LYP\CC-pVTZ+d\C3H7O2(2)\KOTUKILE\01-Apr-202
 2\0\\#N Geom=AllCheck Guess=TCheck SCRF=Check GenChk UB3LYP/CC-pVTZ+d 
 Freq\\RisopO2-OH-elim-TS4-b3lyp-c\\0,2\C,1.3282196147,-1.1134356438,-0
 .0098948924\H,1.3364335568,-2.0192024704,0.5753181399\H,1.8165223964,-
 1.1075699952,-0.9726517742\C,0.5101645697,0.0384191638,0.4108659987\H,
 0.2936891403,0.0470633306,1.4820111264\C,0.8676805887,1.4131990283,-0.
 1051774994\H,1.1015080288,1.3747521769,-1.1694367734\H,0.0245154634,2.
 0870782433,0.0393696482\H,1.7290528709,1.812088735,0.4336558735\O,-0.4
 998662432,-0.6212301505,-0.3128630932\O,-2.0073721717,0.1699450604,0.0
 194217638\H,-2.476037815,-0.6564064784,0.199246482\\Version=ES64L-G16R
 evB.01\State=2-A\HF=-268.9073415\S2=0.808814\S2-1=0.\S2A=0.750345\RMSD
 =4.317e-09\RMSF=2.604e-06\ZeroPoint=0.0942984\Thermal=0.1010709\Dipole
 =0.7911323,-0.4261297,0.3887566\DipoleDeriv=-0.5247929,0.1510093,-0.07
 93493,0.0011365,-0.026306,-0.0762626,-0.2289652,-0.0201532,0.1076919,0
 .0982377,0.0081159,0.0341466,0.0369698,-0.0251984,0.0418184,0.0391053,
 0.0411157,0.0458735,0.0963027,0.0235975,0.0420434,0.0257317,0.0508541,
 0.04118,0.0661222,-0.0011752,-0.0009102,0.259822,0.1932485,0.065154,0.
 3265675,0.5714944,0.0351387,0.1124559,0.0482546,0.3819562,0.0308885,-0
 .0028395,0.0654588,-0.0460948,-0.0237119,0.0099426,0.0010002,-0.007296
 8,-0.159193,0.1104648,0.0020789,0.0290615,-0.0542936,-0.1422665,0.0432
 749,0.0262632,0.072299,0.076612,0.051125,-0.0073514,0.0350988,0.009045
 1,0.0358114,-0.0457859,0.0497504,0.0191649,-0.114634,-0.0197529,0.0956
 56,0.0203599,0.0122252,-0.0011029,-0.0054462,0.0348065,0.000722,0.0658
 274,-0.0551716,-0.0867958,-0.0778825,-0.0367441,0.0195544,-0.0099055,-
 0.0883148,-0.0322616,0.0088436,0.718577,-0.6237516,-0.0873229,-0.60754
 14,-0.2713706,-0.0510431,-0.1586471,-0.0554863,-0.3445141,-1.0830802,0
 .2977265,-0.070019,0.2840645,-0.2918601,-0.0152106,0.1445235,-0.096003
 ,-0.3667906,0.3173798,-0.0506945,0.0232507,0.0489336,0.1041021,0.03229
 93,0.0018997,0.0308199,0.2992374\Polar=75.9355004,-8.999365,50.0683861
 ,-1.4993879,-0.0263188,39.2407963\Quadrupole=0.455681,0.4409883,-0.896
 6693,1.1542873,-1.2350481,-0.5955508\PG=C01 [X(C3H7O2)]\NImag=1\\0.181
 92894,-0.11396186,0.52792649,-0.21013859,-0.11477919,0.51679150,-0.030
 05601,0.00180418,0.01410747,0.02676206,0.01224277,-0.25920640,0.143188
 47,-0.01031200,0.26801457,0.01530878,0.14062757,-0.13982879,-0.0137616
 9,-0.15019469,0.13697411,-0.08794932,0.00370040,0.12656121,0.00550149,
 0.00083169,-0.00073951,0.08852088,0.00912168,-0.05346936,0.01097749,-0
 .01053449,0.00374568,0.01996574,-0.00940254,0.04636551,0.13371364,0.00
 881895,-0.28500439,0.00634276,-0.00342645,-0.00706040,-0.13913378,-0.0
 0831177,0.29372010,-0.06748553,0.07349024,0.04545702,-0.00277220,-0.00
 524534,-0.00157124,-0.00451043,0.00935136,0.00077864,0.34998869,0.1093
 1532,-0.18723394,-0.03179979,0.01047685,-0.01391881,-0.01094021,0.0023
 9873,0.00470867,0.00346846,-0.01295965,0.55323364,0.06835503,-0.040335
 90,-0.08835012,-0.00557118,0.01377526,0.00994062,0.00891930,-0.0230085
 5,-0.00763099,-0.07494531,0.03024112,0.59876158,-0.00705017,0.00015642
 ,0.02355934,0.00040743,-0.00059226,-0.00126165,-0.00045570,0.00353067,
 0.00127648,-0.05872394,0.00304244,0.06157965,0.06357247,0.00867225,-0.
 00151808,-0.02105158,0.00000019,0.00093109,0.00033898,0.00035211,-0.00
 277881,-0.00131200,-0.00176529,-0.05349884,0.00627215,0.00394850,0.061
 23113,0.00204563,-0.00077693,-0.00312608,0.00013179,-0.00035466,0.0004
 4416,-0.00100475,-0.00047312,0.00072033,0.05857951,0.00719122,-0.28335
 064,-0.05552640,0.00199764,0.31371217,0.00520880,0.02203907,-0.0111145
 3,-0.00122110,0.00424104,0.00228119,0.00023523,-0.00082070,-0.00051961
 ,-0.07901157,-0.01376862,0.01503958,0.00093839,-0.00704709,0.00390357,
 0.56273376,-0.00184244,-0.02503160,0.00805256,-0.00004974,-0.00125628,
 -0.00116059,-0.00041817,0.00210710,0.00073739,-0.01917457,-0.17336017,
 0.04262410,0.00037943,-0.00041346,0.00090059,-0.02152406,0.48985817,-0
 .00016994,-0.00437919,0.00251654,0.00050837,-0.00139463,-0.00042591,-0
 .00002739,-0.00143706,0.00104387,0.01486492,0.04988002,-0.10563561,0.0
 0744648,0.02996588,-0.00976524,0.00627886,0.03066236,0.56571832,0.0002
 6374,0.00031334,-0.00102570,-0.00000537,-0.00004452,0.00002053,0.00015
 594,-0.00004424,-0.00011111,-0.00316816,0.00010844,0.00799528,0.000620
 05,-0.00144695,0.00041184,-0.05901423,0.00295211,0.05430251,0.05859861
 ,-0.00072131,0.00178665,0.00110677,0.00014734,0.00020684,-0.00017650,0
 .00039493,-0.00019739,-0.00063994,-0.00667922,-0.00023403,0.03421593,-
 0.00157305,-0.00545882,0.00170841,0.00293907,-0.04841979,-0.01449571,-
 0.00262053,0.05152676,-0.00028789,-0.00078784,0.00053709,-0.00023081,-
 0.00001854,0.00029947,-0.00025608,0.00085208,0.00031087,0.00188959,-0.
 00079453,-0.01451270,0.00025616,0.00231584,0.00082408,0.05526733,-0.01
 123773,-0.29607333,-0.06117890,0.01095658,0.32257775,0.00017597,-0.002
 14721,0.00043068,0.00028686,-0.00048690,-0.00006704,-0.00007486,-0.000
 12362,-0.00011294,0.00683001,-0.00579290,-0.00174301,0.00034150,0.0005
 5325,-0.00037864,-0.20823455,0.12902164,0.02903583,-0.00452249,0.00263
 157,0.00053321,0.22337730,-0.00182648,-0.00433773,0.00359056,0.0002041
 0,-0.00130786,-0.00089280,0.00002511,0.00020467,0.00006030,0.02503409,
 -0.02123042,-0.00548909,-0.00038902,0.00099047,-0.00000062,0.12605004,
 -0.14616512,-0.02215141,0.00006986,-0.00074288,-0.00036344,-0.13989043
 ,0.16047444,0.00062588,0.00153918,-0.00048670,-0.00029336,0.00036535,0
 .00043404,-0.00013715,0.00037817,0.00013451,-0.01074558,0.00765978,0.0
 0124314,-0.00045069,-0.00047928,0.00029659,0.02942013,-0.02215872,-0.0
 5310751,0.02489335,-0.01974487,-0.00313160,-0.03175278,0.02261203,0.05
 292656,0.00062539,-0.00031905,0.00025020,0.00004661,-0.00011964,-0.000
 07797,-0.00001768,-0.00010379,0.00000890,-0.00609673,0.00048513,-0.004
 23801,0.00015238,-0.00009662,0.00057743,-0.20799654,-0.07483426,-0.101
 10407,0.00675889,0.00378410,0.00344976,-0.01856635,-0.01002605,-0.0123
 2957,0.22523518,0.00066976,0.00117105,-0.00040285,-0.00012634,0.000038
 63,0.00005294,0.00000748,-0.00026169,-0.00010463,-0.02285426,-0.006931
 07,-0.01863202,0.00044301,0.00105016,0.00065302,-0.07368406,-0.0806640
 4,-0.04437692,-0.00015296,-0.00131242,-0.00049988,0.01517447,0.0086583
 8,0.01111462,0.08330743,0.08608851,-0.00005099,-0.00052347,0.00028755,
 0.00000731,-0.00005067,-0.00004646,-0.00015769,-0.00001109,-0.00005780
 ,0.01001114,0.00249533,0.00539262,-0.00020267,-0.00090585,0.00014373,-
 0.10211520,-0.04553808,-0.11201462,-0.02524361,-0.01114116,-0.01341798
 ,0.00400203,0.00261856,0.00171056,0.11277976,0.05014245,0.11708151,0.0
 9026172,0.00407867,0.03034339,0.00202648,0.00006745,-0.00019486,-0.000
 45971,-0.00146006,-0.00141142,-0.11602533,-0.12129469,-0.08949268,-0.0
 0261290,-0.00478936,-0.01028328,-0.01577767,-0.01410070,-0.01237608,0.
 00094415,0.00168603,0.00080114,0.00090638,0.00164216,0.00088799,-0.000
 96677,-0.00395530,0.00086344,-0.04767416,-0.05792839,0.00258973,-0.007
 28035,0.00855957,0.00188274,0.00232482,0.00197600,-0.00027184,0.000292
 45,-0.04009945,-0.09758164,-0.03952417,-0.00829210,0.00077574,-0.01074
 134,-0.03676715,-0.01675822,-0.02207421,0.00076094,0.00287201,-0.00069
 064,0.00113900,0.00188797,-0.00133734,-0.00153049,-0.00776046,0.002945
 65,0.18735189,0.11588772,-0.02691569,0.01390517,-0.00832085,-0.0016072
 2,-0.00197888,-0.00074196,0.00616875,0.00054631,0.00338223,-0.03640731
 ,-0.05813050,-0.11611804,-0.03731792,-0.01774377,-0.02165382,0.0005215
 2,-0.00280331,0.00815835,0.00004908,-0.00180882,0.00250910,0.00010582,
 -0.00008731,0.00004217,0.00087931,0.00215478,0.00091714,0.09806847,0.0
 7522861,0.14407611,-0.08271296,0.01055345,-0.01802544,-0.00089578,-0.0
 0081047,-0.00000951,-0.00088427,0.00052486,-0.00079917,-0.01600591,0.0
 2666137,0.01293892,0.00275280,0.00174259,0.00148777,0.00216793,-0.0010
 6881,0.00104749,-0.00063373,0.00005047,-0.00021403,-0.00079774,-0.0011
 0881,-0.00001989,0.00074701,0.00104816,0.00011166,0.09757899,-0.041706
 37,-0.00478314,0.12600350,0.03421002,-0.00349400,0.00825762,-0.0000746
 8,0.00097675,0.00014181,0.00015076,-0.00016341,0.00036142,-0.00091975,
 -0.00127013,0.00107465,-0.00037386,-0.00155469,-0.00035897,-0.00185356
 ,0.00054159,-0.00014700,0.00010737,-0.00001669,0.00026294,0.00004001,0
 .00112696,-0.00002726,-0.00035717,-0.00025453,-0.00006530,-0.06100739,
 -0.01027852,-0.00711688,0.21569762,0.40627355,0.01696864,-0.00286012,0
 .00498417,0.00033873,0.00005728,-0.00007443,-0.00029807,0.00046781,0.0
 0045716,-0.00686758,0.00149826,0.00028377,0.00103270,0.00077141,0.0019
 3972,0.00112693,0.00002045,-0.00019665,-0.00007275,-0.00007417,0.00010
 776,-0.00008802,0.00001153,0.00002540,-0.00013563,-0.00003911,-0.00004
 719,-0.02026663,-0.00216849,-0.01154003,-0.03925612,-0.07896362,0.0220
 5833,-0.00321057,0.00029235,-0.00040504,-0.00008048,0.00022816,0.00007
 296,-0.00006156,-0.00003913,-0.00003238,-0.00301891,0.00132759,0.00116
 244,0.00005768,-0.00012356,0.00005551,-0.00002844,0.00065957,0.0001930
 1,0.00000261,-0.00003940,-0.00002947,0.00027797,0.00021543,-0.00009832
 ,0.00007860,0.00012262,-0.00000516,-0.00820119,-0.01346346,0.00123832,
 -0.12731984,-0.18561939,0.04751778,0.14150412,0.00204870,0.00081718,0.
 00014029,-0.00009499,-0.00010695,-0.00008706,-0.00001650,0.00001087,0.
 00005583,0.00182185,-0.00268324,-0.00121348,-0.00028017,0.00024411,0.0
 0025476,0.00019603,-0.00043818,-0.00005215,-0.00000286,-0.00001023,0.0
 0000516,-0.00011889,0.00044112,0.00007834,-0.00018960,0.00017748,0.000
 03363,0.01178129,0.00675477,-0.00216539,-0.21158406,-0.39188688,0.0812
 7878,0.19643920,0.38667995,0.00054550,-0.00044823,0.00000009,0.0000278
 3,0.00003216,0.00008555,0.00010517,0.00005399,-0.00001548,-0.00104380,
 -0.00076916,-0.00002363,-0.00039148,-0.00016942,-0.00018497,-0.0000897
 5,-0.00009901,-0.00021821,-0.00004051,0.00009346,-0.00003049,0.0000348
 5,0.00009170,-0.00008714,-0.00006011,-0.00006240,0.00005093,0.00306052
 ,0.00302502,-0.00071040,0.04752144,0.07658060,-0.01799800,-0.04966964,
 -0.07832872,0.01913175\\-0.00000019,-0.00000044,-0.00000035,0.00000040
 ,-0.00000028,0.00000067,0.00000015,0.00000051,-0.00000082,0.00000093,0
 .00000011,-0.00000074,-0.00000056,0.00000003,0.00000019,-0.00000062,0.
 00000009,-0.00000005,-0.00000030,0.00000012,-0.00000054,-0.00000017,0.
 00000052,0.00000079,0.00000052,0.00000006,-0.00000002,-0.00000009,-0.0
 0000041,0.00000032,0.00000566,0.00000894,-0.00000169,-0.00000573,-0.00
 000925,0.00000225\\\@


 MEN HAVE BECOME THE TOOLS OF THEIR TOOLS... THOREAU   
 Job cpu time:       0 days  0 hours  0 minutes 33.1 seconds.
 Elapsed time:       0 days  0 hours  2 minutes 27.8 seconds.
 File lengths (MBytes):  RWF=    113 Int=      0 D2E=      0 Chk=      8 Scr=      1
 Normal termination of Gaussian 16 at Fri Apr  1 20:04:05 2022.
