 Entering Gaussian System, Link 0=g16
 Initial command:
 /apps/chpc/chem/gaussian16/B01/g16/l1.exe "/mnt/lustre/users/kotukile/Kgalaletso/4074132.sched01/Gau-158953.inp" -scrdir="/mnt/lustre/users/kotukile/Kgalaletso/4074132.sched01/"
 Entering Link 1 = /apps/chpc/chem/gaussian16/B01/g16/l1.exe PID=    158955.
  
 Copyright (c) 1988-2017, Gaussian, Inc.  All Rights Reserved.
  
 This is part of the Gaussian(R) 16 program.  It is based on
 the Gaussian(R) 09 system (copyright 2009, Gaussian, Inc.),
 the Gaussian(R) 03 system (copyright 2003, Gaussian, Inc.),
 the Gaussian(R) 98 system (copyright 1998, Gaussian, Inc.),
 the Gaussian(R) 94 system (copyright 1995, Gaussian, Inc.),
 the Gaussian 92(TM) system (copyright 1992, Gaussian, Inc.),
 the Gaussian 90(TM) system (copyright 1990, Gaussian, Inc.),
 the Gaussian 88(TM) system (copyright 1988, Gaussian, Inc.),
 the Gaussian 86(TM) system (copyright 1986, Carnegie Mellon
 University), and the Gaussian 82(TM) system (copyright 1983,
 Carnegie Mellon University). Gaussian is a federally registered
 trademark of Gaussian, Inc.
  
 This software contains proprietary and confidential information,
 including trade secrets, belonging to Gaussian, Inc.
  
 This software is provided under written license and may be
 used, copied, transmitted, or stored only in accord with that
 written license.
  
 The following legend is applicable only to US Government
 contracts under FAR:
  
                    RESTRICTED RIGHTS LEGEND
  
 Use, reproduction and disclosure by the US Government is
 subject to restrictions as set forth in subparagraphs (a)
 and (c) of the Commercial Computer Software - Restricted
 Rights clause in FAR 52.227-19.
  
 Gaussian, Inc.
 340 Quinnipiac St., Bldg. 40, Wallingford CT 06492
  
  
 ---------------------------------------------------------------
 Warning -- This program may not be used in any manner that
 competes with the business of Gaussian, Inc. or will provide
 assistance to any competitor of Gaussian, Inc.  The licensee
 of this program is prohibited from giving any competitor of
 Gaussian, Inc. access to this program.  By using this program,
 the user acknowledges that Gaussian, Inc. is engaged in the
 business of creating and licensing software in the field of
 computational chemistry and represents and warrants to the
 licensee that it is not a competitor of Gaussian, Inc. and that
 it will not use this program in any manner prohibited above.
 ---------------------------------------------------------------
  

 Cite this work as:
 Gaussian 16, Revision B.01,
 M. J. Frisch, G. W. Trucks, H. B. Schlegel, G. E. Scuseria, 
 M. A. Robb, J. R. Cheeseman, G. Scalmani, V. Barone, 
 G. A. Petersson, H. Nakatsuji, X. Li, M. Caricato, A. V. Marenich, 
 J. Bloino, B. G. Janesko, R. Gomperts, B. Mennucci, H. P. Hratchian, 
 J. V. Ortiz, A. F. Izmaylov, J. L. Sonnenberg, D. Williams-Young, 
 F. Ding, F. Lipparini, F. Egidi, J. Goings, B. Peng, A. Petrone, 
 T. Henderson, D. Ranasinghe, V. G. Zakrzewski, J. Gao, N. Rega, 
 G. Zheng, W. Liang, M. Hada, M. Ehara, K. Toyota, R. Fukuda, 
 J. Hasegawa, M. Ishida, T. Nakajima, Y. Honda, O. Kitao, H. Nakai, 
 T. Vreven, K. Throssell, J. A. Montgomery, Jr., J. E. Peralta, 
 F. Ogliaro, M. J. Bearpark, J. J. Heyd, E. N. Brothers, K. N. Kudin, 
 V. N. Staroverov, T. A. Keith, R. Kobayashi, J. Normand, 
 K. Raghavachari, A. P. Rendell, J. C. Burant, S. S. Iyengar, 
 J. Tomasi, M. Cossi, J. M. Millam, M. Klene, C. Adamo, R. Cammi, 
 J. W. Ochterski, R. L. Martin, K. Morokuma, O. Farkas, 
 J. B. Foresman, and D. J. Fox, Gaussian, Inc., Wallingford CT, 2016.
 
 ******************************************
 Gaussian 16:  ES64L-G16RevB.01 20-Dec-2017
                15-Mar-2022 
 ******************************************
 %nprocshared=24
 Will use up to   24 processors via shared memory.
 %lindaworkers=cnode0595.cm.cluster,cnode0624.cm.cluster
 %mem=20GB
 %chk=RisopO2-concerted-OOH-elim-TS3-b3lyp-c.chk
 SetLPE:    new flags="-opt 'Tsnet.Node.lindarsharg: ssh'  -nodelist 'cnode0595.cm.cluster cnode0624.cm.cluster' -env GAUSS_MDEF=2684354560 -env GAUSS_EXEDIR="/apps/chpc/chem/gaussian16/B01/g16/bsd:/apps/chpc/chem/gaussian16/B01/g16""
 Will use up to    2 processors via Linda.
 --------------------------------------------------
 # opt=(calcfc,ts,noeigentest) freq cc-pvtz+d B3LYP
 --------------------------------------------------
 1/5=1,10=4,11=1,18=20,26=3,38=1/1,3;
 2/9=110,12=2,17=6,18=5,40=1/2;
 3/5=16,6=1,7=9,11=2,25=1,30=1,71=2,74=-5,140=1/1,2,3;
 4//1;
 5/5=2,38=5/2;
 8/6=4,10=90,11=11/1;
 11/6=1,8=1,9=11,15=111,16=1/1,2,10;
 10/6=1,13=1/2;
 6/7=2,8=2,9=2,10=2,28=1/1;
 7/10=1,18=20,25=1/1,2,3,16;
 1/5=1,10=4,11=1,18=20,26=3/3(2);
 2/9=110/2;
 99//99;
 2/9=110/2;
 3/5=16,6=1,7=9,11=2,25=1,30=1,71=1,74=-5/1,2,3;
 4/5=5,16=3,69=1/1;
 5/5=2,38=5/2;
 7//1,2,3,16;
 1/5=1,11=1,18=20,26=3/3(-5);
 2/9=110/2;
 6/7=2,8=2,9=2,10=2,19=2,28=1/1;
 99/9=1/99;
 --------------------------------------
 RisopO2-concerted-OOH-elim-TS3-b3lyp-c
 --------------------------------------
 Symbolic Z-matrix:
 Charge =  0 Multiplicity = 2
 C                    -0.29008   1.42219  -0.0529 
 H                    -0.05153   2.23535   0.62485 
 H                    -0.64813   1.71607  -1.03608 
 H                     0.94263   0.91321  -0.32585 
 C                    -0.75353   0.22486   0.47984 
 H                    -0.71396   0.07999   1.55495 
 C                    -1.61897  -0.72611  -0.28221 
 H                    -1.44328  -0.6374   -1.35572 
 H                    -1.4409   -1.75759   0.02346 
 H                    -2.67039  -0.49071  -0.08834 
 O                     1.75249  -0.05528  -0.2947 
 O                     0.99763  -0.8928    0.26149 
 
 Add virtual bond connecting atoms O11        and H4         Dist= 2.39D+00.
 Add virtual bond connecting atoms H4         and C1         Dist= 2.57D+00.

 GradGradGradGradGradGradGradGradGradGradGradGradGradGradGradGradGradGrad
 Berny optimization.
 Initialization pass.
                           ----------------------------
                           !    Initial Parameters    !
                           ! (Angstroms and Degrees)  !
 --------------------------                            --------------------------
 ! Name  Definition              Value          Derivative Info.                !
 --------------------------------------------------------------------------------
 ! R1    R(1,2)                  1.0851         calculate D2E/DX2 analytically  !
 ! R2    R(1,3)                  1.0868         calculate D2E/DX2 analytically  !
 ! R3    R(1,4)                  1.3613         calculate D2E/DX2 analytically  !
 ! R4    R(1,5)                  1.39           calculate D2E/DX2 analytically  !
 ! R5    R(4,11)                 1.2629         calculate D2E/DX2 analytically  !
 ! R6    R(5,6)                  1.0856         calculate D2E/DX2 analytically  !
 ! R7    R(5,7)                  1.4947         calculate D2E/DX2 analytically  !
 ! R8    R(7,8)                  1.0914         calculate D2E/DX2 analytically  !
 ! R9    R(7,9)                  1.0905         calculate D2E/DX2 analytically  !
 ! R10   R(7,10)                 1.0948         calculate D2E/DX2 analytically  !
 ! R11   R(11,12)                1.2572         calculate D2E/DX2 analytically  !
 ! A1    A(2,1,3)              115.7737         calculate D2E/DX2 analytically  !
 ! A2    A(2,1,4)              101.9085         calculate D2E/DX2 analytically  !
 ! A3    A(2,1,5)              118.6469         calculate D2E/DX2 analytically  !
 ! A4    A(3,1,4)              102.5938         calculate D2E/DX2 analytically  !
 ! A5    A(3,1,5)              118.0195         calculate D2E/DX2 analytically  !
 ! A6    A(4,1,5)               93.2503         calculate D2E/DX2 analytically  !
 ! A7    A(1,4,11)             149.5995         calculate D2E/DX2 analytically  !
 ! A8    A(1,5,6)              118.8403         calculate D2E/DX2 analytically  !
 ! A9    A(1,5,7)              123.0719         calculate D2E/DX2 analytically  !
 ! A10   A(6,5,7)              116.1761         calculate D2E/DX2 analytically  !
 ! A11   A(5,7,8)              110.8892         calculate D2E/DX2 analytically  !
 ! A12   A(5,7,9)              111.3691         calculate D2E/DX2 analytically  !
 ! A13   A(5,7,10)             109.208          calculate D2E/DX2 analytically  !
 ! A14   A(8,7,9)              109.0452         calculate D2E/DX2 analytically  !
 ! A15   A(8,7,10)             108.138          calculate D2E/DX2 analytically  !
 ! A16   A(9,7,10)             108.0947         calculate D2E/DX2 analytically  !
 ! A17   A(4,11,12)             97.8597         calculate D2E/DX2 analytically  !
 ! D1    D(2,1,4,11)           119.0369         calculate D2E/DX2 analytically  !
 ! D2    D(3,1,4,11)          -120.8008         calculate D2E/DX2 analytically  !
 ! D3    D(5,1,4,11)            -1.1432         calculate D2E/DX2 analytically  !
 ! D4    D(2,1,5,6)             -9.6616         calculate D2E/DX2 analytically  !
 ! D5    D(2,1,5,7)            153.9862         calculate D2E/DX2 analytically  !
 ! D6    D(3,1,5,6)           -158.0862         calculate D2E/DX2 analytically  !
 ! D7    D(3,1,5,7)              5.5616         calculate D2E/DX2 analytically  !
 ! D8    D(4,1,5,6)             95.7964         calculate D2E/DX2 analytically  !
 ! D9    D(4,1,5,7)           -100.5558         calculate D2E/DX2 analytically  !
 ! D10   D(1,4,11,12)           -0.3146         calculate D2E/DX2 analytically  !
 ! D11   D(1,5,7,8)             27.3765         calculate D2E/DX2 analytically  !
 ! D12   D(1,5,7,9)            149.0032         calculate D2E/DX2 analytically  !
 ! D13   D(1,5,7,10)           -91.6894         calculate D2E/DX2 analytically  !
 ! D14   D(6,5,7,8)           -168.5738         calculate D2E/DX2 analytically  !
 ! D15   D(6,5,7,9)            -46.9471         calculate D2E/DX2 analytically  !
 ! D16   D(6,5,7,10)            72.3603         calculate D2E/DX2 analytically  !
 --------------------------------------------------------------------------------
 Trust Radius=3.00D-01 FncErr=1.00D-07 GrdErr=1.00D-06 EigMax=2.50D+02 EigMin=1.00D-04
 Number of steps in this run=     54 maximum allowed number of steps=    100.
 Search for a saddle point of order  1.
 GradGradGradGradGradGradGradGradGradGradGradGradGradGradGradGradGradGrad

                          Input orientation:                          
 ---------------------------------------------------------------------
 Center     Atomic      Atomic             Coordinates (Angstroms)
 Number     Number       Type             X           Y           Z
 ---------------------------------------------------------------------
      1          6           0       -0.290081    1.422194   -0.052896
      2          1           0       -0.051530    2.235352    0.624853
      3          1           0       -0.648134    1.716070   -1.036084
      4          1           0        0.942629    0.913211   -0.325847
      5          6           0       -0.753529    0.224863    0.479837
      6          1           0       -0.713961    0.079989    1.554949
      7          6           0       -1.618965   -0.726111   -0.282207
      8          1           0       -1.443279   -0.637399   -1.355718
      9          1           0       -1.440903   -1.757594    0.023456
     10          1           0       -2.670391   -0.490707   -0.088339
     11          8           0        1.752494   -0.055279   -0.294701
     12          8           0        0.997634   -0.892795    0.261492
 ---------------------------------------------------------------------
                    Distance matrix (angstroms):
                    1          2          3          4          5
     1  C    0.000000
     2  H    1.085116   0.000000
     3  H    1.086841   1.839647   0.000000
     4  H    1.361301   1.907941   1.918214   0.000000
     5  C    1.390032   2.134455   2.129043   1.999975   0.000000
     6  H    2.136903   2.439156   3.065052   2.641201   1.085551
     7  C    2.536480   3.471293   2.734061   3.041553   1.494671
     8  H    2.696133   3.756637   2.504643   3.026150   2.142081
     9  H    3.382495   4.270322   3.717183   3.596726   2.147301
    10  H    3.053903   3.846878   3.139683   3.883466   2.123493
    11  O    2.532491   3.057298   3.074141   1.262864   2.637904
    12  O    2.667625   3.319349   3.346406   1.899908   2.088877
                    6          7          8          9         10
     6  H    0.000000
     7  C    2.200902   0.000000
     8  H    3.085212   1.091403   0.000000
     9  H    2.500125   1.090455   1.776785   0.000000
    10  H    2.617959   1.094759   1.770190   1.768938   0.000000
    11  O    3.085920   3.437573   3.417248   3.632752   4.449055
    12  O    2.355610   2.677682   2.939158   2.598269   3.706543
                   11         12
    11  O    0.000000
    12  O    1.257218   0.000000
 Stoichiometry    C3H7O2(2)
 Framework group  C1[X(C3H7O2)]
 Deg. of freedom    30
 Full point group                 C1      NOp   1
 Largest Abelian subgroup         C1      NOp   1
 Largest concise Abelian subgroup C1      NOp   1
                         Standard orientation:                         
 ---------------------------------------------------------------------
 Center     Atomic      Atomic             Coordinates (Angstroms)
 Number     Number       Type             X           Y           Z
 ---------------------------------------------------------------------
      1          6           0       -0.290081    1.422194   -0.052896
      2          1           0       -0.051531    2.235352    0.624853
      3          1           0       -0.648135    1.716070   -1.036084
      4          1           0        0.942629    0.913211   -0.325847
      5          6           0       -0.753529    0.224863    0.479837
      6          1           0       -0.713961    0.079989    1.554949
      7          6           0       -1.618965   -0.726112   -0.282207
      8          1           0       -1.443279   -0.637400   -1.355718
      9          1           0       -1.440903   -1.757595    0.023456
     10          1           0       -2.670391   -0.490708   -0.088339
     11          8           0        1.752494   -0.055279   -0.294701
     12          8           0        0.997634   -0.892795    0.261492
 ---------------------------------------------------------------------
 Rotational constants (GHZ):           7.3913656           3.9041131           2.9104087
 Standard basis: CC-pVTZ+d (5D, 7F)
 There are   280 symmetry adapted cartesian basis functions of A   symmetry.
 There are   248 symmetry adapted basis functions of A   symmetry.
   248 basis functions,   379 primitive gaussians,   280 cartesian basis functions
    21 alpha electrons       20 beta electrons
       nuclear repulsion energy       183.0815617763 Hartrees.
 NAtoms=   12 NActive=   12 NUniq=   12 SFac= 1.00D+00 NAtFMM=   60 NAOKFM=F Big=F
 Integral buffers will be    131072 words long.
 Raffenetti 2 integral format.
 Two-electron integral symmetry is turned on.
 One-electron integrals computed using PRISM.
 NBasis=   248 RedAO= T EigKep=  4.09D-04  NBF=   248
 NBsUse=   248 1.00D-06 EigRej= -1.00D+00 NBFU=   248
 ExpMin= 1.03D-01 ExpMax= 1.53D+04 ExpMxC= 5.22D+02 IAcc=3 IRadAn=         5 AccDes= 0.00D+00
 Harris functional with IExCor=  402 and IRadAn=       5 diagonalized for initial guess.
 HarFok:  IExCor=  402 AccDes= 0.00D+00 IRadAn=         5 IDoV= 1 UseB2=F ITyADJ=14
 ICtDFT=  3500011 ScaDFX=  1.000000  1.000000  1.000000  1.000000
 FoFCou: FMM=F IPFlag=           0 FMFlag=      100000 FMFlg1=           0
         NFxFlg=           0 DoJE=T BraDBF=F KetDBF=T FulRan=T
         wScrn=  0.000000 ICntrl=       500 IOpCl=  0 I1Cent=   200000004 NGrid=           0
         NMat0=    1 NMatS0=      1 NMatT0=    0 NMatD0=    1 NMtDS0=    0 NMtDT0=    0
 Petite list used in FoFCou.
 Initial guess <Sx>= 0.0000 <Sy>= 0.0000 <Sz>= 0.5000 <S**2>= 0.7500 S= 0.5000
 Keep R1 and R2 ints in memory in canonical form, NReq=980075672.
 Requested convergence on RMS density matrix=1.00D-08 within 128 cycles.
 Requested convergence on MAX density matrix=1.00D-06.
 Requested convergence on             energy=1.00D-06.
 No special actions if energy rises.
 Integral accuracy reduced to 1.0D-05 until final iterations.
 Initial convergence to 1.0D-05 achieved.  Increase integral accuracy.
 SCF Done:  E(UB3LYP) =  -268.912460989     A.U. after   17 cycles
            NFock= 17  Conv=0.44D-08     -V/T= 2.0061
 <Sx>= 0.0000 <Sy>= 0.0000 <Sz>= 0.5000 <S**2>= 0.7572 S= 0.5036
 <L.S>= 0.000000000000E+00
 Annihilation of the first spin contaminant:
 S**2 before annihilation     0.7572,   after     0.7500
 DoSCS=F DFT=T ScalE2(SS,OS)=  1.000000  1.000000
 Range of M.O.s used for correlation:     1   248
 NBasis=   248 NAE=    21 NBE=    20 NFC=     0 NFV=     0
 NROrb=    248 NOA=    21 NOB=    20 NVA=   227 NVB=   228

 **** Warning!!: The largest alpha MO coefficient is  0.10802900D+02


 **** Warning!!: The largest beta MO coefficient is  0.10756458D+02

 Symmetrizing basis deriv contribution to polar:
 IMax=3 JMax=2 DiffMx= 0.00D+00
 G2DrvN: will do    13 centers at a time, making    1 passes.
 Calling FoFCou, ICntrl=  3107 FMM=F I1Cent=   0 AccDes= 0.00D+00.
 End of G2Drv F.D. properties file   721 does not exist.
 End of G2Drv F.D. properties file   722 does not exist.
 End of G2Drv F.D. properties file   788 does not exist.
          IDoAtm=111111111111
          Differentiating once with respect to nuclear coordinates.
 Keep R1 and R2 ints in memory in canonical form, NReq=980004100.
          There are    39 degrees of freedom in the 1st order CPHF.  IDoFFX=6 NUNeed=     0.
     33 vectors produced by pass  0 Test12= 2.39D-14 2.56D-09 XBig12= 2.01D-01 1.91D-01.
 AX will form    33 AO Fock derivatives at one time.
     33 vectors produced by pass  1 Test12= 2.39D-14 2.56D-09 XBig12= 3.56D-02 7.16D-02.
     33 vectors produced by pass  2 Test12= 2.39D-14 2.56D-09 XBig12= 7.10D-04 6.18D-03.
     33 vectors produced by pass  3 Test12= 2.39D-14 2.56D-09 XBig12= 6.06D-06 5.54D-04.
     33 vectors produced by pass  4 Test12= 2.39D-14 2.56D-09 XBig12= 4.31D-08 3.76D-05.
     33 vectors produced by pass  5 Test12= 2.39D-14 2.56D-09 XBig12= 1.95D-10 1.78D-06.
     24 vectors produced by pass  6 Test12= 2.39D-14 2.56D-09 XBig12= 1.08D-12 1.53D-07.
      3 vectors produced by pass  7 Test12= 2.39D-14 2.56D-09 XBig12= 6.00D-15 7.81D-09.
 InvSVY:  IOpt=1 It=  1 EMax= 2.33D-15
 Solved reduced A of dimension   225 with    33 vectors.
 End of Minotr F.D. properties file   721 does not exist.
 End of Minotr F.D. properties file   722 does not exist.
 End of Minotr F.D. properties file   788 does not exist.

 **********************************************************************

            Population analysis using the SCF Density.

 **********************************************************************

 Orbital symmetries:
 Alpha Orbitals:
       Occupied  (A) (A) (A) (A) (A) (A) (A) (A) (A) (A) (A) (A)
                 (A) (A) (A) (A) (A) (A) (A) (A) (A)
       Virtual   (A) (A) (A) (A) (A) (A) (A) (A) (A) (A) (A) (A)
                 (A) (A) (A) (A) (A) (A) (A) (A) (A) (A) (A) (A)
                 (A) (A) (A) (A) (A) (A) (A) (A) (A) (A) (A) (A)
                 (A) (A) (A) (A) (A) (A) (A) (A) (A) (A) (A) (A)
                 (A) (A) (A) (A) (A) (A) (A) (A) (A) (A) (A) (A)
                 (A) (A) (A) (A) (A) (A) (A) (A) (A) (A) (A) (A)
                 (A) (A) (A) (A) (A) (A) (A) (A) (A) (A) (A) (A)
                 (A) (A) (A) (A) (A) (A) (A) (A) (A) (A) (A) (A)
                 (A) (A) (A) (A) (A) (A) (A) (A) (A) (A) (A) (A)
                 (A) (A) (A) (A) (A) (A) (A) (A) (A) (A) (A) (A)
                 (A) (A) (A) (A) (A) (A) (A) (A) (A) (A) (A) (A)
                 (A) (A) (A) (A) (A) (A) (A) (A) (A) (A) (A) (A)
                 (A) (A) (A) (A) (A) (A) (A) (A) (A) (A) (A) (A)
                 (A) (A) (A) (A) (A) (A) (A) (A) (A) (A) (A) (A)
                 (A) (A) (A) (A) (A) (A) (A) (A) (A) (A) (A) (A)
                 (A) (A) (A) (A) (A) (A) (A) (A) (A) (A) (A) (A)
                 (A) (A) (A) (A) (A) (A) (A) (A) (A) (A) (A) (A)
                 (A) (A) (A) (A) (A) (A) (A) (A) (A) (A) (A) (A)
                 (A) (A) (A) (A) (A) (A) (A) (A) (A) (A) (A)
 Beta  Orbitals:
       Occupied  (A) (A) (A) (A) (A) (A) (A) (A) (A) (A) (A) (A)
                 (A) (A) (A) (A) (A) (A) (A) (A)
       Virtual   (A) (A) (A) (A) (A) (A) (A) (A) (A) (A) (A) (A)
                 (A) (A) (A) (A) (A) (A) (A) (A) (A) (A) (A) (A)
                 (A) (A) (A) (A) (A) (A) (A) (A) (A) (A) (A) (A)
                 (A) (A) (A) (A) (A) (A) (A) (A) (A) (A) (A) (A)
                 (A) (A) (A) (A) (A) (A) (A) (A) (A) (A) (A) (A)
                 (A) (A) (A) (A) (A) (A) (A) (A) (A) (A) (A) (A)
                 (A) (A) (A) (A) (A) (A) (A) (A) (A) (A) (A) (A)
                 (A) (A) (A) (A) (A) (A) (A) (A) (A) (A) (A) (A)
                 (A) (A) (A) (A) (A) (A) (A) (A) (A) (A) (A) (A)
                 (A) (A) (A) (A) (A) (A) (A) (A) (A) (A) (A) (A)
                 (A) (A) (A) (A) (A) (A) (A) (A) (A) (A) (A) (A)
                 (A) (A) (A) (A) (A) (A) (A) (A) (A) (A) (A) (A)
                 (A) (A) (A) (A) (A) (A) (A) (A) (A) (A) (A) (A)
                 (A) (A) (A) (A) (A) (A) (A) (A) (A) (A) (A) (A)
                 (A) (A) (A) (A) (A) (A) (A) (A) (A) (A) (A) (A)
                 (A) (A) (A) (A) (A) (A) (A) (A) (A) (A) (A) (A)
                 (A) (A) (A) (A) (A) (A) (A) (A) (A) (A) (A) (A)
                 (A) (A) (A) (A) (A) (A) (A) (A) (A) (A) (A) (A)
                 (A) (A) (A) (A) (A) (A) (A) (A) (A) (A) (A) (A)
 The electronic state is 2-A.
 Alpha  occ. eigenvalues --  -19.22416 -19.21872 -10.22208 -10.18144 -10.16483
 Alpha  occ. eigenvalues --   -1.21839  -0.81774  -0.80521  -0.70577  -0.57724
 Alpha  occ. eigenvalues --   -0.54232  -0.50732  -0.48931  -0.47464  -0.43290
 Alpha  occ. eigenvalues --   -0.42162  -0.38591  -0.36849  -0.30729  -0.27398
 Alpha  occ. eigenvalues --   -0.26602
 Alpha virt. eigenvalues --   -0.02585   0.03960   0.06480   0.07015   0.09942
 Alpha virt. eigenvalues --    0.11079   0.11798   0.15236   0.17750   0.19780
 Alpha virt. eigenvalues --    0.21460   0.23567   0.25771   0.27491   0.28108
 Alpha virt. eigenvalues --    0.33019   0.34238   0.38792   0.39232   0.41120
 Alpha virt. eigenvalues --    0.44086   0.45207   0.45277   0.46673   0.47215
 Alpha virt. eigenvalues --    0.49993   0.50269   0.53351   0.54247   0.55237
 Alpha virt. eigenvalues --    0.59114   0.59599   0.63179   0.66066   0.68083
 Alpha virt. eigenvalues --    0.73576   0.74880   0.76435   0.77593   0.84377
 Alpha virt. eigenvalues --    0.85575   0.88680   0.90943   0.91048   0.93673
 Alpha virt. eigenvalues --    0.99289   1.00379   1.02664   1.04171   1.05432
 Alpha virt. eigenvalues --    1.08029   1.08109   1.10719   1.12228   1.16259
 Alpha virt. eigenvalues --    1.16728   1.19906   1.22119   1.25734   1.27200
 Alpha virt. eigenvalues --    1.28146   1.29686   1.31654   1.32815   1.33980
 Alpha virt. eigenvalues --    1.38252   1.40416   1.41442   1.44158   1.44946
 Alpha virt. eigenvalues --    1.49162   1.52985   1.58493   1.61450   1.65664
 Alpha virt. eigenvalues --    1.69687   1.75977   1.76558   1.81994   2.00430
 Alpha virt. eigenvalues --    2.04500   2.14858   2.16807   2.20584   2.24117
 Alpha virt. eigenvalues --    2.27108   2.28530   2.32908   2.35700   2.41537
 Alpha virt. eigenvalues --    2.42565   2.45206   2.50505   2.51671   2.57272
 Alpha virt. eigenvalues --    2.61593   2.62646   2.67400   2.71870   2.73188
 Alpha virt. eigenvalues --    2.75137   2.78391   2.79426   2.82935   2.86918
 Alpha virt. eigenvalues --    2.89537   2.90828   2.93043   2.95732   2.96820
 Alpha virt. eigenvalues --    3.00765   3.01678   3.03732   3.05998   3.07097
 Alpha virt. eigenvalues --    3.09746   3.11991   3.15698   3.20005   3.20865
 Alpha virt. eigenvalues --    3.21601   3.27335   3.29060   3.32853   3.35002
 Alpha virt. eigenvalues --    3.35666   3.37411   3.41197   3.43983   3.44221
 Alpha virt. eigenvalues --    3.47334   3.49572   3.52382   3.55195   3.60564
 Alpha virt. eigenvalues --    3.62221   3.65812   3.67800   3.71596   3.72588
 Alpha virt. eigenvalues --    3.75072   3.78166   3.80743   3.82447   3.83669
 Alpha virt. eigenvalues --    3.86034   3.86972   3.89331   3.92662   3.95562
 Alpha virt. eigenvalues --    3.98260   3.98944   4.01201   4.05228   4.08332
 Alpha virt. eigenvalues --    4.09159   4.10925   4.12572   4.15201   4.17194
 Alpha virt. eigenvalues --    4.23905   4.24782   4.26355   4.30815   4.33894
 Alpha virt. eigenvalues --    4.36937   4.42755   4.45237   4.48830   4.53489
 Alpha virt. eigenvalues --    4.60681   4.64558   4.67485   4.68711   4.74335
 Alpha virt. eigenvalues --    4.75923   4.78539   4.81340   4.83550   4.84635
 Alpha virt. eigenvalues --    4.89171   4.90920   4.96028   5.01595   5.02858
 Alpha virt. eigenvalues --    5.07738   5.08533   5.12318   5.16616   5.16718
 Alpha virt. eigenvalues --    5.20363   5.22339   5.23444   5.31158   5.32325
 Alpha virt. eigenvalues --    5.34191   5.41005   5.44288   5.49883   5.57348
 Alpha virt. eigenvalues --    5.62277   5.75039   5.79606   5.82159   5.85717
 Alpha virt. eigenvalues --    5.87302   5.90512   6.00456   6.23934   6.24368
 Alpha virt. eigenvalues --    6.30703   6.32091   6.40045   6.42274   6.50463
 Alpha virt. eigenvalues --    6.52946   6.68604   6.93389   7.08683   7.11339
 Alpha virt. eigenvalues --    7.44455   7.45899   9.07326  11.06118  11.76278
 Alpha virt. eigenvalues --   13.23807  13.83434
  Beta  occ. eigenvalues --  -19.20985 -19.20165 -10.22270 -10.18137 -10.16478
  Beta  occ. eigenvalues --   -1.18834  -0.81292  -0.76853  -0.70405  -0.57676
  Beta  occ. eigenvalues --   -0.53154  -0.48487  -0.46809  -0.43333  -0.42478
  Beta  occ. eigenvalues --   -0.40812  -0.38561  -0.36759  -0.29808  -0.25650
  Beta virt. eigenvalues --   -0.09962  -0.02262   0.03980   0.06499   0.07092
  Beta virt. eigenvalues --    0.10022   0.11073   0.11827   0.15804   0.17842
  Beta virt. eigenvalues --    0.20564   0.21910   0.23674   0.25958   0.27637
  Beta virt. eigenvalues --    0.28275   0.33144   0.34363   0.39003   0.39381
  Beta virt. eigenvalues --    0.41256   0.44081   0.45212   0.45328   0.46709
  Beta virt. eigenvalues --    0.47325   0.50083   0.50418   0.53932   0.54621
  Beta virt. eigenvalues --    0.55528   0.59450   0.61044   0.64104   0.66740
  Beta virt. eigenvalues --    0.68340   0.73766   0.75107   0.77603   0.78304
  Beta virt. eigenvalues --    0.84603   0.85940   0.88905   0.91017   0.91276
  Beta virt. eigenvalues --    0.93724   0.99317   1.00531   1.02801   1.04303
  Beta virt. eigenvalues --    1.05532   1.08144   1.08235   1.11116   1.12512
  Beta virt. eigenvalues --    1.16350   1.16794   1.20030   1.22494   1.26152
  Beta virt. eigenvalues --    1.27530   1.28363   1.30234   1.32447   1.33554
  Beta virt. eigenvalues --    1.34135   1.38532   1.40569   1.41716   1.44349
  Beta virt. eigenvalues --    1.45452   1.49717   1.53678   1.58856   1.62034
  Beta virt. eigenvalues --    1.66475   1.70398   1.76337   1.77868   1.83239
  Beta virt. eigenvalues --    2.00819   2.06453   2.16257   2.19088   2.20762
  Beta virt. eigenvalues --    2.24781   2.27457   2.28770   2.33105   2.35893
  Beta virt. eigenvalues --    2.41610   2.42758   2.45251   2.50614   2.51685
  Beta virt. eigenvalues --    2.57248   2.61589   2.62733   2.67418   2.71901
  Beta virt. eigenvalues --    2.73153   2.75158   2.78404   2.79426   2.82947
  Beta virt. eigenvalues --    2.86907   2.89549   2.90852   2.93087   2.95786
  Beta virt. eigenvalues --    2.96860   3.00836   3.01693   3.03766   3.06041
  Beta virt. eigenvalues --    3.07117   3.09750   3.12044   3.15660   3.19999
  Beta virt. eigenvalues --    3.20945   3.21634   3.27467   3.29337   3.33171
  Beta virt. eigenvalues --    3.35025   3.35833   3.37692   3.41438   3.44124
  Beta virt. eigenvalues --    3.44800   3.47369   3.49618   3.53785   3.57967
  Beta virt. eigenvalues --    3.60956   3.62444   3.65922   3.68109   3.71872
  Beta virt. eigenvalues --    3.74091   3.75740   3.78324   3.81120   3.82614
  Beta virt. eigenvalues --    3.83768   3.86131   3.88562   3.89600   3.92788
  Beta virt. eigenvalues --    3.95687   3.98346   3.99804   4.01306   4.05630
  Beta virt. eigenvalues --    4.08603   4.09337   4.10973   4.12668   4.15260
  Beta virt. eigenvalues --    4.17368   4.23990   4.24916   4.26423   4.30887
  Beta virt. eigenvalues --    4.34097   4.37122   4.42742   4.45374   4.48836
  Beta virt. eigenvalues --    4.53956   4.60803   4.65045   4.67883   4.70936
  Beta virt. eigenvalues --    4.75697   4.77032   4.80886   4.81753   4.84124
  Beta virt. eigenvalues --    4.85264   4.89907   4.92209   4.96292   5.02517
  Beta virt. eigenvalues --    5.03483   5.07825   5.08964   5.13050   5.17521
  Beta virt. eigenvalues --    5.19337   5.21337   5.22926   5.25467   5.31264
  Beta virt. eigenvalues --    5.32651   5.34217   5.41101   5.44426   5.50925
  Beta virt. eigenvalues --    5.57624   5.65068   5.75368   5.81186   5.83250
  Beta virt. eigenvalues --    5.86287   5.87769   5.91203   6.00472   6.27041
  Beta virt. eigenvalues --    6.29333   6.33143   6.37321   6.43003   6.47227
  Beta virt. eigenvalues --    6.54225   6.57662   6.69516   6.95335   7.10154
  Beta virt. eigenvalues --    7.14751   7.45139   7.47062   9.10253  11.06141
  Beta virt. eigenvalues --   11.78714  13.23826  13.83420
          Condensed to atoms (all electrons):
               1          2          3          4          5          6
     1  C    5.081009   0.407584   0.405357   0.220738   0.474776  -0.035958
     2  H    0.407584   0.556126  -0.031129  -0.005797  -0.039100  -0.008135
     3  H    0.405357  -0.031129   0.565612  -0.007403  -0.044912   0.005506
     4  H    0.220738  -0.005797  -0.007403   0.468775   0.001722   0.001589
     5  C    0.474776  -0.039100  -0.044912   0.001722   4.936408   0.411535
     6  H   -0.035958  -0.008135   0.005506   0.001589   0.411535   0.529414
     7  C   -0.057168   0.006165  -0.005406   0.001748   0.345280  -0.031171
     8  H   -0.002456   0.000121   0.003782   0.000009  -0.035973   0.005930
     9  H    0.005272  -0.000360   0.000160   0.000168  -0.038863  -0.003900
    10  H   -0.001505  -0.000330   0.000139   0.000073  -0.037043  -0.002616
    11  O   -0.083984  -0.001134  -0.001356   0.182659  -0.076289   0.001253
    12  O   -0.022668   0.002381   0.002350  -0.063772   0.093081  -0.010282
               7          8          9         10         11         12
     1  C   -0.057168  -0.002456   0.005272  -0.001505  -0.083984  -0.022668
     2  H    0.006165   0.000121  -0.000360  -0.000330  -0.001134   0.002381
     3  H   -0.005406   0.003782   0.000160   0.000139  -0.001356   0.002350
     4  H    0.001748   0.000009   0.000168   0.000073   0.182659  -0.063772
     5  C    0.345280  -0.035973  -0.038863  -0.037043  -0.076289   0.093081
     6  H   -0.031171   0.005930  -0.003900  -0.002616   0.001253  -0.010282
     7  C    4.812901   0.399150   0.405510   0.391144   0.003050  -0.008383
     8  H    0.399150   0.582622  -0.026393  -0.026390   0.001498  -0.001501
     9  H    0.405510  -0.026393   0.579637  -0.032290   0.000530  -0.000299
    10  H    0.391144  -0.026390  -0.032290   0.600080  -0.000403   0.003065
    11  O    0.003050   0.001498   0.000530  -0.000403   7.939847   0.127281
    12  O   -0.008383  -0.001501  -0.000299   0.003065   0.127281   8.015098
          Atomic-Atomic Spin Densities.
               1          2          3          4          5          6
     1  C   -0.002930  -0.001054  -0.000383   0.004708   0.002259   0.000151
     2  H   -0.001054   0.001193  -0.000675   0.000425   0.000322  -0.000023
     3  H   -0.000383  -0.000675   0.001063   0.000482  -0.000317   0.000082
     4  H    0.004708   0.000425   0.000482  -0.017627   0.003245  -0.000059
     5  C    0.002259   0.000322  -0.000317   0.003245  -0.048026   0.000292
     6  H    0.000151  -0.000023   0.000082  -0.000059   0.000292   0.001745
     7  C    0.000291   0.000156  -0.000206  -0.000296   0.002274  -0.000429
     8  H   -0.000063  -0.000005   0.000098  -0.000084   0.000533  -0.000049
     9  H    0.000173   0.000016   0.000015  -0.000196   0.000843  -0.000018
    10  H   -0.000585  -0.000132   0.000236   0.000078   0.001245   0.000294
    11  O    0.001072  -0.000119  -0.000194  -0.006473   0.003506  -0.000139
    12  O   -0.001947   0.000222   0.000310   0.002155  -0.008644  -0.000004
               7          8          9         10         11         12
     1  C    0.000291  -0.000063   0.000173  -0.000585   0.001072  -0.001947
     2  H    0.000156  -0.000005   0.000016  -0.000132  -0.000119   0.000222
     3  H   -0.000206   0.000098   0.000015   0.000236  -0.000194   0.000310
     4  H   -0.000296  -0.000084  -0.000196   0.000078  -0.006473   0.002155
     5  C    0.002274   0.000533   0.000843   0.001245   0.003506  -0.008644
     6  H   -0.000429  -0.000049  -0.000018   0.000294  -0.000139  -0.000004
     7  C   -0.000655   0.000527  -0.000184   0.000794  -0.000853   0.002918
     8  H    0.000527  -0.000431   0.000183  -0.000561  -0.000044  -0.001037
     9  H   -0.000184   0.000183  -0.001959   0.000870  -0.000017  -0.000409
    10  H    0.000794  -0.000561   0.000870  -0.003288  -0.000067   0.000134
    11  O   -0.000853  -0.000044  -0.000017  -0.000067   0.653293  -0.177184
    12  O    0.002918  -0.001037  -0.000409   0.000134  -0.177184   0.760702
 Mulliken charges and spin densities:
               1          2
     1  C   -0.390996   0.001692
     2  H    0.113608   0.000326
     3  H    0.107300   0.000510
     4  H    0.199491  -0.013642
     5  C    0.009377  -0.042467
     6  H    0.136836   0.001844
     7  C   -0.262820   0.004337
     8  H    0.099602  -0.000932
     9  H    0.110830  -0.000682
    10  H    0.106075  -0.000982
    11  O   -0.092952   0.472782
    12  O   -0.136351   0.577215
 Sum of Mulliken charges =  -0.00000   1.00000
 Mulliken charges and spin densities with hydrogens summed into heavy atoms:
               1          2
     1  C   -0.170087   0.002528
     5  C    0.146212  -0.040623
     7  C    0.053687   0.001740
    11  O    0.106539   0.459139
    12  O   -0.136351   0.577215
 APT charges:
               1
     1  C   -0.868559
     2  H    0.422102
     3  H    0.338557
     4  H    0.136315
     5  C   -0.238649
     6  H    0.368236
     7  C   -1.002517
     8  H    0.253871
     9  H    0.320658
    10  H    0.445804
    11  O   -0.074332
    12  O   -0.101485
 Sum of APT charges =  -0.00000
 APT charges with hydrogens summed into heavy atoms:
               1
     1  C   -0.107900
     5  C    0.129587
     7  C    0.017816
    11  O    0.061983
    12  O   -0.101485
 Electronic spatial extent (au):  <R**2>=            458.8085
 Charge=             -0.0000 electrons
 Dipole moment (field-independent basis, Debye):
    X=             -1.9480    Y=              0.7682    Z=              0.1864  Tot=              2.1023
 Quadrupole moment (field-independent basis, Debye-Ang):
   XX=            -33.3628   YY=            -31.4980   ZZ=            -29.8775
   XY=              2.1584   XZ=              0.2519   YZ=              0.0863
 Traceless Quadrupole moment (field-independent basis, Debye-Ang):
   XX=             -1.7833   YY=              0.0814   ZZ=              1.7020
   XY=              2.1584   XZ=              0.2519   YZ=              0.0863
 Octapole moment (field-independent basis, Debye-Ang**2):
  XXX=              4.5692  YYY=             -3.3860  ZZZ=              0.7350  XYY=              3.9741
  XXY=             -1.3722  XXZ=              0.7980  XZZ=              3.0383  YZZ=             -0.6888
  YYZ=              0.0631  XYZ=              0.8478
 Hexadecapole moment (field-independent basis, Debye-Ang**3):
 XXXX=           -325.5274 YYYY=           -192.4622 ZZZZ=            -65.5672 XXXY=             -0.2188
 XXXZ=              0.0385 YYYX=              1.0135 YYYZ=              0.2167 ZZZX=             -0.7425
 ZZZY=             -1.3005 XXYY=            -89.4765 XXZZ=            -65.9664 YYZZ=            -43.0802
 XXYZ=             -1.2665 YYXZ=             -0.1536 ZZXY=             -1.3297
 N-N= 1.830815617763D+02 E-N=-9.956582905967D+02  KE= 2.672725851871D+02
  Exact polarizability:   0.000   0.000   0.000   0.000   0.000   0.000
 Approx polarizability:  96.648  -1.094  80.275 -10.902  -7.684  60.739
                          Isotropic Fermi Contact Couplings
        Atom                 a.u.       MegaHertz       Gauss      10(-4) cm-1
     1  C(13)             -0.00012      -0.13992      -0.04993      -0.04667
     2  H(1)              -0.00015      -0.69253      -0.24711      -0.23100
     3  H(1)              -0.00009      -0.42120      -0.15030      -0.14050
     4  H(1)              -0.00630     -28.16643     -10.05048      -9.39531
     5  C(13)             -0.00270      -3.03609      -1.08335      -1.01273
     6  H(1)               0.00117       5.21183       1.85971       1.73848
     7  C(13)              0.00358       4.02280       1.43544       1.34186
     8  H(1)              -0.00021      -0.95173      -0.33960      -0.31746
     9  H(1)              -0.00005      -0.24531      -0.08753      -0.08183
    10  H(1)              -0.00075      -3.33426      -1.18975      -1.11219
    11  O(17)              0.04201     -25.46348      -9.08600      -8.49370
    12  O(17)              0.04057     -24.59533      -8.77623      -8.20412
 --------------------------------------------------------
       Center         ----  Spin Dipole Couplings  ----
                      3XX-RR        3YY-RR        3ZZ-RR
 --------------------------------------------------------
     1   Atom        0.004437      0.001891     -0.006328
     2   Atom       -0.000973      0.004525     -0.003552
     3   Atom        0.001604      0.001582     -0.003186
     4   Atom       -0.004497      0.032478     -0.027981
     5   Atom       -0.021069      0.005041      0.016029
     6   Atom        0.006735     -0.003020     -0.003715
     7   Atom        0.011674     -0.006117     -0.005557
     8   Atom        0.006768     -0.004788     -0.001980
     9   Atom        0.009988     -0.004036     -0.005952
    10   Atom        0.004280     -0.002207     -0.002073
    11   Atom       -0.714743     -0.812150      1.526893
    12   Atom       -0.827443     -0.969903      1.797346
 --------------------------------------------------------
                        XY            XZ            YZ
 --------------------------------------------------------
     1   Atom       -0.009957     -0.001333      0.000493
     2   Atom       -0.005154     -0.001345      0.002062
     3   Atom       -0.005478      0.002383     -0.002288
     4   Atom       -0.041670      0.004972     -0.004371
     5   Atom        0.018279      0.010912     -0.004166
     6   Atom       -0.004860     -0.009878      0.004638
     7   Atom       -0.000739      0.002898     -0.000696
     8   Atom       -0.000404      0.005687     -0.000791
     9   Atom        0.005696      0.000233     -0.000173
    10   Atom       -0.000704      0.000014     -0.000237
    11   Atom        0.249045      1.028363      0.875734
    12   Atom        0.281443      1.172275      1.059301
 --------------------------------------------------------


 ---------------------------------------------------------------------------------
              Anisotropic Spin Dipole Couplings in Principal Axis System
 ---------------------------------------------------------------------------------

       Atom             a.u.   MegaHertz   Gauss  10(-4) cm-1        Axes

              Baa    -0.0072    -0.967    -0.345    -0.322  0.5811  0.6068  0.5423
     1 C(13)  Bbb    -0.0061    -0.817    -0.291    -0.272 -0.3159 -0.4460  0.8374
              Bcc     0.0133     1.784     0.636     0.595  0.7500 -0.6580 -0.0675
 
              Baa    -0.0042    -2.219    -0.792    -0.740  0.6731  0.2328  0.7020
     2 H(1)   Bbb    -0.0040    -2.122    -0.757    -0.708 -0.5405 -0.4930  0.6818
              Bcc     0.0081     4.340     1.549     1.448 -0.5048  0.8383  0.2060
 
              Baa    -0.0042    -2.225    -0.794    -0.742 -0.3432  0.0464  0.9381
     3 H(1)   Bbb    -0.0039    -2.066    -0.737    -0.689  0.6478  0.7349  0.2007
              Bcc     0.0080     4.291     1.531     1.431  0.6801 -0.6766  0.2822
 
              Baa    -0.0324   -17.286    -6.168    -5.766  0.7799  0.4734 -0.4094
     4 H(1)   Bbb    -0.0276   -14.748    -5.262    -4.919  0.3078  0.2795  0.9095
              Bcc     0.0600    32.034    11.431    10.685 -0.5449  0.8354 -0.0723
 
              Baa    -0.0332    -4.457    -1.590    -1.487  0.8682 -0.4399 -0.2296
     5 C(13)  Bbb     0.0141     1.894     0.676     0.632  0.3835  0.8885 -0.2521
              Bcc     0.0191     2.564     0.915     0.855  0.3149  0.1308  0.9401
 
              Baa    -0.0101    -5.378    -1.919    -1.794  0.4279 -0.2717  0.8620
     6 H(1)   Bbb    -0.0050    -2.664    -0.950    -0.888  0.4313  0.8995  0.0695
              Bcc     0.0151     8.042     2.870     2.682  0.7943 -0.3421 -0.5021
 
              Baa    -0.0067    -0.894    -0.319    -0.298 -0.0750  0.7438  0.6642
     7 C(13)  Bbb    -0.0055    -0.741    -0.264    -0.247 -0.1516 -0.6668  0.7296
              Bcc     0.0122     1.635     0.584     0.545  0.9856 -0.0460  0.1628
 
              Baa    -0.0053    -2.845    -1.015    -0.949 -0.2753  0.7202  0.6368
     8 H(1)   Bbb    -0.0043    -2.279    -0.813    -0.760  0.3504  0.6920 -0.6311
              Bcc     0.0096     5.124     1.828     1.709  0.8952 -0.0495  0.4429
 
              Baa    -0.0063    -3.336    -1.190    -1.113 -0.2657  0.7319  0.6275
     9 H(1)   Bbb    -0.0058    -3.073    -1.096    -1.025  0.2032 -0.5937  0.7786
              Bcc     0.0120     6.409     2.287     2.138  0.9424  0.3344  0.0090
 
              Baa    -0.0024    -1.299    -0.464    -0.433  0.0863  0.8342  0.5446
    10 H(1)   Bbb    -0.0019    -1.025    -0.366    -0.342 -0.0633 -0.5409  0.8387
              Bcc     0.0044     2.324     0.829     0.775  0.9943 -0.1068  0.0062
 
              Baa    -1.1834    85.630    30.555    28.563  0.6514  0.6141 -0.4456
    11 O(17)  Bbb    -1.0167    73.570    26.252    24.540 -0.6781  0.7347  0.0212
              Bcc     2.2001  -159.200   -56.807   -53.103  0.3404  0.2883  0.8950
 
              Baa    -1.4005   101.339    36.160    33.803  0.5379  0.7214 -0.4362
    12 O(17)  Bbb    -1.1792    85.328    30.447    28.462  0.7746 -0.6271 -0.0819
              Bcc     2.5797  -186.667   -66.607   -62.265  0.3326  0.2938  0.8961
 

 ---------------------------------------------------------------------------------

 Calling FoFJK, ICntrl=    100147 FMM=F ISym2X=0 I1Cent= 0 IOpClX= 1 NMat=1 NMatS=1 NMatT=0.
 ***** Axes restored to original set *****
 -------------------------------------------------------------------
 Center     Atomic                   Forces (Hartrees/Bohr)
 Number     Number              X              Y              Z
 -------------------------------------------------------------------
      1        6           0.006797061   -0.001103461   -0.001629643
      2        1          -0.001121564    0.000127949   -0.000793832
      3        1          -0.000245316    0.000809990    0.001322874
      4        1          -0.007774700    0.007470120    0.000396986
      5        6          -0.005376806   -0.000721664    0.001897805
      6        1          -0.000417455    0.000272929   -0.001929366
      7        6           0.000474161    0.001044460    0.001379315
      8        1          -0.000881520   -0.000486083    0.000811924
      9        1          -0.000979602    0.000442257   -0.000584997
     10        1          -0.000127952   -0.000954565   -0.000597215
     11        8           0.016297188    0.005572614   -0.007601066
     12        8          -0.006643495   -0.012474546    0.007327214
 -------------------------------------------------------------------
 Cartesian Forces:  Max     0.016297188 RMS     0.004782472
 FormGI is forming the generalized inverse of G from B-inverse, IUseBI=4.

 GradGradGradGradGradGradGradGradGradGradGradGradGradGradGradGradGradGrad
 Berny optimization.
 Internal  Forces:  Max     0.015540471 RMS     0.004615648
 Search for a saddle point.
 Step number   1 out of a maximum of   54
 All quantities printed in internal units (Hartrees-Bohrs-Radians)
 Swapping is turned off.
 Second derivative matrix not updated -- analytic derivatives used.
 ITU=  0
     Eigenvalues ---   -0.05990   0.00183   0.00267   0.01565   0.01832
     Eigenvalues ---    0.03764   0.04064   0.05558   0.05727   0.07510
     Eigenvalues ---    0.07889   0.08300   0.11213   0.12395   0.13824
     Eigenvalues ---    0.14388   0.16305   0.18706   0.22783   0.31217
     Eigenvalues ---    0.32728   0.33359   0.34245   0.34456   0.34818
     Eigenvalues ---    0.34840   0.39532   0.52295   0.69354   0.78061
 Eigenvectors required to have negative eigenvalues:
                          R5        R3        A7        D5        D6
   1                    0.64000  -0.58783  -0.25127  -0.18245   0.17307
                          A17       R4        A4        A2        D11
   1                   -0.16597   0.15567   0.08687   0.08230   0.08139
 RFO step:  Lambda0=8.595613913D-05 Lambda=-2.03513152D-03.
 Linear search not attempted -- option 19 set.
 Iteration  1 RMS(Cart)=  0.04018441 RMS(Int)=  0.00087907
 Iteration  2 RMS(Cart)=  0.00122440 RMS(Int)=  0.00023851
 Iteration  3 RMS(Cart)=  0.00000127 RMS(Int)=  0.00023851
 Iteration  4 RMS(Cart)=  0.00000000 RMS(Int)=  0.00023851
 Variable       Old X    -DE/DX   Delta X   Delta X   Delta X     New X
                                 (Linear)    (Quad)   (Total)
    R1        2.05057  -0.00065   0.00000  -0.00074  -0.00074   2.04983
    R2        2.05383  -0.00090   0.00000  -0.00162  -0.00162   2.05222
    R3        2.57249   0.00146   0.00000  -0.00965  -0.00965   2.56284
    R4        2.62678   0.00316   0.00000  -0.00961  -0.00961   2.61717
    R5        2.38647   0.01148   0.00000   0.00916   0.00916   2.39563
    R6        2.05139  -0.00196   0.00000  -0.00623  -0.00623   2.04516
    R7        2.82452   0.00033   0.00000  -0.00860  -0.00860   2.81591
    R8        2.06245  -0.00098   0.00000  -0.00288  -0.00288   2.05958
    R9        2.06066  -0.00074   0.00000  -0.00206  -0.00206   2.05860
   R10        2.06879  -0.00019   0.00000   0.00145   0.00145   2.07024
   R11        2.37580   0.01554   0.00000   0.03086   0.03086   2.40665
    A1        2.02063  -0.00008   0.00000  -0.00936  -0.00942   2.01121
    A2        1.77864  -0.00461   0.00000  -0.01535  -0.01539   1.76325
    A3        2.07078  -0.00093   0.00000  -0.00123  -0.00118   2.06960
    A4        1.79060  -0.00336   0.00000  -0.00429  -0.00446   1.78614
    A5        2.05983  -0.00173   0.00000   0.00536   0.00530   2.06513
    A6        1.62752   0.01302   0.00000   0.03014   0.03006   1.65758
    A7        2.61100   0.01503   0.00000   0.05349   0.05349   2.66449
    A8        2.07415  -0.00044   0.00000  -0.00184  -0.00275   2.07140
    A9        2.14801   0.00133   0.00000   0.01937   0.01849   2.16650
   A10        2.02766  -0.00101   0.00000   0.00103   0.00014   2.02780
   A11        1.93538   0.00077   0.00000   0.01181   0.01176   1.94714
   A12        1.94376   0.00090   0.00000   0.00555   0.00551   1.94927
   A13        1.90604   0.00116   0.00000   0.00401   0.00400   1.91004
   A14        1.90320  -0.00073   0.00000  -0.00229  -0.00236   1.90084
   A15        1.88736  -0.00101   0.00000  -0.00790  -0.00793   1.87943
   A16        1.88661  -0.00119   0.00000  -0.01221  -0.01221   1.87440
   A17        1.70797   0.00806   0.00000   0.00463   0.00463   1.71260
    D1        2.07759   0.00084   0.00000  -0.00059  -0.00070   2.07688
    D2       -2.10837  -0.00226   0.00000  -0.01825  -0.01822  -2.12659
    D3       -0.01995  -0.00094   0.00000  -0.00477  -0.00469  -0.02465
    D4       -0.16863  -0.00260   0.00000  -0.05532  -0.05532  -0.22394
    D5        2.68757  -0.00328   0.00000   0.02232   0.02229   2.70986
    D6       -2.75913   0.00263   0.00000  -0.04241  -0.04234  -2.80146
    D7        0.09707   0.00195   0.00000   0.03522   0.03527   0.13234
    D8        1.67196  -0.00056   0.00000  -0.05580  -0.05584   1.61612
    D9       -1.75503  -0.00124   0.00000   0.02183   0.02177  -1.73326
   D10       -0.00549  -0.00151   0.00000   0.00166   0.00166  -0.00383
   D11        0.47781   0.00019   0.00000  -0.06366  -0.06374   0.41407
   D12        2.60060   0.00041   0.00000  -0.05455  -0.05458   2.54601
   D13       -1.60028   0.00023   0.00000  -0.06366  -0.06374  -1.66402
   D14       -2.94217  -0.00040   0.00000   0.01153   0.01158  -2.93059
   D15       -0.81938  -0.00018   0.00000   0.02064   0.02073  -0.79865
   D16        1.26293  -0.00035   0.00000   0.01153   0.01158   1.27450
         Item               Value     Threshold  Converged?
 Maximum Force            0.015540     0.000450     NO 
 RMS     Force            0.004616     0.000300     NO 
 Maximum Displacement     0.170690     0.001800     NO 
 RMS     Displacement     0.040777     0.001200     NO 
 Predicted change in Energy=-1.002179D-03
 GradGradGradGradGradGradGradGradGradGradGradGradGradGradGradGradGradGrad

                          Input orientation:                          
 ---------------------------------------------------------------------
 Center     Atomic      Atomic             Coordinates (Angstroms)
 Number     Number       Type             X           Y           Z
 ---------------------------------------------------------------------
      1          6           0       -0.289151    1.414748   -0.055136
      2          1           0       -0.044268    2.226796    0.621055
      3          1           0       -0.623255    1.719291   -1.042554
      4          1           0        0.943020    0.908459   -0.309479
      5          6           0       -0.794406    0.239768    0.476101
      6          1           0       -0.733960    0.085031    1.545528
      7          6           0       -1.644406   -0.722285   -0.280473
      8          1           0       -1.488485   -0.634968   -1.355604
      9          1           0       -1.453918   -1.751494    0.021452
     10          1           0       -2.700572   -0.512066   -0.079227
     11          8           0        1.803424   -0.022417   -0.293041
     12          8           0        1.087959   -0.919069    0.260173
 ---------------------------------------------------------------------
                    Distance matrix (angstroms):
                    1          2          3          4          5
     1  C    0.000000
     2  H    1.084723   0.000000
     3  H    1.085986   1.833134   0.000000
     4  H    1.356195   1.891730   1.909991   0.000000
     5  C    1.384944   2.128849   2.127109   2.020626   0.000000
     6  H    2.127940   2.432588   3.062879   2.632745   1.082254
     7  C    2.540551   3.474230   2.754053   3.058585   1.490118
     8  H    2.707573   3.765984   2.527678   3.064108   2.145239
     9  H    3.374556   4.263030   3.724037   3.595855   2.146342
    10  H    3.086769   3.879138   3.197217   3.917482   2.122996
    11  O    2.549689   3.050983   3.079625   1.267712   2.721955
    12  O    2.728105   3.362832   3.403865   1.919731   2.220997
                    6          7          8          9         10
     6  H    0.000000
     7  C    2.194300   0.000000
     8  H    3.082900   1.089881   0.000000
     9  H    2.492783   1.089365   1.773163   0.000000
    10  H    2.619908   1.095526   1.764482   1.760813   0.000000
    11  O    3.135315   3.518168   3.512965   3.701201   4.535576
    12  O    2.445352   2.792283   3.054425   2.685341   3.825417
                   11         12
    11  O    0.000000
    12  O    1.273546   0.000000
 Stoichiometry    C3H7O2(2)
 Framework group  C1[X(C3H7O2)]
 Deg. of freedom    30
 Full point group                 C1      NOp   1
 Largest Abelian subgroup         C1      NOp   1
 Largest concise Abelian subgroup C1      NOp   1
                         Standard orientation:                         
 ---------------------------------------------------------------------
 Center     Atomic      Atomic             Coordinates (Angstroms)
 Number     Number       Type             X           Y           Z
 ---------------------------------------------------------------------
      1          6           0       -0.317378    1.409830   -0.047810
      2          1           0       -0.079128    2.220710    0.632141
      3          1           0       -0.654534    1.716208   -1.033622
      4          1           0        0.918956    0.915310   -0.305090
      5          6           0       -0.812324    0.228056    0.478031
      6          1           0       -0.750059    0.068746    1.546683
      7          6           0       -1.654424   -0.737612   -0.282760
      8          1           0       -1.499757   -0.643842   -1.357528
      9          1           0       -1.455006   -1.766582    0.014172
     10          1           0       -2.712254   -0.537391   -0.080064
     11          8           0        1.787292   -0.008244   -0.293459
     12          8           0        1.079775   -0.913606    0.255777
 ---------------------------------------------------------------------
 Rotational constants (GHZ):           7.3609782           3.6851083           2.7791259
 Standard basis: CC-pVTZ+d (5D, 7F)
 There are   280 symmetry adapted cartesian basis functions of A   symmetry.
 There are   248 symmetry adapted basis functions of A   symmetry.
   248 basis functions,   379 primitive gaussians,   280 cartesian basis functions
    21 alpha electrons       20 beta electrons
       nuclear repulsion energy       180.5737528284 Hartrees.
 NAtoms=   12 NActive=   12 NUniq=   12 SFac= 1.00D+00 NAtFMM=   60 NAOKFM=F Big=F
 Integral buffers will be    131072 words long.
 Raffenetti 2 integral format.
 Two-electron integral symmetry is turned on.
 One-electron integrals computed using PRISM.
 NBasis=   248 RedAO= T EigKep=  4.08D-04  NBF=   248
 NBsUse=   248 1.00D-06 EigRej= -1.00D+00 NBFU=   248
 Initial guess from the checkpoint file:  "RisopO2-concerted-OOH-elim-TS3-b3lyp-c.chk"
 B after Tr=     0.000000   -0.000000    0.000000
         Rot=    0.999966   -0.003130   -0.000106   -0.007581 Ang=  -0.94 deg.
 Initial guess <Sx>= 0.0000 <Sy>= 0.0000 <Sz>= 0.5000 <S**2>= 0.7573 S= 0.5036
 ExpMin= 1.03D-01 ExpMax= 1.53D+04 ExpMxC= 5.22D+02 IAcc=3 IRadAn=         5 AccDes= 0.00D+00
 Harris functional with IExCor=  402 and IRadAn=       5 diagonalized for initial guess.
 HarFok:  IExCor=  402 AccDes= 0.00D+00 IRadAn=         5 IDoV= 1 UseB2=F ITyADJ=14
 ICtDFT=  3500011 ScaDFX=  1.000000  1.000000  1.000000  1.000000
 FoFCou: FMM=F IPFlag=           0 FMFlag=      100000 FMFlg1=           0
         NFxFlg=           0 DoJE=T BraDBF=F KetDBF=T FulRan=T
         wScrn=  0.000000 ICntrl=       500 IOpCl=  0 I1Cent=   200000004 NGrid=           0
         NMat0=    1 NMatS0=      1 NMatT0=    0 NMatD0=    1 NMtDS0=    0 NMtDT0=    0
 Petite list used in FoFCou.
 Keep R1 and R2 ints in memory in canonical form, NReq=980075672.
 Requested convergence on RMS density matrix=1.00D-08 within 128 cycles.
 Requested convergence on MAX density matrix=1.00D-06.
 Requested convergence on             energy=1.00D-06.
 No special actions if energy rises.
 Integral accuracy reduced to 1.0D-05 until final iterations.
 Initial convergence to 1.0D-05 achieved.  Increase integral accuracy.
 SCF Done:  E(UB3LYP) =  -268.913544725     A.U. after   15 cycles
            NFock= 15  Conv=0.75D-08     -V/T= 2.0063
 <Sx>= 0.0000 <Sy>= 0.0000 <Sz>= 0.5000 <S**2>= 0.7584 S= 0.5042
 <L.S>= 0.000000000000E+00
 Annihilation of the first spin contaminant:
 S**2 before annihilation     0.7584,   after     0.7500
 Calling FoFJK, ICntrl=      2127 FMM=F ISym2X=0 I1Cent= 0 IOpClX= 1 NMat=1 NMatS=1 NMatT=0.
 ***** Axes restored to original set *****
 -------------------------------------------------------------------
 Center     Atomic                   Forces (Hartrees/Bohr)
 Number     Number              X              Y              Z
 -------------------------------------------------------------------
      1        6           0.000898855    0.000105435   -0.000381321
      2        1          -0.000083293    0.000061377   -0.000053916
      3        1          -0.000092084    0.000146903    0.000089340
      4        1          -0.000718684    0.000193385    0.000042352
      5        6          -0.000833384   -0.000125839    0.000297956
      6        1          -0.000102994   -0.000018631    0.000157254
      7        6          -0.000442434    0.000048433   -0.000086930
      8        1          -0.000038626    0.000048560   -0.000000849
      9        1           0.000008055   -0.000015779   -0.000014836
     10        1           0.000013097   -0.000099800    0.000005485
     11        8           0.001458767    0.000670931   -0.000625610
     12        8          -0.000067275   -0.001014975    0.000571073
 -------------------------------------------------------------------
 Cartesian Forces:  Max     0.001458767 RMS     0.000439608

 GradGradGradGradGradGradGradGradGradGradGradGradGradGradGradGradGradGrad
 Berny optimization.
 FormGI is forming the generalized inverse of G from B-inverse, IUseBI=4.
 Internal  Forces:  Max     0.003150279 RMS     0.000744502
 Search for a saddle point.
 Step number   2 out of a maximum of   54
 All quantities printed in internal units (Hartrees-Bohrs-Radians)
 Swapping is turned off.
 Update second derivatives using D2CorX and points    1    2
 ITU=  0  0
     Eigenvalues ---   -0.06052   0.00182   0.00307   0.01592   0.02203
     Eigenvalues ---    0.03789   0.04062   0.05559   0.05727   0.07508
     Eigenvalues ---    0.07883   0.08241   0.11189   0.12404   0.13823
     Eigenvalues ---    0.14380   0.16303   0.18711   0.22770   0.31216
     Eigenvalues ---    0.32728   0.33358   0.34245   0.34456   0.34820
     Eigenvalues ---    0.34843   0.39283   0.52183   0.68607   0.77232
 Eigenvectors required to have negative eigenvalues:
                          R5        R3        A7        D5        D6
   1                    0.63784  -0.58548  -0.25994  -0.18145   0.17253
                          A17       R4        A4        A2        D11
   1                   -0.16675   0.15539   0.08703   0.08475   0.08414
 RFO step:  Lambda0=2.802768485D-06 Lambda=-6.42929523D-05.
 Linear search not attempted -- option 19 set.
 Iteration  1 RMS(Cart)=  0.01184525 RMS(Int)=  0.00010696
 Iteration  2 RMS(Cart)=  0.00010276 RMS(Int)=  0.00000374
 Iteration  3 RMS(Cart)=  0.00000002 RMS(Int)=  0.00000374
 Variable       Old X    -DE/DX   Delta X   Delta X   Delta X     New X
                                 (Linear)    (Quad)   (Total)
    R1        2.04983  -0.00001   0.00000   0.00024   0.00024   2.05007
    R2        2.05222  -0.00001   0.00000   0.00010   0.00010   2.05231
    R3        2.56284   0.00067   0.00000  -0.01039  -0.01039   2.55244
    R4        2.61717   0.00078   0.00000   0.00143   0.00143   2.61860
    R5        2.39563   0.00120   0.00000   0.00765   0.00765   2.40328
    R6        2.04516   0.00015   0.00000   0.00034   0.00034   2.04550
    R7        2.81591   0.00032   0.00000   0.00001   0.00001   2.81592
    R8        2.05958  -0.00000   0.00000  -0.00012  -0.00012   2.05946
    R9        2.05860   0.00001   0.00000   0.00021   0.00021   2.05881
   R10        2.07024  -0.00003   0.00000   0.00002   0.00002   2.07026
   R11        2.40665   0.00100   0.00000   0.00258   0.00258   2.40923
    A1        2.01121   0.00004   0.00000  -0.00192  -0.00193   2.00928
    A2        1.76325  -0.00096   0.00000  -0.00054  -0.00054   1.76271
    A3        2.06960  -0.00011   0.00000  -0.00118  -0.00119   2.06841
    A4        1.78614  -0.00062   0.00000   0.00237   0.00237   1.78851
    A5        2.06513  -0.00042   0.00000  -0.00092  -0.00093   2.06419
    A6        1.65758   0.00243   0.00000   0.00554   0.00554   1.66312
    A7        2.66449   0.00315   0.00000   0.00850   0.00850   2.67299
    A8        2.07140   0.00014   0.00000   0.00095   0.00094   2.07234
    A9        2.16650  -0.00014   0.00000   0.00032   0.00031   2.16681
   A10        2.02780  -0.00002   0.00000   0.00002   0.00001   2.02781
   A11        1.94714  -0.00003   0.00000   0.00061   0.00061   1.94776
   A12        1.94927  -0.00000   0.00000  -0.00039  -0.00039   1.94888
   A13        1.91004   0.00010   0.00000  -0.00004  -0.00004   1.91000
   A14        1.90084   0.00001   0.00000   0.00054   0.00054   1.90137
   A15        1.87943  -0.00003   0.00000   0.00050   0.00050   1.87994
   A16        1.87440  -0.00006   0.00000  -0.00127  -0.00127   1.87312
   A17        1.71260   0.00138   0.00000  -0.00142  -0.00142   1.71118
    D1        2.07688   0.00005   0.00000  -0.02088  -0.02088   2.05601
    D2       -2.12659  -0.00046   0.00000  -0.02233  -0.02234  -2.14893
    D3       -0.02465  -0.00030   0.00000  -0.02107  -0.02106  -0.04571
    D4       -0.22394  -0.00044   0.00000  -0.00496  -0.00496  -0.22890
    D5        2.70986  -0.00058   0.00000   0.00257   0.00257   2.71243
    D6       -2.80146   0.00046   0.00000   0.00318   0.00318  -2.79829
    D7        0.13234   0.00032   0.00000   0.01071   0.01071   0.14305
    D8        1.61612  -0.00015   0.00000  -0.00261  -0.00262   1.61351
    D9       -1.73326  -0.00029   0.00000   0.00492   0.00492  -1.72834
   D10       -0.00383  -0.00044   0.00000   0.01772   0.01772   0.01389
   D11        0.41407   0.00002   0.00000  -0.02603  -0.02603   0.38804
   D12        2.54601   0.00001   0.00000  -0.02518  -0.02518   2.52083
   D13       -1.66402   0.00001   0.00000  -0.02702  -0.02702  -1.69104
   D14       -2.93059  -0.00010   0.00000  -0.01857  -0.01858  -2.94917
   D15       -0.79865  -0.00010   0.00000  -0.01772  -0.01772  -0.81637
   D16        1.27450  -0.00011   0.00000  -0.01956  -0.01956   1.25494
         Item               Value     Threshold  Converged?
 Maximum Force            0.003150     0.000450     NO 
 RMS     Force            0.000745     0.000300     NO 
 Maximum Displacement     0.034249     0.001800     NO 
 RMS     Displacement     0.011884     0.001200     NO 
 Predicted change in Energy=-3.091350D-05
 GradGradGradGradGradGradGradGradGradGradGradGradGradGradGradGradGradGrad

                          Input orientation:                          
 ---------------------------------------------------------------------
 Center     Atomic      Atomic             Coordinates (Angstroms)
 Number     Number       Type             X           Y           Z
 ---------------------------------------------------------------------
      1          6           0       -0.285758    1.411855   -0.058667
      2          1           0       -0.039437    2.224454    0.616546
      3          1           0       -0.620589    1.717743   -1.045479
      4          1           0        0.940815    0.905527   -0.310712
      5          6           0       -0.800017    0.241091    0.475204
      6          1           0       -0.741040    0.087056    1.544997
      7          6           0       -1.649745   -0.720892   -0.281774
      8          1           0       -1.506608   -0.622140   -1.357627
      9          1           0       -1.447416   -1.751227    0.008793
     10          1           0       -2.705426   -0.522545   -0.066387
     11          8           0        1.813562   -0.019187   -0.286463
     12          8           0        1.103643   -0.919941    0.270361
 ---------------------------------------------------------------------
                    Distance matrix (angstroms):
                    1          2          3          4          5
     1  C    0.000000
     2  H    1.084852   0.000000
     3  H    1.086037   1.832163   0.000000
     4  H    1.350694   1.886867   1.907238   0.000000
     5  C    1.385701   2.128894   2.127245   2.022285   0.000000
     6  H    2.129345   2.433668   3.063366   2.634803   1.082433
     7  C    2.541426   3.474930   2.754877   3.058934   1.490122
     8  H    2.704609   3.762055   2.521413   3.069150   2.145626
     9  H    3.370324   4.261198   3.718721   3.586652   2.146158
    10  H    3.097863   3.888432   3.213107   3.923539   2.122980
    11  O    2.550866   3.046794   3.085145   1.271759   2.734717
    12  O    2.734222   3.363584   3.414936   1.922626   2.239170
                    6          7          8          9         10
     6  H    0.000000
     7  C    2.194451   0.000000
     8  H    3.084523   1.089817   0.000000
     9  H    2.497634   1.089475   1.773540   0.000000
    10  H    2.612850   1.095535   1.764762   1.760086   0.000000
    11  O    3.145080   3.533681   3.540406   3.704202   4.552258
    12  O    2.457966   2.815248   3.090703   2.695803   3.844520
                   11         12
    11  O    0.000000
    12  O    1.274910   0.000000
 Stoichiometry    C3H7O2(2)
 Framework group  C1[X(C3H7O2)]
 Deg. of freedom    30
 Full point group                 C1      NOp   1
 Largest Abelian subgroup         C1      NOp   1
 Largest concise Abelian subgroup C1      NOp   1
                         Standard orientation:                         
 ---------------------------------------------------------------------
 Center     Atomic      Atomic             Coordinates (Angstroms)
 Number     Number       Type             X           Y           Z
 ---------------------------------------------------------------------
      1          6           0       -0.318555    1.406600   -0.045918
      2          1           0       -0.077068    2.215061    0.635977
      3          1           0       -0.660042    1.718641   -1.028513
      4          1           0        0.911623    0.913998   -0.307418
      5          6           0       -0.819941    0.226181    0.478858
      6          1           0       -0.755364    0.062657    1.546918
      7          6           0       -1.663751   -0.736448   -0.283896
      8          1           0       -1.525740   -0.626282   -1.359311
      9          1           0       -1.450828   -1.767556   -0.003831
     10          1           0       -2.720359   -0.549879   -0.062610
     11          8           0        1.792917   -0.002813   -0.295228
     12          8           0        1.093490   -0.915267    0.255794
 ---------------------------------------------------------------------
 Rotational constants (GHZ):           7.3698184           3.6462944           2.7591508
 Standard basis: CC-pVTZ+d (5D, 7F)
 There are   280 symmetry adapted cartesian basis functions of A   symmetry.
 There are   248 symmetry adapted basis functions of A   symmetry.
   248 basis functions,   379 primitive gaussians,   280 cartesian basis functions
    21 alpha electrons       20 beta electrons
       nuclear repulsion energy       180.1986596828 Hartrees.
 NAtoms=   12 NActive=   12 NUniq=   12 SFac= 1.00D+00 NAtFMM=   60 NAOKFM=F Big=F
 Integral buffers will be    131072 words long.
 Raffenetti 2 integral format.
 Two-electron integral symmetry is turned on.
 One-electron integrals computed using PRISM.
 NBasis=   248 RedAO= T EigKep=  4.09D-04  NBF=   248
 NBsUse=   248 1.00D-06 EigRej= -1.00D+00 NBFU=   248
 Initial guess from the checkpoint file:  "RisopO2-concerted-OOH-elim-TS3-b3lyp-c.chk"
 B after Tr=    -0.000000   -0.000000   -0.000000
         Rot=    0.999999   -0.001393   -0.000585   -0.000747 Ang=  -0.19 deg.
 Initial guess <Sx>= 0.0000 <Sy>= 0.0000 <Sz>= 0.5000 <S**2>= 0.7584 S= 0.5042
 ExpMin= 1.03D-01 ExpMax= 1.53D+04 ExpMxC= 5.22D+02 IAcc=3 IRadAn=         5 AccDes= 0.00D+00
 Harris functional with IExCor=  402 and IRadAn=       5 diagonalized for initial guess.
 HarFok:  IExCor=  402 AccDes= 0.00D+00 IRadAn=         5 IDoV= 1 UseB2=F ITyADJ=14
 ICtDFT=  3500011 ScaDFX=  1.000000  1.000000  1.000000  1.000000
 FoFCou: FMM=F IPFlag=           0 FMFlag=      100000 FMFlg1=           0
         NFxFlg=           0 DoJE=T BraDBF=F KetDBF=T FulRan=T
         wScrn=  0.000000 ICntrl=       500 IOpCl=  0 I1Cent=   200000004 NGrid=           0
         NMat0=    1 NMatS0=      1 NMatT0=    0 NMatD0=    1 NMtDS0=    0 NMtDT0=    0
 Petite list used in FoFCou.
 Keep R1 and R2 ints in memory in canonical form, NReq=980075672.
 Requested convergence on RMS density matrix=1.00D-08 within 128 cycles.
 Requested convergence on MAX density matrix=1.00D-06.
 Requested convergence on             energy=1.00D-06.
 No special actions if energy rises.
 Integral accuracy reduced to 1.0D-05 until final iterations.
 Initial convergence to 1.0D-05 achieved.  Increase integral accuracy.
 SCF Done:  E(UB3LYP) =  -268.913579925     A.U. after   13 cycles
            NFock= 13  Conv=0.58D-08     -V/T= 2.0064
 <Sx>= 0.0000 <Sy>= 0.0000 <Sz>= 0.5000 <S**2>= 0.7587 S= 0.5043
 <L.S>= 0.000000000000E+00
 Annihilation of the first spin contaminant:
 S**2 before annihilation     0.7587,   after     0.7501
 Calling FoFJK, ICntrl=      2127 FMM=F ISym2X=0 I1Cent= 0 IOpClX= 1 NMat=1 NMatS=1 NMatT=0.
 ***** Axes restored to original set *****
 -------------------------------------------------------------------
 Center     Atomic                   Forces (Hartrees/Bohr)
 Number     Number              X              Y              Z
 -------------------------------------------------------------------
      1        6          -0.000009927   -0.000067952   -0.000032606
      2        1          -0.000016537    0.000011214   -0.000012942
      3        1           0.000010432    0.000015387   -0.000000670
      4        1          -0.000010073    0.000001774    0.000095990
      5        6          -0.000129722    0.000042148   -0.000010240
      6        1           0.000030726   -0.000015152   -0.000006394
      7        6          -0.000127981    0.000071168   -0.000008611
      8        1           0.000001243    0.000005441    0.000004597
      9        1           0.000009317   -0.000002221   -0.000002436
     10        1           0.000000774   -0.000023452    0.000005639
     11        8           0.000035761   -0.000105305   -0.000038047
     12        8           0.000205987    0.000066952    0.000005721
 -------------------------------------------------------------------
 Cartesian Forces:  Max     0.000205987 RMS     0.000057481

 GradGradGradGradGradGradGradGradGradGradGradGradGradGradGradGradGradGrad
 Berny optimization.
 FormGI is forming the generalized inverse of G from B-inverse, IUseBI=4.
 Internal  Forces:  Max     0.000639951 RMS     0.000152548
 Search for a saddle point.
 Step number   3 out of a maximum of   54
 All quantities printed in internal units (Hartrees-Bohrs-Radians)
 Swapping is turned off.
 Update second derivatives using D2CorX and points    1    2    3
 ITU=  0  0  0
     Eigenvalues ---   -0.06053   0.00231   0.00337   0.01585   0.02154
     Eigenvalues ---    0.03789   0.04061   0.05559   0.05726   0.07507
     Eigenvalues ---    0.07872   0.08225   0.11184   0.12404   0.13823
     Eigenvalues ---    0.14379   0.16303   0.18712   0.22743   0.31215
     Eigenvalues ---    0.32728   0.33358   0.34245   0.34456   0.34820
     Eigenvalues ---    0.34842   0.39201   0.52193   0.68488   0.76904
 Eigenvectors required to have negative eigenvalues:
                          R5        R3        A7        D5        D6
   1                    0.63579  -0.58183  -0.26293  -0.18348   0.17252
                          A17       R4        D11       D13       D12
   1                   -0.16622   0.15538   0.09803   0.09723   0.08980
 RFO step:  Lambda0=5.139115577D-07 Lambda=-3.05046358D-06.
 Linear search not attempted -- option 19 set.
 Iteration  1 RMS(Cart)=  0.00354309 RMS(Int)=  0.00000859
 Iteration  2 RMS(Cart)=  0.00000835 RMS(Int)=  0.00000021
 Iteration  3 RMS(Cart)=  0.00000000 RMS(Int)=  0.00000021
 Variable       Old X    -DE/DX   Delta X   Delta X   Delta X     New X
                                 (Linear)    (Quad)   (Total)
    R1        2.05007  -0.00000   0.00000   0.00007   0.00007   2.05015
    R2        2.05231   0.00000   0.00000   0.00002   0.00002   2.05234
    R3        2.55244   0.00021   0.00000  -0.00303  -0.00303   2.54941
    R4        2.61860   0.00001   0.00000   0.00027   0.00027   2.61887
    R5        2.40328   0.00019   0.00000   0.00295   0.00295   2.40623
    R6        2.04550  -0.00000   0.00000  -0.00001  -0.00001   2.04549
    R7        2.81592   0.00003   0.00000  -0.00012  -0.00012   2.81580
    R8        2.05946  -0.00000   0.00000  -0.00003  -0.00003   2.05942
    R9        2.05881   0.00000   0.00000   0.00009   0.00009   2.05890
   R10        2.07026  -0.00000   0.00000  -0.00002  -0.00002   2.07024
   R11        2.40923  -0.00016   0.00000  -0.00021  -0.00021   2.40903
    A1        2.00928   0.00001   0.00000  -0.00048  -0.00048   2.00880
    A2        1.76271  -0.00022   0.00000  -0.00044  -0.00044   1.76227
    A3        2.06841   0.00000   0.00000  -0.00032  -0.00033   2.06808
    A4        1.78851  -0.00011   0.00000   0.00087   0.00087   1.78938
    A5        2.06419  -0.00010   0.00000  -0.00016  -0.00016   2.06404
    A6        1.66312   0.00048   0.00000   0.00130   0.00130   1.66442
    A7        2.67299   0.00064   0.00000   0.00109   0.00109   2.67408
    A8        2.07234   0.00003   0.00000  -0.00007  -0.00007   2.07228
    A9        2.16681  -0.00005   0.00000   0.00012   0.00012   2.16693
   A10        2.02781   0.00001   0.00000   0.00007   0.00007   2.02787
   A11        1.94776  -0.00001   0.00000   0.00011   0.00011   1.94787
   A12        1.94888  -0.00001   0.00000  -0.00012  -0.00012   1.94877
   A13        1.91000   0.00003   0.00000  -0.00002  -0.00002   1.90999
   A14        1.90137   0.00000   0.00000   0.00005   0.00005   1.90142
   A15        1.87994   0.00000   0.00000   0.00026   0.00026   1.88020
   A16        1.87312  -0.00001   0.00000  -0.00029  -0.00029   1.87283
   A17        1.71118   0.00028   0.00000  -0.00046  -0.00046   1.71071
    D1        2.05601  -0.00002   0.00000   0.00173   0.00173   2.05774
    D2       -2.14893  -0.00012   0.00000   0.00136   0.00136  -2.14757
    D3       -0.04571  -0.00010   0.00000   0.00181   0.00181  -0.04390
    D4       -0.22890  -0.00010   0.00000  -0.00298  -0.00298  -0.23188
    D5        2.71243  -0.00013   0.00000  -0.00225  -0.00225   2.71018
    D6       -2.79829   0.00005   0.00000  -0.00107  -0.00107  -2.79935
    D7        0.14305   0.00002   0.00000  -0.00034  -0.00034   0.14271
    D8        1.61351  -0.00008   0.00000  -0.00280  -0.00280   1.61070
    D9       -1.72834  -0.00010   0.00000  -0.00208  -0.00208  -1.73042
   D10        0.01389  -0.00021   0.00000  -0.00208  -0.00208   0.01181
   D11        0.38804   0.00001   0.00000  -0.00649  -0.00649   0.38155
   D12        2.52083   0.00000   0.00000  -0.00643  -0.00643   2.51440
   D13       -1.69104  -0.00000   0.00000  -0.00688  -0.00688  -1.69792
   D14       -2.94917  -0.00002   0.00000  -0.00580  -0.00580  -2.95496
   D15       -0.81637  -0.00003   0.00000  -0.00574  -0.00574  -0.82211
   D16        1.25494  -0.00003   0.00000  -0.00619  -0.00619   1.24875
         Item               Value     Threshold  Converged?
 Maximum Force            0.000640     0.000450     NO 
 RMS     Force            0.000153     0.000300     YES
 Maximum Displacement     0.011609     0.001800     NO 
 RMS     Displacement     0.003544     0.001200     NO 
 Predicted change in Energy=-1.268276D-06
 GradGradGradGradGradGradGradGradGradGradGradGradGradGradGradGradGradGrad

                          Input orientation:                          
 ---------------------------------------------------------------------
 Center     Atomic      Atomic             Coordinates (Angstroms)
 Number     Number       Type             X           Y           Z
 ---------------------------------------------------------------------
      1          6           0       -0.284812    1.410920   -0.059955
      2          1           0       -0.039798    2.224203    0.614972
      3          1           0       -0.618817    1.716370   -1.047197
      4          1           0        0.941117    0.905901   -0.309142
      5          6           0       -0.800722    0.240958    0.474453
      6          1           0       -0.741628    0.087200    1.544271
      7          6           0       -1.651360   -0.720466   -0.282089
      8          1           0       -1.512752   -0.618220   -1.358190
      9          1           0       -1.445666   -1.751252    0.004666
     10          1           0       -2.706571   -0.525258   -0.061631
     11          8           0        1.816186   -0.018749   -0.284065
     12          8           0        1.106809   -0.919811    0.272703
 ---------------------------------------------------------------------
                    Distance matrix (angstroms):
                    1          2          3          4          5
     1  C    0.000000
     2  H    1.084891   0.000000
     3  H    1.086050   1.831929   0.000000
     4  H    1.349089   1.885233   1.906562   0.000000
     5  C    1.385845   2.128853   2.127286   2.022418   0.000000
     6  H    2.129427   2.433709   3.063492   2.633826   1.082426
     7  C    2.541575   3.474612   2.754942   3.060513   1.490059
     8  H    2.703823   3.760629   2.519156   3.073259   2.145636
     9  H    3.369138   4.260656   3.716786   3.585481   2.146055
    10  H    3.100597   3.889602   3.217910   3.926207   2.122906
    11  O    2.551151   3.046929   3.085814   1.273323   2.736970
    12  O    2.734881   3.364027   3.416046   1.923336   2.242044
                    6          7          8          9         10
     6  H    0.000000
     7  C    2.194432   0.000000
     8  H    3.084888   1.089799   0.000000
     9  H    2.499193   1.089522   1.773595   0.000000
    10  H    2.610561   1.095526   1.764911   1.759926   0.000000
    11  O    3.145862   3.537836   3.548934   3.704674   4.556463
    12  O    2.459202   2.820466   3.100462   2.697826   3.848287
                   11         12
    11  O    0.000000
    12  O    1.274801   0.000000
 Stoichiometry    C3H7O2(2)
 Framework group  C1[X(C3H7O2)]
 Deg. of freedom    30
 Full point group                 C1      NOp   1
 Largest Abelian subgroup         C1      NOp   1
 Largest concise Abelian subgroup C1      NOp   1
                         Standard orientation:                         
 ---------------------------------------------------------------------
 Center     Atomic      Atomic             Coordinates (Angstroms)
 Number     Number       Type             X           Y           Z
 ---------------------------------------------------------------------
      1          6           0       -0.318352    1.405754   -0.045578
      2          1           0       -0.077361    2.213988    0.636823
      3          1           0       -0.660059    1.718665   -1.027834
      4          1           0        0.910852    0.914651   -0.306183
      5          6           0       -0.820927    0.225485    0.478778
      6          1           0       -0.755081    0.060857    1.546583
      7          6           0       -1.666571   -0.735539   -0.283845
      8          1           0       -1.534288   -0.620544   -1.359456
      9          1           0       -1.450086   -1.767406   -0.009176
     10          1           0       -2.722395   -0.552349   -0.056129
[...]
    D1        2.05774  -0.00001   0.00000  -0.00065  -0.00065   2.05709
    D2       -2.14757  -0.00002   0.00000  -0.00070  -0.00070  -2.14828
    D3       -0.04390  -0.00002   0.00000  -0.00068  -0.00068  -0.04458
    D4       -0.23188  -0.00001   0.00000  -0.00005  -0.00005  -0.23193
    D5        2.71018  -0.00001   0.00000   0.00021   0.00021   2.71039
    D6       -2.79935   0.00000   0.00000   0.00006   0.00006  -2.79929
    D7        0.14271   0.00000   0.00000   0.00032   0.00032   0.14303
    D8        1.61070  -0.00001   0.00000  -0.00012  -0.00012   1.61058
    D9       -1.73042  -0.00001   0.00000   0.00014   0.00014  -1.73028
   D10        0.01181  -0.00004   0.00000   0.00027   0.00027   0.01208
   D11        0.38155   0.00000   0.00000   0.00073   0.00073   0.38228
   D12        2.51440   0.00000   0.00000   0.00072   0.00072   2.51513
   D13       -1.69792   0.00000   0.00000   0.00073   0.00073  -1.69719
   D14       -2.95496   0.00000   0.00000   0.00099   0.00099  -2.95398
   D15       -0.82211   0.00000   0.00000   0.00098   0.00098  -0.82113
   D16        1.24875   0.00000   0.00000   0.00099   0.00099   1.24974
         Item               Value     Threshold  Converged?
 Maximum Force            0.000067     0.000450     YES
 RMS     Force            0.000018     0.000300     YES
 Maximum Displacement     0.001114     0.001800     YES
 RMS     Displacement     0.000432     0.001200     YES
 Predicted change in Energy=-2.878529D-08
 Optimization completed.
    -- Stationary point found.
                           ----------------------------
                           !   Optimized Parameters   !
                           ! (Angstroms and Degrees)  !
 --------------------------                            --------------------------
 ! Name  Definition              Value          Derivative Info.                !
 --------------------------------------------------------------------------------
 ! R1    R(1,2)                  1.0849         -DE/DX =    0.0                 !
 ! R2    R(1,3)                  1.086          -DE/DX =    0.0                 !
 ! R3    R(1,4)                  1.3491         -DE/DX =    0.0                 !
 ! R4    R(1,5)                  1.3858         -DE/DX =    0.0                 !
 ! R5    R(4,11)                 1.2733         -DE/DX =    0.0                 !
 ! R6    R(5,6)                  1.0824         -DE/DX =    0.0                 !
 ! R7    R(5,7)                  1.4901         -DE/DX =    0.0                 !
 ! R8    R(7,8)                  1.0898         -DE/DX =    0.0                 !
 ! R9    R(7,9)                  1.0895         -DE/DX =    0.0                 !
 ! R10   R(7,10)                 1.0955         -DE/DX =    0.0                 !
 ! R11   R(11,12)                1.2748         -DE/DX =   -0.0001              !
 ! A1    A(2,1,3)              115.0959         -DE/DX =    0.0                 !
 ! A2    A(2,1,4)              100.9707         -DE/DX =    0.0                 !
 ! A3    A(2,1,5)              118.4924         -DE/DX =    0.0                 !
 ! A4    A(3,1,4)              102.5238         -DE/DX =    0.0                 !
 ! A5    A(3,1,5)              118.2606         -DE/DX =    0.0                 !
 ! A6    A(4,1,5)               95.3642         -DE/DX =    0.0                 !
 ! A7    A(1,4,11)             153.2135         -DE/DX =    0.0                 !
 ! A8    A(1,5,6)              118.7327         -DE/DX =    0.0                 !
 ! A9    A(1,5,7)              124.1558         -DE/DX =    0.0                 !
 ! A10   A(6,5,7)              116.1885         -DE/DX =    0.0                 !
 ! A11   A(5,7,8)              111.6047         -DE/DX =    0.0                 !
 ! A12   A(5,7,9)              111.6561         -DE/DX =    0.0                 !
 ! A13   A(5,7,10)             109.4342         -DE/DX =    0.0                 !
 ! A14   A(8,7,9)              108.9435         -DE/DX =    0.0                 !
 ! A15   A(8,7,10)             107.7277         -DE/DX =    0.0                 !
 ! A16   A(9,7,10)             107.3053         -DE/DX =    0.0                 !
 ! A17   A(4,11,12)             98.0166         -DE/DX =    0.0                 !
 ! D1    D(2,1,4,11)           117.8999         -DE/DX =    0.0                 !
 ! D2    D(3,1,4,11)          -123.0469         -DE/DX =    0.0                 !
 ! D3    D(5,1,4,11)            -2.5153         -DE/DX =    0.0                 !
 ! D4    D(2,1,5,6)            -13.2857         -DE/DX =    0.0                 !
 ! D5    D(2,1,5,7)            155.2819         -DE/DX =    0.0                 !
 ! D6    D(3,1,5,6)           -160.3911         -DE/DX =    0.0                 !
 ! D7    D(3,1,5,7)              8.1765         -DE/DX =    0.0                 !
 ! D8    D(4,1,5,6)             92.2864         -DE/DX =    0.0                 !
 ! D9    D(4,1,5,7)            -99.146          -DE/DX =    0.0                 !
 ! D10   D(1,4,11,12)            0.6765         -DE/DX =    0.0                 !
 ! D11   D(1,5,7,8)             21.8611         -DE/DX =    0.0                 !
 ! D12   D(1,5,7,9)            144.0647         -DE/DX =    0.0                 !
 ! D13   D(1,5,7,10)           -97.2836         -DE/DX =    0.0                 !
 ! D14   D(6,5,7,8)           -169.307          -DE/DX =    0.0                 !
 ! D15   D(6,5,7,9)            -47.1035         -DE/DX =    0.0                 !
 ! D16   D(6,5,7,10)            71.5483         -DE/DX =    0.0                 !
 --------------------------------------------------------------------------------
 GradGradGradGradGradGradGradGradGradGradGradGradGradGradGradGradGradGrad


 ----------------------------------------------------------------------

 Electric dipole moment (input orientation):
 (Debye = 10**-18 statcoulomb cm , SI units = C m)
                  (au)            (Debye)         (10**-30 SI)
   Tot        0.992618D+00      0.252298D+01      0.841577D+01
   x         -0.912982D+00     -0.232057D+01     -0.774058D+01
   y          0.385410D+00      0.979614D+00      0.326764D+01
   z          0.566973D-01      0.144110D+00      0.480700D+00

 Dipole polarizability, Alpha (input orientation).
 (esu units = cm**3 , SI units = C**2 m**2 J**-1)
 Alpha(0;0):
               (au)            (10**-24 esu)      (10**-40 SI)
   iso        0.522165D+02      0.773769D+01      0.860934D+01
   aniso      0.209590D+02      0.310580D+01      0.345567D+01
   xx         0.631850D+02      0.936305D+01      0.104178D+02
   yx         0.698545D+00      0.103514D+00      0.115174D+00
   yy         0.532018D+02      0.788370D+01      0.877180D+01
   zx        -0.277817D+01     -0.411682D+00     -0.458058D+00
   zy        -0.247699D+01     -0.367052D+00     -0.408401D+00
   zz         0.402628D+02      0.596633D+01      0.663844D+01

 ----------------------------------------------------------------------

 Dipole orientation:
     6          0.68902834          2.14817735          1.52380736
     1          2.47381171          3.12708046          1.76753015
     1         -0.95797695          3.15421913          2.22190435
     1          0.39621908          2.29540658         -1.00444720
     6          0.67625897         -0.46890075          1.61975929
     1          2.45987273         -1.46526065          1.51970390
     6         -1.57353737         -2.01457588          2.31117463
     1         -3.32633595         -0.97085158          2.02912507
     1         -1.65554630         -3.76376975          1.22828281
     1         -1.46401119         -2.53370149          4.31228081
     8          0.17979053          1.33751069         -3.20115922
     8          0.30452914         -0.98380381         -2.56922407

 Electric dipole moment (dipole orientation):
 (Debye = 10**-18 statcoulomb cm , SI units = C m)
                  (au)            (Debye)         (10**-30 SI)
   Tot        0.992618D+00      0.252298D+01      0.841577D+01
   x          0.000000D+00      0.000000D+00      0.000000D+00
   y          0.000000D+00      0.000000D+00      0.000000D+00
   z          0.992618D+00      0.252298D+01      0.841577D+01

 Dipole polarizability, Alpha (dipole orientation).
 (esu units = cm**3 , SI units = C**2 m**2 J**-1)
 Alpha(0;0):
               (au)            (10**-24 esu)      (10**-40 SI)
   iso        0.522165D+02      0.773769D+01      0.860934D+01
   aniso      0.209590D+02      0.310580D+01      0.345567D+01
   xx         0.401881D+02      0.595527D+01      0.662613D+01
   yx         0.321758D+01      0.476796D+00      0.530507D+00
   yy         0.551732D+02      0.817583D+01      0.909684D+01
   zx        -0.129044D+01     -0.191224D+00     -0.212765D+00
   zy        -0.406793D+01     -0.602806D+00     -0.670712D+00
   zz         0.612883D+02      0.908198D+01      0.101051D+02

 ----------------------------------------------------------------------
 1\1\GINC-CNODE0595\Freq\UB3LYP\CC-pVTZ+d\C3H7O2(2)\KOTUKILE\15-Mar-202
 2\0\\#N Geom=AllCheck Guess=TCheck SCRF=Check GenChk UB3LYP/CC-pVTZ+d 
 Freq\\RisopO2-concerted-OOH-elim-TS3-b3lyp-c\\0,2\C,-0.2848122955,1.41
 09198543,-0.0599554797\H,-0.0397980194,2.2242029371,0.6149723445\H,-0.
 6188174997,1.7163695159,-1.0471966882\H,0.9411170643,0.9059006691,-0.3
 091420374\C,-0.8007223342,0.2409577191,0.4744525867\H,-0.7416276544,0.
 0872002581,1.5442712608\C,-1.6513602147,-0.7204664856,-0.2820888322\H,
 -1.5127516727,-0.6182203806,-1.3581904227\H,-1.445666483,-1.7512523678
 ,0.0046655458\H,-2.7065710997,-0.5252576828,-0.0616313829\O,1.81618565
 93,-0.0187490413,-0.2840645649\O,1.1068085498,-0.9198109955,0.27270267
 01\\Version=ES64L-G16RevB.01\State=2-A\HF=-268.9135812\S2=0.758805\S2-
 1=0.\S2A=0.750051\RMSD=9.991e-10\RMSF=1.739e-05\ZeroPoint=0.0927825\Th
 ermal=0.0988308\Dipole=-0.9129815,0.38541,0.0566973\DipoleDeriv=-0.348
 8494,-0.2800807,0.1576383,-0.015332,-0.2328164,0.0314031,0.1211019,0.1
 372482,-0.0113122,0.1303162,0.0279369,-0.0437734,-0.030475,-0.0487997,
 -0.0389808,-0.0575987,-0.0658009,0.0030967,0.1164275,0.0578099,-0.0954
 748,0.0009497,0.0117707,0.0117024,-0.0608547,0.0192237,-0.0474195,0.58
 82099,-0.136653,-0.0705966,-0.1396584,0.102811,0.0491265,-0.1070983,0.
 0576037,0.1462067,0.3673479,0.1477198,0.0448464,0.0418954,0.5946977,-0
 .0486439,0.1742112,-0.0977585,0.1946601,0.0254317,-0.0078221,-0.021706
 8,-0.0195507,0.0243193,0.0081701,-0.0127231,0.0018115,-0.0772017,-0.10
 3238,-0.0942992,-0.0494185,-0.0623828,0.0010499,-0.0283335,0.0010079,-
 0.0318307,0.0425679,0.0625262,-0.0115022,0.0451553,-0.0387263,0.041772
 9,0.0422445,-0.0173477,-0.0014561,-0.1022978,0.0724993,0.0578634,-0.01
 84572,-0.0312617,-0.0896495,0.0278489,-0.0568178,0.0316117,0.0531302,-
 0.1333789,0.0098433,0.030624,-0.0143901,0.0561211,-0.0216627,-0.020416
 2,-0.0329743,0.0692717,-0.9932646,0.1360578,0.1434093,-0.3191857,0.012
 387,0.0148165,0.4196439,-0.0834756,-0.1767387,0.2159723,0.0931261,-0.1
 22246,0.6281177,-0.4736641,-0.0476911,-0.3831083,0.0657973,-0.0939633\
 Polar=63.1849757,0.6985447,53.2018433,-2.7781678,-2.4769926,40.2627899
 \Quadrupole=-1.5107135,0.2655496,1.245164,1.758876,0.1536617,0.0877267
 \PG=C01 [X(C3H7O2)]\NImag=1\\0.20411420,0.11689550,0.64376745,0.114048
 23,-0.04478970,0.59591142,-0.03494594,-0.04166802,-0.04304492,0.047154
 28,-0.05273155,-0.20325296,-0.12414188,0.05445816,0.21714857,-0.048104
 80,-0.12885513,-0.16300146,0.04475893,0.13779455,0.16674597,-0.0543961
 8,0.02174290,-0.09366901,-0.00337127,0.00258958,-0.00281728,0.06297180
 ,0.01499092,-0.07436026,0.06737220,-0.00715005,0.00880737,-0.01960661,
 -0.01993034,0.07365093,-0.08375339,0.06603869,-0.27082444,-0.00459813,
 0.00627803,-0.01257094,0.08903776,-0.07735579,0.29215371,0.03220024,0.
 01615862,-0.02478792,-0.00468059,0.00155384,-0.00016204,-0.01068252,0.
 00431352,0.00274215,0.01678366,-0.05749088,-0.02876656,0.02042610,0.01
 652404,-0.00680961,-0.00434769,0.00817583,-0.00347289,-0.00229563,0.04
 783071,0.04682452,0.00019365,-0.00420512,-0.02512098,0.01005458,-0.004
 57933,-0.00348903,-0.01377899,0.00454541,0.00146109,-0.00608150,-0.015
 16599,0.05699904,-0.09679543,-0.11583134,0.03203248,-0.00573106,-0.004
 93096,0.00504559,0.00428379,0.00969531,-0.00369977,-0.01648425,-0.0072
 2804,0.00735441,0.29061394,-0.05827147,-0.29823139,0.08198730,-0.01863
 188,-0.01476924,0.01271637,-0.01089721,-0.00263069,0.00636939,-0.05800
 303,0.04240326,0.00298922,0.21356939,0.51517200,0.01761580,0.10067878,
 -0.14793476,-0.00819718,-0.01835102,0.01068929,0.01789162,0.02372287,-
 0.01295164,0.02186810,-0.01247601,-0.00784247,0.02448587,-0.09069882,0
 .63849430,0.01015419,-0.00312895,0.01174519,-0.00356172,0.00099940,0.0
 0019128,0.00326306,-0.00352109,-0.00089204,-0.00191781,0.00299760,-0.0
 0015311,-0.04347452,-0.00822404,-0.01812528,0.03844024,0.00003001,-0.0
 0204501,0.02722560,0.00310568,0.00064725,-0.00056235,-0.00551643,-0.00
 180658,0.00311597,0.00041940,-0.00154581,0.00036796,-0.00732858,-0.056
 20634,0.03949058,0.01048650,0.05796609,-0.00348878,0.00122850,-0.00847
 892,0.00106153,-0.00009283,0.00125356,0.00052410,0.00152192,0.00097176
 ,-0.00035392,0.00012492,0.00017230,-0.01752185,0.04222339,-0.32914254,
 0.02155794,-0.04498205,0.34573625,-0.00323235,-0.01301513,-0.00728797,
 0.00590419,-0.00159202,0.00070195,-0.00268614,0.00150646,0.00105709,-0
 .00007156,0.00142798,-0.00160747,-0.10773228,-0.05484434,-0.04115972,0
 .00375776,-0.00112700,-0.00006448,0.49317736,-0.02257055,-0.01690121,-
 0.01160662,-0.00574982,-0.00040990,0.00146143,0.00316867,0.00091763,-0
 .00289217,0.00191629,-0.00409659,0.00015849,-0.05628098,-0.13860892,-0
 .04405775,0.00175186,0.00374443,0.00249529,-0.01813039,0.53677487,0.00
 486985,0.00606601,0.01101261,0.00086170,0.00294575,-0.00085626,0.00102
 527,0.00105241,0.00142102,0.00154783,-0.00075226,0.00024771,-0.0469325
 1,-0.04665470,-0.13104710,-0.02017147,-0.02016740,-0.01193666,-0.01776
 762,-0.02853935,0.55842867,0.00022509,0.00147871,0.00024425,-0.0000441
 1,0.00026653,0.00006225,0.00038265,-0.00005062,0.00037296,0.00018664,-
 0.00027988,-0.00014432,0.00053535,0.00163759,-0.02276270,-0.00133793,-
 0.00323199,-0.00206011,-0.04967836,-0.00369100,0.03752644,0.05278225,-
 0.00025356,0.00104365,-0.00059742,0.00034160,0.00015906,0.00016404,0.0
 0033957,-0.00024937,0.00070529,0.00017335,-0.00009104,-0.00001162,0.00
 430168,0.00327256,-0.02301688,-0.00317254,-0.00186551,-0.00153740,-0.0
 0447193,-0.05290962,0.02784810,0.00728826,0.05216676,0.00028849,0.0015
 0549,0.00206530,0.00006096,0.00005213,0.00037725,0.00009278,-0.0009696
 8,0.00034230,-0.00004492,-0.00007865,-0.00015856,0.00117531,0.00169483
 ,-0.01890601,-0.00142991,-0.00234133,0.00014965,0.03487018,0.02607568,
 -0.30179648,-0.03718034,-0.02706386,0.32980945,-0.00057206,-0.00174570
 ,-0.00271552,-0.00129565,-0.00053140,0.00013770,0.00027250,0.00014024,
 -0.00018611,-0.00004184,0.00001622,-0.00010624,0.00121422,-0.02212249,
 0.00697780,0.00024827,0.00089401,0.00018862,-0.05207336,0.05148503,-0.
 01464793,-0.00005001,-0.00534470,0.00119564,0.05867627,-0.00094532,-0.
 00089439,-0.00317231,-0.00121153,-0.00034354,0.00029287,0.00059111,0.0
 0013641,-0.00035488,0.00107646,-0.00066728,-0.00006978,0.00204405,-0.0
 2114032,0.00646262,-0.00041957,0.00097060,-0.00016594,0.04891668,-0.27
 995745,0.06719002,0.00020045,-0.00109335,0.00059560,-0.05208443,0.3065
 7089,-0.00314319,-0.00047465,-0.00070491,-0.00032213,-0.00019319,0.000
 28861,0.00027179,-0.00024411,0.00013025,0.00058063,-0.00088212,-0.0000
 1127,0.00553907,-0.01631148,0.00586959,0.00050997,0.00043288,0.0006323
 8,-0.01502079,0.06705672,-0.07000809,-0.00705135,0.02963936,-0.0067311
 9,0.01773562,-0.07220995,0.06931443,0.00163411,-0.00027394,-0.00225736
 ,0.00045625,-0.00039569,0.00007694,-0.00058522,0.00012436,0.00035655,-
 0.00141999,0.00143038,-0.00006372,-0.02065973,-0.00038335,0.00255547,0
 .00062320,-0.00032909,-0.00057550,-0.27491161,0.04660846,0.05151979,-0
 .00345464,0.00078967,0.00117960,-0.00627268,0.00199571,0.00134676,0.30
 430368,0.00001371,-0.00143283,-0.00175635,0.00114039,-0.00077729,0.000
 06264,-0.00049587,-0.00001642,0.00040194,0.00067374,0.00055850,-0.0003
 6551,-0.02195311,0.00157809,0.00558720,0.00072178,0.00052338,-0.000063
 35,0.04250344,-0.05054206,-0.01006072,-0.00371591,-0.00026661,0.000661
 71,0.02973653,-0.00527890,-0.00692388,-0.04767477,0.05516410,-0.000241
 42,-0.00025312,-0.00024167,0.00052035,-0.00029104,0.00020683,0.0000993
 7,-0.00011680,-0.00013038,-0.00055918,0.00060043,-0.00038086,-0.014986
 33,0.00388803,0.00384066,0.00126626,0.00015992,-0.00010273,0.04734220,
 -0.01078715,-0.05581704,0.03085137,-0.00625975,-0.00567190,-0.00869730
 ,0.00145601,0.00126491,-0.05384411,0.01243029,0.05663849,-0.06312077,-
 0.00061273,0.02345930,0.00337445,-0.00025213,-0.00003172,0.00333007,-0
 .00085323,-0.00189710,-0.00878074,-0.02415415,0.00310785,-0.01705511,0
 .02411012,0.00657626,-0.00242379,0.00106482,-0.00004071,-0.00465679,-0
 .00046631,0.00176875,-0.00032376,-0.00069064,-0.00115048,-0.00025409,-
 0.00076100,-0.00113346,-0.00053914,-0.00148511,-0.00202622,0.27697272,
 0.09142335,-0.00749289,-0.02564642,-0.00572250,0.00245718,-0.00032555,
 -0.00283592,0.00270502,0.00196912,-0.03637832,0.03014841,-0.00706841,0
 .00760281,-0.04545251,0.01757379,-0.00404705,0.00193639,0.00012812,-0.
 00290713,0.00294585,0.00180876,0.00004102,-0.00023354,-0.00061461,0.00
 018240,-0.00001518,0.00019053,-0.00155070,-0.00110085,-0.00142519,0.15
 948896,0.26861002,-0.00818518,0.00443587,0.00689560,-0.00063752,-0.000
 29065,0.00111615,0.00166719,-0.00094836,-0.00007713,0.00710447,-0.0108
 4847,-0.02396539,0.00375688,0.01173877,0.00202138,0.00072884,-0.000091
 84,-0.00037324,0.00525727,-0.00167281,-0.00198041,0.00009464,0.0002071
 7,0.00039272,-0.00002585,0.00008259,0.00032180,0.00125164,0.00129783,0
 .00151202,-0.14226905,-0.14026196,0.12079953,0.00473490,0.02000007,-0.
 00776675,-0.00325881,0.00056624,0.00014119,-0.00278255,0.00073453,0.00
 146002,-0.00509124,0.01075021,0.00122486,0.01128507,-0.00793929,-0.007
 72605,-0.00377094,0.00153266,0.00077316,-0.00779684,0.00195874,0.00039
 991,0.00077682,0.00069923,0.00094269,0.00014843,0.00059739,0.00068708,
 0.00082576,0.00053519,0.00027502,-0.18652304,-0.20529692,0.13125667,0.
 19145243,-0.03109014,-0.01143360,0.01469951,0.00456393,-0.00285690,0.0
 0120542,0.00306810,-0.00368115,-0.00197995,0.02026542,-0.07448491,0.02
 340469,-0.02366022,0.01461349,-0.00491536,0.00555609,-0.00231889,-0.00
 088056,0.00173337,-0.00095704,-0.00073662,0.00005684,0.00006700,0.0004
 8267,-0.00062571,0.00171249,-0.00008009,-0.00034103,0.00159089,0.00059
 837,-0.15538859,-0.25450789,0.13635186,0.17586194,0.33225650,0.0099007
 4,-0.00137561,0.00042220,-0.00051815,0.00086948,-0.00075997,-0.0003446
 0,0.00102654,0.00007440,-0.00185371,0.02569536,0.00208842,0.00375083,-
 0.00994229,-0.01309073,0.00477234,-0.00264793,0.00111818,-0.00632064,0
 .00230823,0.00233202,0.00004691,-0.00007703,0.00012746,0.00014356,-0.0
 0010685,-0.00036650,-0.00154606,-0.00127179,-0.00111833,0.11363658,0.1
 5367180,-0.10666303,-0.12166780,-0.16814992,0.11583588\\0.00001490,0.0
 0000895,-0.00000145,-0.00000625,-0.00000223,0.00000240,0.00000549,-0.0
 0000209,-0.00000261,-0.00000521,-0.00000891,-0.00000038,0.00001325,-0.
 00001323,0.00000289,-0.00000755,0.00000876,0.00000447,0.00000846,-0.00
 000878,0.00000436,-0.00000211,0.00000313,-0.00000075,0.00000239,0.0000
 0093,-0.00000225,-0.00000084,0.00000028,0.00000114,0.00003113,0.000056
 22,-0.00002365,-0.00005366,-0.00004303,0.00001583\\\@


 "I COULD HAVE DONE IT IN A MUCH MORE COMPLICATED WAY"
 SAID THE RED QUEEN, IMMENSELY PROUD.

                                      -- LEWIS CARROLL
 Job cpu time:       0 days  0 hours  0 minutes 31.1 seconds.
 Elapsed time:       0 days  0 hours  2 minutes 26.3 seconds.
 File lengths (MBytes):  RWF=    113 Int=      0 D2E=      0 Chk=      8 Scr=      1
 Normal termination of Gaussian 16 at Tue Mar 15 22:30:56 2022.
