 Entering Gaussian System, Link 0=g16
 Initial command:
 /apps/chpc/chem/gaussian16/B01/g16/l1.exe "/mnt/lustre/users/kotukile/Kgalaletso/4095709.sched01/Gau-173856.inp" -scrdir="/mnt/lustre/users/kotukile/Kgalaletso/4095709.sched01/"
 Entering Link 1 = /apps/chpc/chem/gaussian16/B01/g16/l1.exe PID=    173859.
  
 Copyright (c) 1988-2017, Gaussian, Inc.  All Rights Reserved.
  
 This is part of the Gaussian(R) 16 program.  It is based on
 the Gaussian(R) 09 system (copyright 2009, Gaussian, Inc.),
 the Gaussian(R) 03 system (copyright 2003, Gaussian, Inc.),
 the Gaussian(R) 98 system (copyright 1998, Gaussian, Inc.),
 the Gaussian(R) 94 system (copyright 1995, Gaussian, Inc.),
 the Gaussian 92(TM) system (copyright 1992, Gaussian, Inc.),
 the Gaussian 90(TM) system (copyright 1990, Gaussian, Inc.),
 the Gaussian 88(TM) system (copyright 1988, Gaussian, Inc.),
 the Gaussian 86(TM) system (copyright 1986, Carnegie Mellon
 University), and the Gaussian 82(TM) system (copyright 1983,
 Carnegie Mellon University). Gaussian is a federally registered
 trademark of Gaussian, Inc.
  
 This software contains proprietary and confidential information,
 including trade secrets, belonging to Gaussian, Inc.
  
 This software is provided under written license and may be
 used, copied, transmitted, or stored only in accord with that
 written license.
  
 The following legend is applicable only to US Government
 contracts under FAR:
  
                    RESTRICTED RIGHTS LEGEND
  
 Use, reproduction and disclosure by the US Government is
 subject to restrictions as set forth in subparagraphs (a)
 and (c) of the Commercial Computer Software - Restricted
 Rights clause in FAR 52.227-19.
  
 Gaussian, Inc.
 340 Quinnipiac St., Bldg. 40, Wallingford CT 06492
  
  
 ---------------------------------------------------------------
 Warning -- This program may not be used in any manner that
 competes with the business of Gaussian, Inc. or will provide
 assistance to any competitor of Gaussian, Inc.  The licensee
 of this program is prohibited from giving any competitor of
 Gaussian, Inc. access to this program.  By using this program,
 the user acknowledges that Gaussian, Inc. is engaged in the
 business of creating and licensing software in the field of
 computational chemistry and represents and warrants to the
 licensee that it is not a competitor of Gaussian, Inc. and that
 it will not use this program in any manner prohibited above.
 ---------------------------------------------------------------
  

 Cite this work as:
 Gaussian 16, Revision B.01,
 M. J. Frisch, G. W. Trucks, H. B. Schlegel, G. E. Scuseria, 
 M. A. Robb, J. R. Cheeseman, G. Scalmani, V. Barone, 
 G. A. Petersson, H. Nakatsuji, X. Li, M. Caricato, A. V. Marenich, 
 J. Bloino, B. G. Janesko, R. Gomperts, B. Mennucci, H. P. Hratchian, 
 J. V. Ortiz, A. F. Izmaylov, J. L. Sonnenberg, D. Williams-Young, 
 F. Ding, F. Lipparini, F. Egidi, J. Goings, B. Peng, A. Petrone, 
 T. Henderson, D. Ranasinghe, V. G. Zakrzewski, J. Gao, N. Rega, 
 G. Zheng, W. Liang, M. Hada, M. Ehara, K. Toyota, R. Fukuda, 
 J. Hasegawa, M. Ishida, T. Nakajima, Y. Honda, O. Kitao, H. Nakai, 
 T. Vreven, K. Throssell, J. A. Montgomery, Jr., J. E. Peralta, 
 F. Ogliaro, M. J. Bearpark, J. J. Heyd, E. N. Brothers, K. N. Kudin, 
 V. N. Staroverov, T. A. Keith, R. Kobayashi, J. Normand, 
 K. Raghavachari, A. P. Rendell, J. C. Burant, S. S. Iyengar, 
 J. Tomasi, M. Cossi, J. M. Millam, M. Klene, C. Adamo, R. Cammi, 
 J. W. Ochterski, R. L. Martin, K. Morokuma, O. Farkas, 
 J. B. Foresman, and D. J. Fox, Gaussian, Inc., Wallingford CT, 2016.
 
 ******************************************
 Gaussian 16:  ES64L-G16RevB.01 20-Dec-2017
                28-Mar-2022 
 ******************************************
 %nprocshared=24
 Will use up to   24 processors via shared memory.
 %lindaworkers=cnode0429.cm.cluster,cnode0430.cm.cluster
 %mem=20GB
 %chk=RisopO2-H-shift-TS3-b3lyp-c.chk
 SetLPE:    new flags="-opt 'Tsnet.Node.lindarsharg: ssh'  -nodelist 'cnode0429.cm.cluster cnode0430.cm.cluster' -env GAUSS_MDEF=2684354560 -env GAUSS_EXEDIR="/apps/chpc/chem/gaussian16/B01/g16/bsd:/apps/chpc/chem/gaussian16/B01/g16""
 Will use up to    2 processors via Linda.
 ---------------------------------------------------
 # opt=(calcfc,ts,noeigentest) freq ub3lyp cc-pvtz+d
 ---------------------------------------------------
 1/5=1,10=4,11=1,18=20,26=3,38=1/1,3;
 2/9=110,12=2,17=6,18=5,40=1/2;
 3/5=16,6=1,7=9,11=2,25=1,30=1,71=2,74=-5,116=2,140=1/1,2,3;
 4//1;
 5/5=2,38=5/2;
 8/6=4,10=90,11=11/1;
 11/6=1,8=1,9=11,15=111,16=1/1,2,10;
 10/6=1,13=1/2;
 6/7=2,8=2,9=2,10=2,28=1/1;
 7/10=1,18=20,25=1/1,2,3,16;
 1/5=1,10=4,11=1,18=20,26=3/3(2);
 2/9=110/2;
 99//99;
 2/9=110/2;
 3/5=16,6=1,7=9,11=2,25=1,30=1,71=1,74=-5,116=2/1,2,3;
 4/5=5,16=3,69=1/1;
 5/5=2,38=5/2;
 7//1,2,3,16;
 1/5=1,11=1,18=20,26=3/3(-5);
 2/9=110/2;
 6/7=2,8=2,9=2,10=2,19=2,28=1/1;
 99/9=1/99;
 ---------------------------
 RisopO2-H-shift-TS3-b3lyp-c
 ---------------------------
 Symbolic Z-matrix:
 Charge =  0 Multiplicity = 2
 C                     0.12175   1.36994  -0.1157 
 H                     0.05978   2.22909   0.54584 
 H                    -0.06833   1.58752  -1.16618 
 H                     1.35512   0.83468  -0.08939 
 C                    -0.41257   0.02886   0.37938 
 H                    -0.32492  -0.01586   1.47055 
 C                    -1.80657  -0.33325  -0.08406 
 H                    -2.52881   0.37719   0.32234 
 H                    -1.85855  -0.30658  -1.17372 
 H                    -2.07491  -1.33386   0.25851 
 O                     1.74822  -0.31726   0.04004 
 O                     0.5049   -0.90343  -0.19575 
 
 Add virtual bond connecting atoms C1         and H4         Dist= 2.54D+00.
 Add virtual bond connecting atoms O11        and H4         Dist= 2.31D+00.

 GradGradGradGradGradGradGradGradGradGradGradGradGradGradGradGradGradGrad
 Berny optimization.
 Initialization pass.
                           ----------------------------
                           !    Initial Parameters    !
                           ! (Angstroms and Degrees)  !
 --------------------------                            --------------------------
 ! Name  Definition              Value          Derivative Info.                !
 --------------------------------------------------------------------------------
 ! R1    R(1,2)                  1.0861         calculate D2E/DX2 analytically  !
 ! R2    R(1,3)                  1.0895         calculate D2E/DX2 analytically  !
 ! R3    R(1,4)                  1.3448         calculate D2E/DX2 analytically  !
 ! R4    R(1,5)                  1.5261         calculate D2E/DX2 analytically  !
 ! R5    R(4,11)                 1.224          calculate D2E/DX2 analytically  !
 ! R6    R(5,6)                  1.0956         calculate D2E/DX2 analytically  !
 ! R7    R(5,7)                  1.513          calculate D2E/DX2 analytically  !
 ! R8    R(5,12)                 1.4289         calculate D2E/DX2 analytically  !
 ! R9    R(7,8)                  1.0916         calculate D2E/DX2 analytically  !
 ! R10   R(7,9)                  1.0912         calculate D2E/DX2 analytically  !
 ! R11   R(7,10)                 1.0911         calculate D2E/DX2 analytically  !
 ! R12   R(11,12)                1.3946         calculate D2E/DX2 analytically  !
 ! A1    A(2,1,3)              114.7943         calculate D2E/DX2 analytically  !
 ! A2    A(2,1,4)              110.8098         calculate D2E/DX2 analytically  !
 ! A3    A(2,1,5)              118.5262         calculate D2E/DX2 analytically  !
 ! A4    A(3,1,4)              104.973          calculate D2E/DX2 analytically  !
 ! A5    A(3,1,5)              115.2897         calculate D2E/DX2 analytically  !
 ! A6    A(4,1,5)               87.9936         calculate D2E/DX2 analytically  !
 ! A7    A(1,4,11)             132.1603         calculate D2E/DX2 analytically  !
 ! A8    A(1,5,6)              109.3262         calculate D2E/DX2 analytically  !
 ! A9    A(1,5,7)              115.6912         calculate D2E/DX2 analytically  !
 ! A10   A(1,5,12)             102.5899         calculate D2E/DX2 analytically  !
 ! A11   A(6,5,7)              111.6541         calculate D2E/DX2 analytically  !
 ! A12   A(6,5,12)             108.8378         calculate D2E/DX2 analytically  !
 ! A13   A(7,5,12)             108.1888         calculate D2E/DX2 analytically  !
 ! A14   A(5,7,8)              109.8651         calculate D2E/DX2 analytically  !
 ! A15   A(5,7,9)              110.1149         calculate D2E/DX2 analytically  !
 ! A16   A(5,7,10)             110.4811         calculate D2E/DX2 analytically  !
 ! A17   A(8,7,9)              108.9257         calculate D2E/DX2 analytically  !
 ! A18   A(8,7,10)             108.4965         calculate D2E/DX2 analytically  !
 ! A19   A(9,7,10)             108.9176         calculate D2E/DX2 analytically  !
 ! A20   A(4,11,12)             95.2423         calculate D2E/DX2 analytically  !
 ! A21   A(5,12,11)            103.3053         calculate D2E/DX2 analytically  !
 ! D1    D(2,1,4,11)           131.5862         calculate D2E/DX2 analytically  !
 ! D2    D(3,1,4,11)          -103.9394         calculate D2E/DX2 analytically  !
 ! D3    D(5,1,4,11)            11.7258         calculate D2E/DX2 analytically  !
 ! D4    D(2,1,5,6)            -28.6136         calculate D2E/DX2 analytically  !
 ! D5    D(2,1,5,7)             98.4465         calculate D2E/DX2 analytically  !
 ! D6    D(2,1,5,12)          -144.0133         calculate D2E/DX2 analytically  !
 ! D7    D(3,1,5,6)           -170.308          calculate D2E/DX2 analytically  !
 ! D8    D(3,1,5,7)            -43.2479         calculate D2E/DX2 analytically  !
 ! D9    D(3,1,5,12)            74.2923         calculate D2E/DX2 analytically  !
 ! D10   D(4,1,5,6)             84.065          calculate D2E/DX2 analytically  !
 ! D11   D(4,1,5,7)           -148.8749         calculate D2E/DX2 analytically  !
 ! D12   D(4,1,5,12)           -31.3346         calculate D2E/DX2 analytically  !
 ! D13   D(1,4,11,12)           14.3972         calculate D2E/DX2 analytically  !
 ! D14   D(1,5,7,8)            -64.3537         calculate D2E/DX2 analytically  !
 ! D15   D(1,5,7,9)             55.6192         calculate D2E/DX2 analytically  !
 ! D16   D(1,5,7,10)           175.9744         calculate D2E/DX2 analytically  !
 ! D17   D(6,5,7,8)             61.5295         calculate D2E/DX2 analytically  !
 ! D18   D(6,5,7,9)           -178.4976         calculate D2E/DX2 analytically  !
 ! D19   D(6,5,7,10)           -58.1423         calculate D2E/DX2 analytically  !
 ! D20   D(12,5,7,8)          -178.7265         calculate D2E/DX2 analytically  !
 ! D21   D(12,5,7,9)           -58.7535         calculate D2E/DX2 analytically  !
 ! D22   D(12,5,7,10)           61.6017         calculate D2E/DX2 analytically  !
 ! D23   D(1,5,12,11)           44.5553         calculate D2E/DX2 analytically  !
 ! D24   D(6,5,12,11)          -71.1974         calculate D2E/DX2 analytically  !
 ! D25   D(7,5,12,11)          167.3034         calculate D2E/DX2 analytically  !
 ! D26   D(4,11,12,5)          -34.4936         calculate D2E/DX2 analytically  !
 --------------------------------------------------------------------------------
 Trust Radius=3.00D-01 FncErr=1.00D-07 GrdErr=1.00D-06 EigMax=2.50D+02 EigMin=1.00D-04
 Number of steps in this run=     69 maximum allowed number of steps=    100.
 Search for a saddle point of order  1.
 GradGradGradGradGradGradGradGradGradGradGradGradGradGradGradGradGradGrad

                          Input orientation:                          
 ---------------------------------------------------------------------
 Center     Atomic      Atomic             Coordinates (Angstroms)
 Number     Number       Type             X           Y           Z
 ---------------------------------------------------------------------
      1          6           0        0.121745    1.369940   -0.115698
      2          1           0        0.059784    2.229090    0.545837
      3          1           0       -0.068328    1.587515   -1.166184
      4          1           0        1.355124    0.834676   -0.089385
      5          6           0       -0.412565    0.028858    0.379381
      6          1           0       -0.324923   -0.015856    1.470552
      7          6           0       -1.806572   -0.333254   -0.084055
      8          1           0       -2.528807    0.377190    0.322341
      9          1           0       -1.858554   -0.306577   -1.173715
     10          1           0       -2.074911   -1.333860    0.258511
     11          8           0        1.748218   -0.317255    0.040037
     12          8           0        0.504903   -0.903425   -0.195753
 ---------------------------------------------------------------------
                    Distance matrix (angstroms):
                    1          2          3          4          5
     1  C    0.000000
     2  H    1.086097   0.000000
     3  H    1.089490   1.832770   0.000000
     4  H    1.344776   2.006440   1.937131   0.000000
     5  C    1.526136   2.256511   2.221865   1.998452   0.000000
     6  H    2.153168   2.458227   3.096614   2.445274   1.095598
     7  C    2.572990   3.231974   2.807463   3.370521   1.512995
     8  H    2.864063   3.190656   3.120024   3.932395   2.145476
     9  H    2.802087   3.614760   2.606252   3.578541   2.148373
    10  H    3.503693   4.163423   3.819760   4.072925   2.152906
    11  O    2.348679   3.096856   2.895334   1.224017   2.214482
    12  O    2.306818   3.249729   2.734065   1.937830   1.428873
                    6          7          8          9         10
     6  H    0.000000
     7  C    2.170905   0.000000
     8  H    2.515945   1.091564   0.000000
     9  H    3.070617   1.091225   1.776221   0.000000
    10  H    2.503724   1.091132   1.771380   1.775779   0.000000
    11  O    2.536755   3.556991   4.342222   3.805537   3.962011
    12  O    2.062271   2.383377   3.333436   2.626512   2.654632
                   11         12
    11  O    0.000000
    12  O    1.394641   0.000000
 Stoichiometry    C3H7O2(2)
 Framework group  C1[X(C3H7O2)]
 Deg. of freedom    30
 Full point group                 C1      NOp   1
 Largest Abelian subgroup         C1      NOp   1
 Largest concise Abelian subgroup C1      NOp   1
                         Standard orientation:                         
 ---------------------------------------------------------------------
 Center     Atomic      Atomic             Coordinates (Angstroms)
 Number     Number       Type             X           Y           Z
 ---------------------------------------------------------------------
      1          6           0        0.121745    1.369940   -0.115698
      2          1           0        0.059783    2.229090    0.545837
      3          1           0       -0.068329    1.587515   -1.166184
      4          1           0        1.355124    0.834676   -0.089385
      5          6           0       -0.412565    0.028858    0.379381
      6          1           0       -0.324923   -0.015856    1.470552
      7          6           0       -1.806572   -0.333255   -0.084055
      8          1           0       -2.528807    0.377189    0.322341
      9          1           0       -1.858554   -0.306578   -1.173715
     10          1           0       -2.074911   -1.333861    0.258511
     11          8           0        1.748218   -0.317255    0.040037
     12          8           0        0.504903   -0.903425   -0.195753
 ---------------------------------------------------------------------
 Rotational constants (GHZ):           8.9422969           4.2689014           3.1812687
 Standard basis: CC-pVTZ+d (5D, 7F)
 There are   280 symmetry adapted cartesian basis functions of A   symmetry.
 There are   248 symmetry adapted basis functions of A   symmetry.
   248 basis functions,   379 primitive gaussians,   280 cartesian basis functions
    21 alpha electrons       20 beta electrons
       nuclear repulsion energy       190.4128553982 Hartrees.
 NAtoms=   12 NActive=   12 NUniq=   12 SFac= 1.00D+00 NAtFMM=   60 NAOKFM=F Big=F
 Integral buffers will be    131072 words long.
 Raffenetti 2 integral format.
 Two-electron integral symmetry is turned on.
 One-electron integrals computed using PRISM.
 NBasis=   248 RedAO= T EigKep=  6.95D-04  NBF=   248
 NBsUse=   248 1.00D-06 EigRej= -1.00D+00 NBFU=   248
 ExpMin= 1.03D-01 ExpMax= 1.53D+04 ExpMxC= 5.22D+02 IAcc=3 IRadAn=         5 AccDes= 0.00D+00
 Harris functional with IExCor=  402 and IRadAn=       5 diagonalized for initial guess.
 HarFok:  IExCor=  402 AccDes= 0.00D+00 IRadAn=         5 IDoV= 1 UseB2=F ITyADJ=14
 ICtDFT=  3500011 ScaDFX=  1.000000  1.000000  1.000000  1.000000
 FoFCou: FMM=F IPFlag=           0 FMFlag=      100000 FMFlg1=           0
         NFxFlg=           0 DoJE=T BraDBF=F KetDBF=T FulRan=T
         wScrn=  0.000000 ICntrl=       500 IOpCl=  0 I1Cent=   200000004 NGrid=           0
         NMat0=    1 NMatS0=      1 NMatT0=    0 NMatD0=    1 NMtDS0=    0 NMtDT0=    0
 Petite list used in FoFCou.
 Initial guess <Sx>= 0.0000 <Sy>= 0.0000 <Sz>= 0.5000 <S**2>= 0.7500 S= 0.5000
 Keep R1 and R2 ints in memory in canonical form, NReq=980075672.
 Requested convergence on RMS density matrix=1.00D-08 within 128 cycles.
 Requested convergence on MAX density matrix=1.00D-06.
 Requested convergence on             energy=1.00D-06.
 No special actions if energy rises.
 Integral accuracy reduced to 1.0D-05 until final iterations.
 Initial convergence to 1.0D-05 achieved.  Increase integral accuracy.
 SCF Done:  E(UB3LYP) =  -268.896795964     A.U. after   22 cycles
            NFock= 22  Conv=0.37D-08     -V/T= 2.0062
 <Sx>= 0.0000 <Sy>= 0.0000 <Sz>= 0.5000 <S**2>= 0.7585 S= 0.5043
 <L.S>= 0.000000000000E+00
 Annihilation of the first spin contaminant:
 S**2 before annihilation     0.7585,   after     0.7500
 DoSCS=F DFT=T ScalE2(SS,OS)=  1.000000  1.000000
 Range of M.O.s used for correlation:     1   248
 NBasis=   248 NAE=    21 NBE=    20 NFC=     0 NFV=     0
 NROrb=    248 NOA=    21 NOB=    20 NVA=   227 NVB=   228

 **** Warning!!: The largest alpha MO coefficient is  0.12125099D+02


 **** Warning!!: The largest beta MO coefficient is  0.12124465D+02

 Symmetrizing basis deriv contribution to polar:
 IMax=3 JMax=2 DiffMx= 0.00D+00
 G2DrvN: will do    13 centers at a time, making    1 passes.
 Calling FoFCou, ICntrl=  3107 FMM=F I1Cent=   0 AccDes= 0.00D+00.
 End of G2Drv F.D. properties file   721 does not exist.
 End of G2Drv F.D. properties file   722 does not exist.
 End of G2Drv F.D. properties file   788 does not exist.
          IDoAtm=111111111111
          Differentiating once with respect to nuclear coordinates.
 Keep R1 and R2 ints in memory in canonical form, NReq=980004093.
          There are    39 degrees of freedom in the 1st order CPHF.  IDoFFX=6 NUNeed=     0.
     33 vectors produced by pass  0 Test12= 2.39D-14 2.56D-09 XBig12= 2.13D-01 2.01D-01.
 AX will form    33 AO Fock derivatives at one time.
     33 vectors produced by pass  1 Test12= 2.39D-14 2.56D-09 XBig12= 2.45D-02 4.15D-02.
     33 vectors produced by pass  2 Test12= 2.39D-14 2.56D-09 XBig12= 1.75D-03 7.96D-03.
     33 vectors produced by pass  3 Test12= 2.39D-14 2.56D-09 XBig12= 1.51D-05 5.47D-04.
     33 vectors produced by pass  4 Test12= 2.39D-14 2.56D-09 XBig12= 1.09D-07 4.67D-05.
     33 vectors produced by pass  5 Test12= 2.39D-14 2.56D-09 XBig12= 7.47D-10 2.85D-06.
     26 vectors produced by pass  6 Test12= 2.39D-14 2.56D-09 XBig12= 4.15D-12 2.05D-07.
      6 vectors produced by pass  7 Test12= 2.39D-14 2.56D-09 XBig12= 1.67D-14 1.19D-08.
 InvSVY:  IOpt=1 It=  1 EMax= 2.33D-15
 Solved reduced A of dimension   230 with    33 vectors.
 End of Minotr F.D. properties file   721 does not exist.
 End of Minotr F.D. properties file   722 does not exist.
 End of Minotr F.D. properties file   788 does not exist.

 **********************************************************************

            Population analysis using the SCF Density.

 **********************************************************************

 Orbital symmetries:
 Alpha Orbitals:
       Occupied  (A) (A) (A) (A) (A) (A) (A) (A) (A) (A) (A) (A)
                 (A) (A) (A) (A) (A) (A) (A) (A) (A)
       Virtual   (A) (A) (A) (A) (A) (A) (A) (A) (A) (A) (A) (A)
                 (A) (A) (A) (A) (A) (A) (A) (A) (A) (A) (A) (A)
                 (A) (A) (A) (A) (A) (A) (A) (A) (A) (A) (A) (A)
                 (A) (A) (A) (A) (A) (A) (A) (A) (A) (A) (A) (A)
                 (A) (A) (A) (A) (A) (A) (A) (A) (A) (A) (A) (A)
                 (A) (A) (A) (A) (A) (A) (A) (A) (A) (A) (A) (A)
                 (A) (A) (A) (A) (A) (A) (A) (A) (A) (A) (A) (A)
                 (A) (A) (A) (A) (A) (A) (A) (A) (A) (A) (A) (A)
                 (A) (A) (A) (A) (A) (A) (A) (A) (A) (A) (A) (A)
                 (A) (A) (A) (A) (A) (A) (A) (A) (A) (A) (A) (A)
                 (A) (A) (A) (A) (A) (A) (A) (A) (A) (A) (A) (A)
                 (A) (A) (A) (A) (A) (A) (A) (A) (A) (A) (A) (A)
                 (A) (A) (A) (A) (A) (A) (A) (A) (A) (A) (A) (A)
                 (A) (A) (A) (A) (A) (A) (A) (A) (A) (A) (A) (A)
                 (A) (A) (A) (A) (A) (A) (A) (A) (A) (A) (A) (A)
                 (A) (A) (A) (A) (A) (A) (A) (A) (A) (A) (A) (A)
                 (A) (A) (A) (A) (A) (A) (A) (A) (A) (A) (A) (A)
                 (A) (A) (A) (A) (A) (A) (A) (A) (A) (A) (A) (A)
                 (A) (A) (A) (A) (A) (A) (A) (A) (A) (A) (A)
 Beta  Orbitals:
       Occupied  (A) (A) (A) (A) (A) (A) (A) (A) (A) (A) (A) (A)
                 (A) (A) (A) (A) (A) (A) (A) (A)
       Virtual   (A) (A) (A) (A) (A) (A) (A) (A) (A) (A) (A) (A)
                 (A) (A) (A) (A) (A) (A) (A) (A) (A) (A) (A) (A)
                 (A) (A) (A) (A) (A) (A) (A) (A) (A) (A) (A) (A)
                 (A) (A) (A) (A) (A) (A) (A) (A) (A) (A) (A) (A)
                 (A) (A) (A) (A) (A) (A) (A) (A) (A) (A) (A) (A)
                 (A) (A) (A) (A) (A) (A) (A) (A) (A) (A) (A) (A)
                 (A) (A) (A) (A) (A) (A) (A) (A) (A) (A) (A) (A)
                 (A) (A) (A) (A) (A) (A) (A) (A) (A) (A) (A) (A)
                 (A) (A) (A) (A) (A) (A) (A) (A) (A) (A) (A) (A)
                 (A) (A) (A) (A) (A) (A) (A) (A) (A) (A) (A) (A)
                 (A) (A) (A) (A) (A) (A) (A) (A) (A) (A) (A) (A)
                 (A) (A) (A) (A) (A) (A) (A) (A) (A) (A) (A) (A)
                 (A) (A) (A) (A) (A) (A) (A) (A) (A) (A) (A) (A)
                 (A) (A) (A) (A) (A) (A) (A) (A) (A) (A) (A) (A)
                 (A) (A) (A) (A) (A) (A) (A) (A) (A) (A) (A) (A)
                 (A) (A) (A) (A) (A) (A) (A) (A) (A) (A) (A) (A)
                 (A) (A) (A) (A) (A) (A) (A) (A) (A) (A) (A) (A)
                 (A) (A) (A) (A) (A) (A) (A) (A) (A) (A) (A) (A)
                 (A) (A) (A) (A) (A) (A) (A) (A) (A) (A) (A) (A)
 The electronic state is 2-A.
 Alpha  occ. eigenvalues --  -19.19882 -19.19447 -10.24717 -10.20386 -10.18257
 Alpha  occ. eigenvalues --   -1.15195  -0.89310  -0.78784  -0.71366  -0.60055
 Alpha  occ. eigenvalues --   -0.54769  -0.49079  -0.48641  -0.43850  -0.42644
 Alpha  occ. eigenvalues --   -0.41177  -0.37801  -0.37400  -0.34417  -0.26984
 Alpha  occ. eigenvalues --   -0.25774
 Alpha virt. eigenvalues --    0.03169   0.04125   0.06540   0.07484   0.09820
 Alpha virt. eigenvalues --    0.10732   0.11787   0.14018   0.15020   0.16270
 Alpha virt. eigenvalues --    0.20510   0.22587   0.24388   0.29095   0.29668
 Alpha virt. eigenvalues --    0.30772   0.34120   0.37464   0.39074   0.41085
 Alpha virt. eigenvalues --    0.42024   0.43884   0.44565   0.45296   0.45466
 Alpha virt. eigenvalues --    0.47041   0.48301   0.50197   0.52403   0.55416
 Alpha virt. eigenvalues --    0.59998   0.61814   0.66766   0.68324   0.71186
 Alpha virt. eigenvalues --    0.71428   0.76496   0.78693   0.80996   0.81235
 Alpha virt. eigenvalues --    0.85093   0.87173   0.89079   0.91724   0.94813
 Alpha virt. eigenvalues --    0.96618   1.00919   1.01960   1.03494   1.05149
 Alpha virt. eigenvalues --    1.07185   1.09091   1.12119   1.12324   1.14486
 Alpha virt. eigenvalues --    1.17919   1.19726   1.21537   1.23359   1.25774
 Alpha virt. eigenvalues --    1.28747   1.30299   1.30883   1.34751   1.36919
 Alpha virt. eigenvalues --    1.38399   1.41230   1.43425   1.47586   1.49390
 Alpha virt. eigenvalues --    1.51026   1.53515   1.56906   1.59976   1.65842
 Alpha virt. eigenvalues --    1.70224   1.86666   1.94248   1.95791   2.02671
 Alpha virt. eigenvalues --    2.08778   2.09988   2.15462   2.25905   2.26866
 Alpha virt. eigenvalues --    2.27627   2.29251   2.33079   2.36690   2.40272
 Alpha virt. eigenvalues --    2.42592   2.45901   2.49573   2.50795   2.56428
 Alpha virt. eigenvalues --    2.60413   2.65151   2.66283   2.70951   2.74048
 Alpha virt. eigenvalues --    2.75579   2.78504   2.81968   2.85428   2.86887
 Alpha virt. eigenvalues --    2.90306   2.91036   2.94008   2.95683   2.98304
 Alpha virt. eigenvalues --    2.99663   3.01567   3.03829   3.04574   3.07814
 Alpha virt. eigenvalues --    3.09897   3.13919   3.14375   3.16361   3.23585
 Alpha virt. eigenvalues --    3.24473   3.27882   3.29043   3.30742   3.32697
 Alpha virt. eigenvalues --    3.34542   3.40327   3.43286   3.44449   3.46105
 Alpha virt. eigenvalues --    3.47469   3.50186   3.51010   3.54487   3.61010
 Alpha virt. eigenvalues --    3.63450   3.67484   3.70322   3.71761   3.73373
 Alpha virt. eigenvalues --    3.76997   3.79329   3.79701   3.83124   3.84465
 Alpha virt. eigenvalues --    3.85216   3.89405   3.91038   3.92143   3.97276
 Alpha virt. eigenvalues --    3.98729   4.00181   4.02571   4.05437   4.07409
 Alpha virt. eigenvalues --    4.08085   4.11287   4.12991   4.14066   4.18588
 Alpha virt. eigenvalues --    4.24164   4.24438   4.25207   4.30780   4.33177
 Alpha virt. eigenvalues --    4.36665   4.40283   4.48489   4.51318   4.56562
 Alpha virt. eigenvalues --    4.61019   4.63379   4.67390   4.73766   4.77019
 Alpha virt. eigenvalues --    4.81134   4.83416   4.83976   4.86401   4.90670
 Alpha virt. eigenvalues --    4.92524   4.95565   4.98596   5.02675   5.04213
 Alpha virt. eigenvalues --    5.08358   5.13496   5.14509   5.16942   5.24487
 Alpha virt. eigenvalues --    5.26422   5.29108   5.33656   5.34412   5.37261
 Alpha virt. eigenvalues --    5.39113   5.44347   5.48895   5.55649   5.62375
 Alpha virt. eigenvalues --    5.68626   5.74086   5.78148   5.83472   5.85126
 Alpha virt. eigenvalues --    5.90847   5.93719   5.98847   6.06273   6.18991
 Alpha virt. eigenvalues --    6.34155   6.44638   6.50378   6.54555   6.76711
 Alpha virt. eigenvalues --    6.81541   6.85866   6.93118   7.04144   7.30396
 Alpha virt. eigenvalues --    7.31429   7.53039   9.84596  10.54288  11.37139
 Alpha virt. eigenvalues --   12.40500  13.52620
  Beta  occ. eigenvalues --  -19.19658 -19.18073 -10.24733 -10.19577 -10.18238
  Beta  occ. eigenvalues --   -1.13749  -0.87294  -0.77548  -0.70306  -0.59327
  Beta  occ. eigenvalues --   -0.53091  -0.48251  -0.47361  -0.42302  -0.42046
  Beta  occ. eigenvalues --   -0.40888  -0.37349  -0.35626  -0.33378  -0.24606
  Beta virt. eigenvalues --   -0.13935   0.03370   0.04809   0.06629   0.07849
  Beta virt. eigenvalues --    0.09927   0.10916   0.11952   0.14458   0.16349
  Beta virt. eigenvalues --    0.16792   0.20761   0.22810   0.24706   0.29367
  Beta virt. eigenvalues --    0.29943   0.31148   0.34490   0.37715   0.39844
  Beta virt. eigenvalues --    0.41857   0.42669   0.44174   0.44772   0.45475
  Beta virt. eigenvalues --    0.45912   0.47250   0.48586   0.50705   0.53043
  Beta virt. eigenvalues --    0.55699   0.60817   0.62308   0.67186   0.68832
  Beta virt. eigenvalues --    0.71696   0.71926   0.76937   0.79321   0.81169
  Beta virt. eigenvalues --    0.81501   0.85346   0.87345   0.89261   0.91906
  Beta virt. eigenvalues --    0.95298   0.96810   1.01480   1.02385   1.03872
  Beta virt. eigenvalues --    1.05265   1.07445   1.09250   1.12410   1.12693
  Beta virt. eigenvalues --    1.15621   1.18290   1.20409   1.21798   1.23570
  Beta virt. eigenvalues --    1.26099   1.29105   1.30498   1.31099   1.35267
  Beta virt. eigenvalues --    1.37392   1.38624   1.41874   1.43901   1.48080
  Beta virt. eigenvalues --    1.49781   1.51667   1.54006   1.57462   1.60538
  Beta virt. eigenvalues --    1.66229   1.71024   1.87729   1.94768   1.96328
  Beta virt. eigenvalues --    2.03869   2.10189   2.10814   2.16661   2.26267
  Beta virt. eigenvalues --    2.27496   2.28063   2.29758   2.33768   2.37423
  Beta virt. eigenvalues --    2.40733   2.42843   2.46590   2.49761   2.51187
  Beta virt. eigenvalues --    2.57464   2.61128   2.65384   2.66921   2.71341
  Beta virt. eigenvalues --    2.75040   2.76006   2.78638   2.82141   2.86213
  Beta virt. eigenvalues --    2.87581   2.90699   2.91379   2.94588   2.96346
  Beta virt. eigenvalues --    2.99015   3.00311   3.02119   3.04388   3.05322
  Beta virt. eigenvalues --    3.08501   3.10379   3.14242   3.14986   3.17456
  Beta virt. eigenvalues --    3.24035   3.24905   3.28960   3.29360   3.31269
  Beta virt. eigenvalues --    3.33052   3.35097   3.40774   3.43755   3.44602
  Beta virt. eigenvalues --    3.46516   3.47924   3.50535   3.51409   3.54758
  Beta virt. eigenvalues --    3.61260   3.63918   3.67711   3.70816   3.72004
  Beta virt. eigenvalues --    3.73751   3.77189   3.79672   3.80028   3.83321
  Beta virt. eigenvalues --    3.84503   3.85454   3.89580   3.91188   3.92281
  Beta virt. eigenvalues --    3.97228   3.98748   4.00451   4.02884   4.05789
  Beta virt. eigenvalues --    4.07523   4.08358   4.11760   4.13351   4.14115
  Beta virt. eigenvalues --    4.18697   4.24477   4.25161   4.25882   4.31099
  Beta virt. eigenvalues --    4.33391   4.36875   4.40559   4.48961   4.51795
  Beta virt. eigenvalues --    4.57123   4.61365   4.63773   4.67719   4.74136
  Beta virt. eigenvalues --    4.77740   4.81491   4.83604   4.84199   4.87123
  Beta virt. eigenvalues --    4.91282   4.93105   4.95972   4.99586   5.03807
  Beta virt. eigenvalues --    5.04715   5.09135   5.14380   5.14724   5.17273
  Beta virt. eigenvalues --    5.24927   5.26812   5.29732   5.33971   5.35232
  Beta virt. eigenvalues --    5.37683   5.39518   5.45029   5.49367   5.55915
  Beta virt. eigenvalues --    5.63003   5.69149   5.75669   5.78485   5.84319
  Beta virt. eigenvalues --    5.85387   5.91692   5.95460   5.99744   6.07426
  Beta virt. eigenvalues --    6.19955   6.36887   6.45916   6.52656   6.58753
  Beta virt. eigenvalues --    6.78021   6.82378   6.86858   6.95950   7.05548
  Beta virt. eigenvalues --    7.31447   7.32693   7.54152   9.86394  10.54770
  Beta virt. eigenvalues --   11.37338  12.41406  13.52656
          Condensed to atoms (all electrons):
               1          2          3          4          5          6
     1  C    5.200287   0.382630   0.374758   0.286412   0.315444  -0.063382
     2  H    0.382630   0.568525  -0.029264  -0.012598  -0.024167  -0.001592
     3  H    0.374758  -0.029264   0.567630  -0.012709  -0.028638   0.008634
     4  H    0.286412  -0.012598  -0.012709   0.474535  -0.031535  -0.005476
     5  C    0.315444  -0.024167  -0.028638  -0.031535   4.765318   0.393842
     6  H   -0.063382  -0.001592   0.008634  -0.005476   0.393842   0.637948
     7  C   -0.049359  -0.000155  -0.001302   0.001184   0.326036  -0.025437
     8  H   -0.000130   0.000772   0.000133   0.000265  -0.031368   0.000049
     9  H   -0.009615   0.000578   0.006174  -0.000502  -0.033954   0.009244
    10  H    0.008727  -0.000457  -0.000281  -0.000143  -0.026545  -0.008396
    11  O   -0.097082   0.000156   0.000918   0.168512  -0.062858   0.017370
    12  O   -0.059685   0.005304   0.007288  -0.047592   0.296632  -0.042944
               7          8          9         10         11         12
     1  C   -0.049359  -0.000130  -0.009615   0.008727  -0.097082  -0.059685
     2  H   -0.000155   0.000772   0.000578  -0.000457   0.000156   0.005304
     3  H   -0.001302   0.000133   0.006174  -0.000281   0.000918   0.007288
     4  H    0.001184   0.000265  -0.000502  -0.000143   0.168512  -0.047592
     5  C    0.326036  -0.031368  -0.033954  -0.026545  -0.062858   0.296632
     6  H   -0.025437   0.000049   0.009244  -0.008396   0.017370  -0.042944
     7  C    4.885087   0.389411   0.394597   0.397698   0.007056  -0.034551
     8  H    0.389411   0.597423  -0.026012  -0.028544  -0.000293   0.003306
     9  H    0.394597  -0.026012   0.582124  -0.027604  -0.000146   0.006200
    10  H    0.397698  -0.028544  -0.027604   0.574395  -0.000100   0.000226
    11  O    0.007056  -0.000293  -0.000146  -0.000100   8.057274   0.104247
    12  O   -0.034551   0.003306   0.006200   0.000226   0.104247   7.910677
          Atomic-Atomic Spin Densities.
               1          2          3          4          5          6
     1  C    0.560068   0.007898   0.009991   0.023723   0.008715  -0.001960
     2  H    0.007898  -0.022602   0.002042   0.001128  -0.000454  -0.000548
     3  H    0.009991   0.002042  -0.022545   0.003379  -0.003569  -0.000621
     4  H    0.023723   0.001128   0.003379  -0.080884   0.016385   0.002613
     5  C    0.008715  -0.000454  -0.003569   0.016385  -0.025119   0.003880
     6  H   -0.001960  -0.000548  -0.000621   0.002613   0.003880   0.002948
     7  C   -0.013697  -0.000691  -0.000083   0.000539   0.009806   0.003493
     8  H   -0.000461  -0.000039  -0.000072   0.000021   0.000192  -0.000073
     9  H   -0.001130  -0.000055  -0.000398   0.000194   0.001232  -0.000059
    10  H    0.002755   0.000080   0.000094  -0.000042  -0.001964  -0.001680
    11  O   -0.062352   0.000718   0.001211  -0.022109  -0.009110  -0.002606
    12  O    0.005303  -0.000294  -0.000849   0.005697   0.000612  -0.003682
               7          8          9         10         11         12
     1  C   -0.013697  -0.000461  -0.001130   0.002755  -0.062352   0.005303
     2  H   -0.000691  -0.000039  -0.000055   0.000080   0.000718  -0.000294
     3  H   -0.000083  -0.000072  -0.000398   0.000094   0.001211  -0.000849
     4  H    0.000539   0.000021   0.000194  -0.000042  -0.022109   0.005697
     5  C    0.009806   0.000192   0.001232  -0.001964  -0.009110   0.000612
     6  H    0.003493  -0.000073  -0.000059  -0.001680  -0.002606  -0.003682
     7  C    0.011672   0.001358   0.001063  -0.005144  -0.001074  -0.002197
     8  H    0.001358  -0.000836   0.000197  -0.000268  -0.000006  -0.000065
     9  H    0.001063   0.000197  -0.001118  -0.000614  -0.000159  -0.000358
    10  H   -0.005144  -0.000268  -0.000614   0.013451   0.000113   0.001836
    11  O   -0.001074  -0.000006  -0.000159   0.000113   0.588628  -0.038763
    12  O   -0.002197  -0.000065  -0.000358   0.001836  -0.038763   0.098291
 Mulliken charges and spin densities:
               1          2
     1  C   -0.289005   0.538853
     2  H    0.110268  -0.012817
     3  H    0.106659  -0.011420
     4  H    0.179646  -0.049356
     5  C    0.141793   0.000607
     6  H    0.080141   0.001706
     7  C   -0.290266   0.005045
     8  H    0.094988  -0.000052
     9  H    0.098917  -0.001205
    10  H    0.111024   0.008618
    11  O   -0.195055   0.454491
    12  O   -0.149109   0.065530
 Sum of Mulliken charges =  -0.00000   1.00000
 Mulliken charges and spin densities with hydrogens summed into heavy atoms:
               1          2
     1  C   -0.072079   0.514616
     5  C    0.221933   0.002313
     7  C    0.014663   0.012406
    11  O   -0.015409   0.405135
    12  O   -0.149109   0.065530
 APT charges:
               1
     1  C   -0.805409
     2  H    0.424239
     3  H    0.323481
     4  H    0.180730
     5  C   -0.229719
     6  H    0.292058
     7  C   -1.018550
     8  H    0.390845
     9  H    0.278327
    10  H    0.384402
    11  O   -0.186419
    12  O   -0.033984
 Sum of APT charges =  -0.00000
 APT charges with hydrogens summed into heavy atoms:
               1
     1  C   -0.057690
     5  C    0.062338
     7  C    0.035024
    11  O   -0.005689
    12  O   -0.033984
 Electronic spatial extent (au):  <R**2>=            425.7317
 Charge=             -0.0000 electrons
 Dipole moment (field-independent basis, Debye):
    X=             -2.2596    Y=              1.8257    Z=              0.4951  Tot=              2.9469
 Quadrupole moment (field-independent basis, Debye-Ang):
   XX=            -33.1338   YY=            -31.1135   ZZ=            -30.7615
   XY=              1.9787   XZ=             -0.0357   YZ=             -0.4348
 Traceless Quadrupole moment (field-independent basis, Debye-Ang):
   XX=             -1.4642   YY=              0.5561   ZZ=              0.9081
   XY=              1.9787   XZ=             -0.0357   YZ=             -0.4348
 Octapole moment (field-independent basis, Debye-Ang**2):
  XXX=              2.2580  YYY=             -2.8174  ZZZ=             -0.8219  XYY=              2.0765
  XXY=             -0.0777  XXZ=              0.3732  XZZ=              1.6361  YZZ=             -0.6265
  YYZ=              1.2771  XYZ=             -0.2531
 Hexadecapole moment (field-independent basis, Debye-Ang**3):
 XXXX=           -326.4212 YYYY=           -165.7107 ZZZZ=            -58.3728 XXXY=             -0.3166
 XXXZ=             -1.2165 YYYX=             -1.7593 YYYZ=              2.4790 ZZZX=              0.9880
 ZZZY=             -0.5284 XXYY=            -79.8640 XXZZ=            -64.7330 YYZZ=            -37.0831
 XXYZ=              0.4806 YYXZ=             -0.7053 ZZXY=             -1.2798
 N-N= 1.904128553982D+02 E-N=-1.010204923032D+03  KE= 2.672416506572D+02
  Exact polarizability:   0.000   0.000   0.000   0.000   0.000   0.000
 Approx polarizability:  80.095  -8.266  83.826   0.919  -0.307  57.124
                          Isotropic Fermi Contact Couplings
        Atom                 a.u.       MegaHertz       Gauss      10(-4) cm-1
     1  C(13)              0.04517      50.78289      18.12060      16.93935
     2  H(1)              -0.00592     -26.45713      -9.44056      -8.82515
     3  H(1)              -0.00448     -20.04232      -7.15160      -6.68540
     4  H(1)              -0.02637    -117.86821     -42.05831     -39.31660
     5  C(13)             -0.01257     -14.12680      -5.04079      -4.71219
     6  H(1)               0.00066       2.96598       1.05834       0.98935
     7  C(13)              0.00755       8.48837       3.02886       2.83141
     8  H(1)               0.00098       4.38481       1.56461       1.46261
     9  H(1)              -0.00024      -1.08078      -0.38565      -0.36051
    10  H(1)               0.00300      13.40430       4.78299       4.47119
    11  O(17)              0.02286     -13.85624      -4.94425      -4.62195
    12  O(17)              0.04862     -29.47475     -10.51732      -9.83172
 --------------------------------------------------------
       Center         ----  Spin Dipole Couplings  ----
                      3XX-RR        3YY-RR        3ZZ-RR
 --------------------------------------------------------
     1   Atom        0.652473     -0.316963     -0.335510
     2   Atom       -0.001199      0.013064     -0.011865
     3   Atom       -0.002998     -0.035158      0.038157
     4   Atom        0.022522      0.083351     -0.105873
     5   Atom       -0.005257      0.029257     -0.024000
     6   Atom       -0.001155     -0.002571      0.003725
     7   Atom        0.008189      0.002023     -0.010211
     8   Atom        0.007758     -0.002791     -0.004968
     9   Atom        0.003265     -0.001292     -0.001973
    10   Atom        0.002468      0.000500     -0.002967
    11   Atom       -0.833189      1.367587     -0.534398
    12   Atom       -0.227553     -0.040105      0.267658
 --------------------------------------------------------
                        XY            XZ            YZ
 --------------------------------------------------------
     1   Atom       -0.117604     -0.020112      0.002859
     2   Atom       -0.004636      0.000166      0.040802
     3   Atom       -0.008309      0.004637     -0.016362
     4   Atom       -0.125203      0.005320     -0.005966
     5   Atom       -0.005232     -0.001943      0.006115
     6   Atom        0.000492     -0.007714     -0.005525
     7   Atom        0.013230      0.003906      0.005319
     8   Atom        0.001319     -0.002062     -0.000467
     9   Atom        0.003629      0.004332      0.002071
    10   Atom        0.003024     -0.000522     -0.001374
    11   Atom       -0.748315      0.359308     -1.164682
    12   Atom        0.004799     -0.057876     -0.276027
 --------------------------------------------------------


 ---------------------------------------------------------------------------------
              Anisotropic Spin Dipole Couplings in Principal Axis System
 ---------------------------------------------------------------------------------

       Atom             a.u.   MegaHertz   Gauss  10(-4) cm-1        Axes

              Baa    -0.3360   -45.083   -16.087   -15.038  0.0092 -0.0927  0.9957
     1 C(13)  Bbb    -0.3310   -44.415   -15.848   -14.815  0.1201  0.9886  0.0909
              Bcc     0.6669    89.498    31.935    29.853  0.9927 -0.1187 -0.0203
 
              Baa    -0.0423   -22.552    -8.047    -7.523 -0.0705 -0.5958  0.8000
     2 H(1)   Bbb    -0.0013    -0.688    -0.245    -0.229  0.9942  0.0231  0.1048
              Bcc     0.0436    23.240     8.293     7.752 -0.0810  0.8028  0.5908
 
              Baa    -0.0400   -21.367    -7.624    -7.127  0.1921  0.9628  0.1901
     3 H(1)   Bbb    -0.0025    -1.318    -0.470    -0.440  0.9716 -0.1593 -0.1751
              Bcc     0.0425    22.685     8.095     7.567  0.1383 -0.2183  0.9660
 
              Baa    -0.1061   -56.611   -20.200   -18.883 -0.0300  0.0116  0.9995
     4 H(1)   Bbb    -0.0759   -40.496   -14.450   -13.508  0.7857  0.6184  0.0164
              Bcc     0.1820    97.107    34.650    32.392 -0.6178  0.7858 -0.0277
 
              Baa    -0.0248    -3.326    -1.187    -1.110  0.0705 -0.1054  0.9919
     5 C(13)  Bbb    -0.0060    -0.802    -0.286    -0.268  0.9863  0.1558 -0.0535
              Bcc     0.0308     4.128     1.473     1.377 -0.1489  0.9822  0.1150
 
              Baa    -0.0085    -4.561    -1.627    -1.521  0.6025  0.5144  0.6102
     6 H(1)   Bbb    -0.0025    -1.353    -0.483    -0.451 -0.6127  0.7881 -0.0594
              Bcc     0.0111     5.914     2.110     1.973 -0.5115 -0.3381  0.7900
 
              Baa    -0.0123    -1.652    -0.589    -0.551  0.1086 -0.4325  0.8951
     7 C(13)  Bbb    -0.0077    -1.037    -0.370    -0.346 -0.6426  0.6564  0.3951
              Bcc     0.0200     2.688     0.959     0.897  0.7585  0.6181  0.2066
 
              Baa    -0.0053    -2.839    -1.013    -0.947  0.1444  0.1062  0.9838
     8 H(1)   Bbb    -0.0029    -1.566    -0.559    -0.522 -0.1383  0.9866 -0.0862
              Bcc     0.0083     4.405     1.572     1.469  0.9798  0.1236 -0.1572
 
              Baa    -0.0044    -2.357    -0.841    -0.786 -0.4857 -0.0152  0.8740
     9 H(1)   Bbb    -0.0032    -1.730    -0.617    -0.577 -0.3765  0.9060 -0.1934
              Bcc     0.0077     4.086     1.458     1.363  0.7889  0.4230  0.4458
 
              Baa    -0.0035    -1.873    -0.668    -0.625 -0.1259  0.4053  0.9055
    10 H(1)   Bbb    -0.0013    -0.720    -0.257    -0.240 -0.6032  0.6934 -0.3942
              Bcc     0.0049     2.593     0.925     0.865  0.7876  0.5958 -0.1572
 
              Baa    -1.0876    78.698    28.082    26.251 -0.1495  0.3862  0.9102
    11 O(17)  Bbb    -1.0635    76.954    27.459    25.669  0.9518  0.3057  0.0266
              Bcc     2.1511  -155.653   -55.541   -51.920 -0.2680  0.8703 -0.4133
 
              Baa    -0.2461    17.805     6.353     5.939  0.8651  0.3946  0.3095
    12 O(17)  Bbb    -0.1879    13.595     4.851     4.535 -0.4953  0.7694  0.4033
              Bcc     0.4339   -31.400   -11.204   -10.474 -0.0790 -0.5022  0.8611
 

 ---------------------------------------------------------------------------------

 Calling FoFJK, ICntrl=    100147 FMM=F ISym2X=0 I1Cent= 0 IOpClX= 1 NMat=1 NMatS=1 NMatT=0.
 ***** Axes restored to original set *****
 -------------------------------------------------------------------
 Center     Atomic                   Forces (Hartrees/Bohr)
 Number     Number              X              Y              Z
 -------------------------------------------------------------------
      1        6           0.005435375    0.002437521   -0.000899370
      2        1          -0.001157415   -0.000530232   -0.001077187
      3        1          -0.001262090    0.000938674    0.001670214
      4        1          -0.008578760    0.009287722    0.000082408
      5        6          -0.003952267    0.005152588    0.002051540
      6        1          -0.000710035    0.000504139   -0.000476271
      7        6          -0.000643902   -0.000565686    0.000184360
      8        1           0.000222516   -0.000955405   -0.000523394
      9        1          -0.000756405   -0.000160364    0.001026311
     10        1          -0.000597275    0.000604888   -0.000328388
     11        8           0.012412484   -0.008976910    0.001466367
     12        8          -0.000412227   -0.007736934   -0.003176590
 -------------------------------------------------------------------
 Cartesian Forces:  Max     0.012412484 RMS     0.003954526
 FormGI is forming the generalized inverse of G from B-inverse, IUseBI=4.

 GradGradGradGradGradGradGradGradGradGradGradGradGradGradGradGradGradGrad
 Berny optimization.
 Internal  Forces:  Max     0.011600640 RMS     0.002247890
 Search for a saddle point.
 Step number   1 out of a maximum of   69
 All quantities printed in internal units (Hartrees-Bohrs-Radians)
 Swapping is turned off.
 Second derivative matrix not updated -- analytic derivatives used.
 ITU=  0
     Eigenvalues ---   -0.12842   0.00191   0.00287   0.01109   0.02634
     Eigenvalues ---    0.03052   0.03500   0.04389   0.04440   0.04940
     Eigenvalues ---    0.06714   0.07131   0.08535   0.09055   0.10516
     Eigenvalues ---    0.12443   0.13705   0.14411   0.16343   0.20117
     Eigenvalues ---    0.22726   0.28338   0.29082   0.31541   0.33232
     Eigenvalues ---    0.33347   0.33441   0.34069   0.34301   0.34879
 Eigenvectors required to have negative eigenvalues:
                          R5        R3        R12       D8        D9
   1                    0.75184  -0.55845  -0.23919   0.08892   0.08736
                          A6        A20       R8        D7        D4
   1                    0.08359  -0.08358   0.08075   0.06745  -0.05614
 RFO step:  Lambda0=7.077412087D-04 Lambda=-8.78297135D-04.
 Linear search not attempted -- option 19 set.
 Iteration  1 RMS(Cart)=  0.01373463 RMS(Int)=  0.00016385
 Iteration  2 RMS(Cart)=  0.00012434 RMS(Int)=  0.00007474
 Iteration  3 RMS(Cart)=  0.00000002 RMS(Int)=  0.00007474
 Variable       Old X    -DE/DX   Delta X   Delta X   Delta X     New X
                                 (Linear)    (Quad)   (Total)
    R1        2.05243  -0.00101   0.00000  -0.00306  -0.00306   2.04937
    R2        2.05884  -0.00120   0.00000  -0.00439  -0.00439   2.05445
    R3        2.54126  -0.00148   0.00000   0.05446   0.05453   2.59579
    R4        2.88398   0.00221   0.00000   0.00086   0.00095   2.88493
    R5        2.31306   0.01160   0.00000  -0.04145  -0.04148   2.27158
    R6        2.07038  -0.00055   0.00000  -0.00169  -0.00169   2.06869
    R7        2.85915   0.00178   0.00000   0.00473   0.00473   2.86388
    R8        2.70018   0.00858   0.00000   0.01768   0.01764   2.71782
    R9        2.06276  -0.00096   0.00000  -0.00225  -0.00225   2.06051
   R10        2.06212  -0.00099   0.00000  -0.00286  -0.00286   2.05926
   R11        2.06194  -0.00051   0.00000  -0.00158  -0.00158   2.06036
   R12        2.63549   0.00582   0.00000   0.04463   0.04452   2.68001
    A1        2.00354  -0.00063   0.00000  -0.00502  -0.00503   1.99851
    A2        1.93399   0.00063   0.00000   0.00484   0.00468   1.93867
    A3        2.06867  -0.00050   0.00000  -0.00311  -0.00320   2.06547
    A4        1.83212   0.00058   0.00000   0.00795   0.00797   1.84009
    A5        2.01218   0.00033   0.00000   0.01370   0.01373   2.02592
    A6        1.53578   0.00008   0.00000  -0.02045  -0.02021   1.51556
    A7        2.30663   0.00322   0.00000   0.03175   0.03177   2.33841
    A8        1.90810  -0.00053   0.00000  -0.00765  -0.00770   1.90040
    A9        2.01919   0.00074   0.00000   0.00489   0.00484   2.02403
   A10        1.79053   0.00085   0.00000   0.01501   0.01506   1.80559
   A11        1.94873  -0.00052   0.00000  -0.01022  -0.01022   1.93851
   A12        1.89958  -0.00003   0.00000   0.00181   0.00180   1.90138
   A13        1.88825  -0.00042   0.00000  -0.00159  -0.00172   1.88654
   A14        1.91751   0.00040   0.00000   0.00258   0.00257   1.92008
   A15        1.92187   0.00094   0.00000   0.00945   0.00943   1.93130
   A16        1.92826   0.00076   0.00000   0.00028   0.00027   1.92853
   A17        1.90111  -0.00069   0.00000  -0.00334  -0.00337   1.89774
   A18        1.89362  -0.00073   0.00000  -0.00621  -0.00621   1.88741
   A19        1.90097  -0.00073   0.00000  -0.00309  -0.00310   1.89787
   A20        1.66229  -0.00356   0.00000  -0.00912  -0.00939   1.65290
   A21        1.80302  -0.00005   0.00000  -0.00323  -0.00346   1.79956
    D1        2.29661   0.00001   0.00000  -0.00509  -0.00503   2.29158
    D2       -1.81408  -0.00002   0.00000  -0.00326  -0.00322  -1.81731
    D3        0.20465   0.00040   0.00000   0.00597   0.00604   0.21070
    D4       -0.49940  -0.00025   0.00000   0.01906   0.01900  -0.48040
    D5        1.71822  -0.00083   0.00000   0.00234   0.00227   1.72049
    D6       -2.51351  -0.00041   0.00000   0.01275   0.01275  -2.50075
    D7       -2.97244   0.00115   0.00000   0.01261   0.01259  -2.95985
    D8       -0.75482   0.00057   0.00000  -0.00410  -0.00414  -0.75896
    D9        1.29665   0.00098   0.00000   0.00630   0.00634   1.30299
   D10        1.46721   0.00043   0.00000   0.01230   0.01236   1.47957
   D11       -2.59836  -0.00015   0.00000  -0.00441  -0.00437  -2.60273
   D12       -0.54689   0.00027   0.00000   0.00600   0.00611  -0.54078
   D13        0.25128  -0.00038   0.00000  -0.01615  -0.01611   0.23517
   D14       -1.12318   0.00054   0.00000   0.00399   0.00400  -1.11918
   D15        0.97074   0.00053   0.00000   0.00742   0.00745   0.97819
   D16        3.07133   0.00071   0.00000   0.00987   0.00989   3.08123
   D17        1.07389  -0.00004   0.00000  -0.01156  -0.01157   1.06232
   D18       -3.11537  -0.00005   0.00000  -0.00813  -0.00813  -3.12350
   D19       -1.01477   0.00013   0.00000  -0.00568  -0.00568  -1.02046
   D20       -3.11937  -0.00066   0.00000  -0.01655  -0.01657  -3.13594
   D21       -1.02544  -0.00067   0.00000  -0.01311  -0.01313  -1.03857
   D22        1.07515  -0.00049   0.00000  -0.01067  -0.01068   1.06447
   D23        0.77764  -0.00000   0.00000  -0.01314  -0.01318   0.76446
   D24       -1.24263   0.00020   0.00000  -0.01251  -0.01257  -1.25520
   D25        2.92000   0.00110   0.00000  -0.00023  -0.00024   2.91975
   D26       -0.60203   0.00188   0.00000   0.02234   0.02223  -0.57979
         Item               Value     Threshold  Converged?
 Maximum Force            0.011601     0.000450     NO 
 RMS     Force            0.002248     0.000300     NO 
 Maximum Displacement     0.045641     0.001800     NO 
 RMS     Displacement     0.013697     0.001200     NO 
 Predicted change in Energy=-8.643646D-05
 GradGradGradGradGradGradGradGradGradGradGradGradGradGradGradGradGradGrad

                          Input orientation:                          
 ---------------------------------------------------------------------
 Center     Atomic      Atomic             Coordinates (Angstroms)
 Number     Number       Type             X           Y           Z
 ---------------------------------------------------------------------
      1          6           0        0.117733    1.378292   -0.118032
      2          1           0        0.057199    2.230271    0.550222
      3          1           0       -0.065276    1.611667   -1.163965
      4          1           0        1.368394    0.811258   -0.083516
      5          6           0       -0.412966    0.033456    0.372282
      6          1           0       -0.334185   -0.001982    1.463574
      7          6           0       -1.809811   -0.335484   -0.085365
      8          1           0       -2.534507    0.369938    0.322204
      9          1           0       -1.875740   -0.315815   -1.172903
     10          1           0       -2.074641   -1.333895    0.263614
     11          8           0        1.771326   -0.314831    0.037048
     12          8           0        0.507589   -0.915833   -0.193293
 ---------------------------------------------------------------------
                    Distance matrix (angstroms):
                    1          2          3          4          5
     1  C    0.000000
     2  H    1.084480   0.000000
     3  H    1.087167   1.826501   0.000000
     4  H    1.373635   2.033336   1.965562   0.000000
     5  C    1.526640   2.253600   2.229729   1.996489   0.000000
     6  H    2.147292   2.443430   3.095180   2.440004   1.094705
     7  C    2.579441   3.236170   2.828105   3.378758   1.515498
     8  H    2.871404   3.198401   3.138103   3.948672   2.148643
     9  H    2.820760   3.631524   2.644437   3.602979   2.156222
    10  H    3.508293   4.162952   3.840817   4.071446   2.154675
    11  O    2.371727   3.111130   2.920092   1.202068   2.237145
    12  O    2.328231   3.263991   2.767424   1.932842   1.438209
                    6          7          8          9         10
     6  H    0.000000
     7  C    2.165158   0.000000
     8  H    2.506486   1.090375   0.000000
     9  H    3.070162   1.089712   1.771885   0.000000
    10  H    2.498616   1.090297   1.765774   1.771901   0.000000
    11  O    2.562426   3.583288   4.369259   3.842535   3.985134
    12  O    2.070968   2.391400   3.342647   2.645735   2.655457
                   11         12
    11  O    0.000000
    12  O    1.418200   0.000000
 Stoichiometry    C3H7O2(2)
 Framework group  C1[X(C3H7O2)]
 Deg. of freedom    30
 Full point group                 C1      NOp   1
 Largest Abelian subgroup         C1      NOp   1
 Largest concise Abelian subgroup C1      NOp   1
                         Standard orientation:                         
 ---------------------------------------------------------------------
 Center     Atomic      Atomic             Coordinates (Angstroms)
 Number     Number       Type             X           Y           Z
 ---------------------------------------------------------------------
      1          6           0        0.110593    1.378928   -0.117341
      2          1           0        0.047818    2.231086    0.550478
      3          1           0       -0.073072    1.611281   -1.163387
      4          1           0        1.362758    0.815238   -0.082580
      5          6           0       -0.416512    0.032938    0.373680
      6          1           0       -0.337599   -0.001733    1.464987
      7          6           0       -1.812387   -0.339948   -0.083728
      8          1           0       -2.538942    0.363753    0.323506
      9          1           0       -1.878406   -0.321012   -1.171273
     10          1           0       -2.074551   -1.338881    0.265772
     11          8           0        1.768686   -0.309714    0.038545
     12          8           0        0.506543   -0.914190   -0.191442
 ---------------------------------------------------------------------
 Rotational constants (GHZ):           8.8541467           4.2159174           3.1369955
 Standard basis: CC-pVTZ+d (5D, 7F)
 There are   280 symmetry adapted cartesian basis functions of A   symmetry.
 There are   248 symmetry adapted basis functions of A   symmetry.
   248 basis functions,   379 primitive gaussians,   280 cartesian basis functions
    21 alpha electrons       20 beta electrons
       nuclear repulsion energy       189.3403490067 Hartrees.
 NAtoms=   12 NActive=   12 NUniq=   12 SFac= 1.00D+00 NAtFMM=   60 NAOKFM=F Big=F
 Integral buffers will be    131072 words long.
 Raffenetti 2 integral format.
 Two-electron integral symmetry is turned on.
 One-electron integrals computed using PRISM.
 NBasis=   248 RedAO= T EigKep=  7.06D-04  NBF=   248
 NBsUse=   248 1.00D-06 EigRej= -1.00D+00 NBFU=   248
 Initial guess from the checkpoint file:  "RisopO2-H-shift-TS3-b3lyp-c.chk"
 B after Tr=     0.000000    0.000000   -0.000000
         Rot=    0.999998    0.000893   -0.000078   -0.001822 Ang=   0.23 deg.
 Initial guess <Sx>= 0.0000 <Sy>= 0.0000 <Sz>= 0.5000 <S**2>= 0.7586 S= 0.5043
 ExpMin= 1.03D-01 ExpMax= 1.53D+04 ExpMxC= 5.22D+02 IAcc=3 IRadAn=         5 AccDes= 0.00D+00
 Harris functional with IExCor=  402 and IRadAn=       5 diagonalized for initial guess.
 HarFok:  IExCor=  402 AccDes= 0.00D+00 IRadAn=         5 IDoV= 1 UseB2=F ITyADJ=14
 ICtDFT=  3500011 ScaDFX=  1.000000  1.000000  1.000000  1.000000
 FoFCou: FMM=F IPFlag=           0 FMFlag=      100000 FMFlg1=           0
         NFxFlg=           0 DoJE=T BraDBF=F KetDBF=T FulRan=T
         wScrn=  0.000000 ICntrl=       500 IOpCl=  0 I1Cent=   200000004 NGrid=           0
         NMat0=    1 NMatS0=      1 NMatT0=    0 NMatD0=    1 NMtDS0=    0 NMtDT0=    0
 Petite list used in FoFCou.
 Keep R1 and R2 ints in memory in canonical form, NReq=980075672.
 Requested convergence on RMS density matrix=1.00D-08 within 128 cycles.
 Requested convergence on MAX density matrix=1.00D-06.
 Requested convergence on             energy=1.00D-06.
 No special actions if energy rises.
 Integral accuracy reduced to 1.0D-05 until final iterations.
 Initial convergence to 1.0D-05 achieved.  Increase integral accuracy.
 SCF Done:  E(UB3LYP) =  -268.896899937     A.U. after   19 cycles
            NFock= 19  Conv=0.34D-08     -V/T= 2.0064
 <Sx>= 0.0000 <Sy>= 0.0000 <Sz>= 0.5000 <S**2>= 0.7587 S= 0.5043
 <L.S>= 0.000000000000E+00
 Annihilation of the first spin contaminant:
 S**2 before annihilation     0.7587,   after     0.7500
 Calling FoFJK, ICntrl=      2127 FMM=F ISym2X=0 I1Cent= 0 IOpClX= 1 NMat=1 NMatS=1 NMatT=0.
 ***** Axes restored to original set *****
 -------------------------------------------------------------------
 Center     Atomic                   Forces (Hartrees/Bohr)
 Number     Number              X              Y              Z
 -------------------------------------------------------------------
      1        6          -0.000231891    0.000237844   -0.000028860
      2        1          -0.000055340    0.000002216    0.000004357
      3        1          -0.000091630    0.000035161   -0.000004487
      4        1          -0.000122524    0.000050555    0.000140993
      5        6          -0.000286752    0.000460775   -0.000064907
      6        1          -0.000009268   -0.000046382   -0.000022268
      7        6          -0.000027822    0.000001852    0.000013014
      8        1          -0.000002170   -0.000013909    0.000001122
      9        1          -0.000018659    0.000004472    0.000003960
     10        1          -0.000001355   -0.000010939   -0.000000203
     11        8           0.000841356   -0.000422037   -0.000109006
     12        8           0.000006054   -0.000299608    0.000066286
 -------------------------------------------------------------------
 Cartesian Forces:  Max     0.000841356 RMS     0.000201148

 GradGradGradGradGradGradGradGradGradGradGradGradGradGradGradGradGradGrad
 Berny optimization.
 FormGI is forming the generalized inverse of G from B-inverse, IUseBI=4.
 Internal  Forces:  Max     0.000493834 RMS     0.000138139
 Search for a saddle point.
 Step number   2 out of a maximum of   69
 All quantities printed in internal units (Hartrees-Bohrs-Radians)
 Swapping is turned off.
 Update second derivatives using D2CorX and points    1    2
 ITU=  0  0
     Eigenvalues ---   -0.12627   0.00197   0.00296   0.01089   0.02630
     Eigenvalues ---    0.03049   0.03529   0.04387   0.04440   0.04893
     Eigenvalues ---    0.06713   0.07118   0.08531   0.09036   0.10485
     Eigenvalues ---    0.12445   0.13560   0.14411   0.16304   0.20089
     Eigenvalues ---    0.22633   0.28079   0.29077   0.31376   0.33187
     Eigenvalues ---    0.33343   0.33405   0.34066   0.34291   0.34879
 Eigenvectors required to have negative eigenvalues:
                          R5        R3        R12       D8        D9
   1                    0.74881  -0.56518  -0.23899   0.08892   0.08871
                          A6        A20       R8        D7        D4
   1                    0.08005  -0.07723   0.07698   0.06968  -0.05327
 RFO step:  Lambda0=1.335582341D-07 Lambda=-8.01039411D-06.
 Linear search not attempted -- option 19 set.
 Iteration  1 RMS(Cart)=  0.00192064 RMS(Int)=  0.00000409
 Iteration  2 RMS(Cart)=  0.00000419 RMS(Int)=  0.00000178
 Iteration  3 RMS(Cart)=  0.00000000 RMS(Int)=  0.00000178
 Variable       Old X    -DE/DX   Delta X   Delta X   Delta X     New X
                                 (Linear)    (Quad)   (Total)
    R1        2.04937   0.00001   0.00000  -0.00001  -0.00001   2.04936
    R2        2.05445   0.00003   0.00000  -0.00002  -0.00002   2.05443
    R3        2.59579   0.00043   0.00000   0.00368   0.00368   2.59947
    R4        2.88493  -0.00007   0.00000  -0.00062  -0.00062   2.88431
    R5        2.27158   0.00049   0.00000   0.00035   0.00035   2.27193
    R6        2.06869  -0.00002   0.00000  -0.00009  -0.00009   2.06861
    R7        2.86388   0.00005   0.00000   0.00013   0.00013   2.86401
    R8        2.71782   0.00046   0.00000   0.00199   0.00199   2.71981
    R9        2.06051  -0.00001   0.00000  -0.00001  -0.00001   2.06050
   R10        2.05926  -0.00000   0.00000  -0.00002  -0.00002   2.05924
   R11        2.06036   0.00001   0.00000   0.00004   0.00004   2.06040
   R12        2.68001   0.00034   0.00000   0.00082   0.00081   2.68082
    A1        1.99851  -0.00001   0.00000  -0.00026  -0.00026   1.99825
    A2        1.93867   0.00009   0.00000  -0.00013  -0.00013   1.93855
    A3        2.06547  -0.00004   0.00000  -0.00100  -0.00100   2.06447
    A4        1.84009   0.00002   0.00000   0.00289   0.00289   1.84298
    A5        2.02592   0.00002   0.00000   0.00048   0.00049   2.02641
    A6        1.51556  -0.00007   0.00000  -0.00164  -0.00164   1.51393
    A7        2.33841   0.00027   0.00000   0.00285   0.00285   2.34126
    A8        1.90040   0.00002   0.00000   0.00015   0.00015   1.90055
    A9        2.02403  -0.00002   0.00000   0.00038   0.00038   2.02442
   A10        1.80559   0.00006   0.00000   0.00169   0.00169   1.80728
   A11        1.93851  -0.00001   0.00000  -0.00052  -0.00052   1.93799
   A12        1.90138  -0.00008   0.00000  -0.00082  -0.00082   1.90056
   A13        1.88654   0.00004   0.00000  -0.00084  -0.00084   1.88569
   A14        1.92008   0.00001   0.00000  -0.00002  -0.00002   1.92005
   A15        1.93130   0.00002   0.00000   0.00034   0.00034   1.93164
   A16        1.92853  -0.00000   0.00000  -0.00020  -0.00020   1.92833
   A17        1.89774  -0.00001   0.00000  -0.00002  -0.00002   1.89773
   A18        1.88741  -0.00001   0.00000  -0.00008  -0.00008   1.88733
   A19        1.89787  -0.00001   0.00000  -0.00003  -0.00003   1.89784
   A20        1.65290  -0.00037   0.00000  -0.00129  -0.00130   1.65160
   A21        1.79956   0.00020   0.00000   0.00185   0.00184   1.80140
    D1        2.29158  -0.00001   0.00000   0.00110   0.00110   2.29268
    D2       -1.81731   0.00005   0.00000   0.00260   0.00261  -1.81470
    D3        0.21070   0.00005   0.00000   0.00286   0.00287   0.21356
    D4       -0.48040  -0.00001   0.00000   0.00280   0.00280  -0.47760
    D5        1.72049  -0.00003   0.00000   0.00252   0.00252   1.72301
    D6       -2.50075   0.00004   0.00000   0.00283   0.00283  -2.49792
    D7       -2.95985   0.00004   0.00000   0.00404   0.00404  -2.95581
    D8       -0.75896   0.00002   0.00000   0.00376   0.00376  -0.75520
    D9        1.30299   0.00009   0.00000   0.00407   0.00407   1.30706
   D10        1.47957   0.00004   0.00000   0.00158   0.00158   1.48114
   D11       -2.60273   0.00003   0.00000   0.00130   0.00130  -2.60143
   D12       -0.54078   0.00010   0.00000   0.00161   0.00161  -0.53917
   D13        0.23517  -0.00010   0.00000  -0.00528  -0.00528   0.22989
   D14       -1.11918   0.00002   0.00000  -0.00315  -0.00315  -1.12233
   D15        0.97819   0.00002   0.00000  -0.00297  -0.00297   0.97522
   D16        3.08123   0.00003   0.00000  -0.00291  -0.00291   3.07832
   D17        1.06232   0.00002   0.00000  -0.00308  -0.00308   1.05924
   D18       -3.12350   0.00002   0.00000  -0.00290  -0.00290  -3.12640
   D19       -1.02046   0.00002   0.00000  -0.00284  -0.00284  -1.02330
   D20       -3.13594  -0.00006   0.00000  -0.00492  -0.00492  -3.14086
   D21       -1.03857  -0.00006   0.00000  -0.00474  -0.00474  -1.04331
   D22        1.06447  -0.00006   0.00000  -0.00468  -0.00468   1.05979
   D23        0.76446   0.00001   0.00000  -0.00309  -0.00310   0.76136
   D24       -1.25520  -0.00000   0.00000  -0.00375  -0.00375  -1.25895
   D25        2.91975   0.00003   0.00000  -0.00214  -0.00214   2.91761
   D26       -0.57979   0.00017   0.00000   0.00517   0.00516  -0.57463
         Item               Value     Threshold  Converged?
 Maximum Force            0.000494     0.000450     NO 
 RMS     Force            0.000138     0.000300     YES
 Maximum Displacement     0.005608     0.001800     NO 
 RMS     Displacement     0.001921     0.001200     NO 
 Predicted change in Energy=-3.938503D-06
 GradGradGradGradGradGradGradGradGradGradGradGradGradGradGradGradGradGrad

                          Input orientation:                          
 ---------------------------------------------------------------------
 Center     Atomic      Atomic             Coordinates (Angstroms)
 Number     Number       Type             X           Y           Z
 ---------------------------------------------------------------------
      1          6           0        0.117478    1.379046   -0.118646
      2          1           0        0.057860    2.230535    0.550307
      3          1           0       -0.067606    1.613345   -1.163998
      4          1           0        1.368927    0.809088   -0.083368
      5          6           0       -0.413196    0.034871    0.372487
      6          1           0       -0.335690    0.000544    1.463860
      7          6           0       -1.809578   -0.335413   -0.085723
      8          1           0       -2.535289    0.368217    0.323118
      9          1           0       -1.875918   -0.314250   -1.173197
     10          1           0       -2.072779   -1.334763    0.261861
     11          8           0        1.773131   -0.316926    0.035495
     12          8           0        0.507774   -0.917251   -0.190325
 ---------------------------------------------------------------------
                    Distance matrix (angstroms):
                    1          2          3          4          5
     1  C    0.000000
     2  H    1.084475   0.000000
     3  H    1.087158   1.826337   0.000000
     4  H    1.375581   2.034933   1.969319   0.000000
     5  C    1.526314   2.252655   2.229753   1.995790   0.000000
     6  H    2.147080   2.441786   3.094937   2.439954   1.094660
     7  C    2.579534   3.236656   2.827508   3.378281   1.515568
     8  H    2.872995   3.200667   3.138681   3.950000   2.148682
     9  H    2.820098   3.631239   2.643048   3.602588   2.156520
    10  H    3.508100   4.163433   3.839939   4.069474   2.154611
    11  O    2.375135   3.113959   2.924558   1.202254   2.239945
    12  O    2.330332   3.264890   2.771825   1.932167   1.439263
                    6          7          8          9         10
     6  H    0.000000
     7  C    2.164813   0.000000
     8  H    2.504937   1.090368   0.000000
     9  H    3.070092   1.089702   1.771860   0.000000
    10  H    2.499064   1.090317   1.765732   1.771890   0.000000
    11  O    2.566738   3.584807   4.372029   3.844022   3.984753
    12  O    2.071257   2.391567   3.343095   2.647950   2.652930
                   11         12
    11  O    0.000000
    12  O    1.418631   0.000000
 Stoichiometry    C3H7O2(2)
 Framework group  C1[X(C3H7O2)]
 Deg. of freedom    30
 Full point group                 C1      NOp   1
 Largest Abelian subgroup         C1      NOp   1
 Largest concise Abelian subgroup C1      NOp   1
                         Standard orientation:                         
 ---------------------------------------------------------------------
 Center     Atomic      Atomic             Coordinates (Angstroms)
 Number     Number       Type             X           Y           Z
 ---------------------------------------------------------------------
      1          6           0        0.107902    1.380235   -0.117394
      2          1           0        0.044709    2.231466    0.551560
      3          1           0       -0.078164    1.613755   -1.162745
      4          1           0        1.361734    0.815538   -0.082115
      5          6           0       -0.417122    0.033843    0.373739
      6          1           0       -0.339473   -0.000158    1.465112
      7          6           0       -1.811936   -0.342302   -0.084470
      8          1           0       -2.540596    0.358274    0.324370
      9          1           0       -1.878365   -0.321418   -1.171945
     10          1           0       -2.070937   -1.342749    0.263113
     11          8           0        1.770664   -0.308768    0.036747
     12          8           0        0.507839   -0.914402   -0.189072
 ---------------------------------------------------------------------
 Rotational constants (GHZ):           8.8442705           4.2127562           3.1334851
 Standard basis: CC-pVTZ+d (5D, 7F)
 There are   280 symmetry adapted cartesian basis functions of A   symmetry.
 There are   248 symmetry adapted basis functions of A   symmetry.
   248 basis functions,   379 primitive gaussians,   280 cartesian basis functions
    21 alpha electrons       20 beta electrons
       nuclear repulsion energy       189.2665568605 Hartrees.
 NAtoms=   12 NActive=   12 NUniq=   12 SFac= 1.00D+00 NAtFMM=   60 NAOKFM=F Big=F
 Integral buffers will be    131072 words long.
 Raffenetti 2 integral format.
 Two-electron integral symmetry is turned on.
 One-electron integrals computed using PRISM.
 NBasis=   248 RedAO= T EigKep=  7.07D-04  NBF=   248
 NBsUse=   248 1.00D-06 EigRej= -1.00D+00 NBFU=   248
 Initial guess from the checkpoint file:  "RisopO2-H-shift-TS3-b3lyp-c.chk"
 B after Tr=    -0.000000   -0.000000    0.000000
         Rot=    1.000000    0.000056   -0.000026   -0.000629 Ang=   0.07 deg.
 Initial guess <Sx>= 0.0000 <Sy>= 0.0000 <Sz>= 0.5000 <S**2>= 0.7587 S= 0.5043
 Keep R1 and R2 ints in memory in canonical form, NReq=980075672.
 Requested convergence on RMS density matrix=1.00D-08 within 128 cycles.
 Requested convergence on MAX density matrix=1.00D-06.
 Requested convergence on             energy=1.00D-06.
 No special actions if energy rises.
 SCF Done:  E(UB3LYP) =  -268.896903796     A.U. after   12 cycles
            NFock= 12  Conv=0.35D-08     -V/T= 2.0064
 <Sx>= 0.0000 <Sy>= 0.0000 <Sz>= 0.5000 <S**2>= 0.7587 S= 0.5043
 <L.S>= 0.000000000000E+00
 Annihilation of the first spin contaminant:
 S**2 before annihilation     0.7587,   after     0.7500
 Calling FoFJK, ICntrl=      2127 FMM=F ISym2X=0 I1Cent= 0 IOpClX= 1 NMat=1 NMatS=1 NMatT=0.
 ***** Axes restored to original set *****
 -------------------------------------------------------------------
 Center     Atomic                   Forces (Hartrees/Bohr)
 Number     Number              X              Y              Z
 -------------------------------------------------------------------
      1        6          -0.000033742    0.000016200   -0.000006535
      2        1           0.000006837    0.000007774   -0.000005840
      3        1           0.000005032   -0.000005312   -0.000005126
      4        1           0.000078115   -0.000074308    0.000019970
      5        6           0.000004801   -0.000067401    0.000009068
      6        1           0.000004095    0.000005548    0.000002479
      7        6          -0.000003875    0.000015297   -0.000001373
      8        1          -0.000002526    0.000000359    0.000000084
      9        1           0.000002042   -0.000004030    0.000000184
     10        1           0.000005498    0.000001507    0.000003337
     11        8           0.000023627    0.000136704   -0.000003431
     12        8          -0.000089904   -0.000032339   -0.000012818
 -------------------------------------------------------------------
 Cartesian Forces:  Max     0.000136704 RMS     0.000036233

 GradGradGradGradGradGradGradGradGradGradGradGradGradGradGradGradGradGrad
 Berny optimization.
 FormGI is forming the generalized inverse of G from B-inverse, IUseBI=4.
 Internal  Forces:  Max     0.000090558 RMS     0.000018763
 Search for a saddle point.
 Step number   3 out of a maximum of   69
 All quantities printed in internal units (Hartrees-Bohrs-Radians)
 Swapping is turned off.
 Update second derivatives using D2CorX and points    1    2    3
 ITU=  0  0  0
     Eigenvalues ---   -0.12797   0.00195   0.00312   0.01041   0.02625
     Eigenvalues ---    0.03048   0.03530   0.04389   0.04441   0.04925
     Eigenvalues ---    0.06713   0.07133   0.08537   0.09056   0.10526
     Eigenvalues ---    0.12446   0.13662   0.14410   0.16313   0.20072
     Eigenvalues ---    0.22668   0.28054   0.29071   0.31370   0.33183
     Eigenvalues ---    0.33343   0.33404   0.34065   0.34290   0.34879
 Eigenvectors required to have negative eigenvalues:
                          R5        R3        R12       A6        D8
   1                    0.74858  -0.56713  -0.24046   0.08149   0.07947
                          D9        A20       R8        D4        D7
   1                    0.07871  -0.07638   0.07519  -0.05998   0.05935
 RFO step:  Lambda0=9.582656897D-08 Lambda=-8.35841990D-08.
 Linear search not attempted -- option 19 set.
 Iteration  1 RMS(Cart)=  0.00030268 RMS(Int)=  0.00000009
 Iteration  2 RMS(Cart)=  0.00000008 RMS(Int)=  0.00000003
 Variable       Old X    -DE/DX   Delta X   Delta X   Delta X     New X
                                 (Linear)    (Quad)   (Total)
    R1        2.04936   0.00000   0.00000   0.00002   0.00002   2.04938
    R2        2.05443   0.00000   0.00000   0.00001   0.00001   2.05444
    R3        2.59947   0.00003   0.00000  -0.00072  -0.00072   2.59875
    R4        2.88431   0.00003   0.00000   0.00012   0.00012   2.88443
    R5        2.27193  -0.00009   0.00000   0.00052   0.00052   2.27245
    R6        2.06861   0.00000   0.00000   0.00000   0.00000   2.06861
    R7        2.86401  -0.00000   0.00000  -0.00002  -0.00002   2.86399
    R8        2.71981  -0.00003   0.00000  -0.00007  -0.00007   2.71975
    R9        2.06050   0.00000   0.00000   0.00000   0.00000   2.06050
   R10        2.05924   0.00000   0.00000   0.00000   0.00000   2.05924
   R11        2.06040  -0.00000   0.00000  -0.00000  -0.00000   2.06039
   R12        2.68082   0.00008   0.00000   0.00011   0.00011   2.68094
    A1        1.99825  -0.00000   0.00000  -0.00006  -0.00006   1.99819
    A2        1.93855  -0.00002   0.00000   0.00011   0.00011   1.93866
    A3        2.06447   0.00001   0.00000   0.00009   0.00009   2.06456
    A4        1.84298  -0.00000   0.00000  -0.00007  -0.00007   1.84291
    A5        2.02641  -0.00001   0.00000  -0.00018  -0.00018   2.02622
    A6        1.51393   0.00001   0.00000   0.00019   0.00019   1.51412
    A7        2.34126  -0.00001   0.00000  -0.00019  -0.00019   2.34107
    A8        1.90055  -0.00000   0.00000   0.00001   0.00001   1.90056
    A9        2.02442  -0.00000   0.00000  -0.00008  -0.00008   2.02433
   A10        1.80728  -0.00001   0.00000  -0.00018  -0.00018   1.80710
   A11        1.93799   0.00000   0.00000   0.00007   0.00007   1.93807
   A12        1.90056   0.00001   0.00000   0.00005   0.00005   1.90060
   A13        1.88569   0.00001   0.00000   0.00012   0.00012   1.88581
   A14        1.92005   0.00000   0.00000  -0.00000  -0.00000   1.92005
   A15        1.93164  -0.00000   0.00000  -0.00004  -0.00004   1.93160
   A16        1.92833  -0.00001   0.00000   0.00003   0.00003   1.92836
   A17        1.89773   0.00000   0.00000   0.00001   0.00001   1.89773
   A18        1.88733   0.00000   0.00000   0.00001   0.00001   1.88734
   A19        1.89784   0.00000   0.00000   0.00000   0.00000   1.89784
   A20        1.65160   0.00002   0.00000   0.00006   0.00006   1.65166
   A21        1.80140  -0.00002   0.00000  -0.00009  -0.00009   1.80131
    D1        2.29268   0.00001   0.00000   0.00086   0.00086   2.29354
    D2       -1.81470  -0.00000   0.00000   0.00081   0.00081  -1.81389
    D3        0.21356  -0.00000   0.00000   0.00067   0.00067   0.21423
    D4       -0.47760  -0.00000   0.00000  -0.00073  -0.00073  -0.47833
    D5        1.72301  -0.00000   0.00000  -0.00068  -0.00068   1.72233
    D6       -2.49792  -0.00000   0.00000  -0.00070  -0.00070  -2.49862
    D7       -2.95581  -0.00000   0.00000  -0.00048  -0.00048  -2.95629
    D8       -0.75520  -0.00000   0.00000  -0.00043  -0.00043  -0.75563
    D9        1.30706  -0.00001   0.00000  -0.00045  -0.00045   1.30661
   D10        1.48114  -0.00001   0.00000  -0.00048  -0.00048   1.48066
   D11       -2.60143  -0.00001   0.00000  -0.00044  -0.00044  -2.60187
   D12       -0.53917  -0.00001   0.00000  -0.00045  -0.00045  -0.53962
   D13        0.22989   0.00000   0.00000  -0.00055  -0.00055   0.22934
   D14       -1.12233  -0.00000   0.00000   0.00053   0.00053  -1.12180
   D15        0.97522   0.00000   0.00000   0.00051   0.00051   0.97573
   D16        3.07832  -0.00000   0.00000   0.00050   0.00050   3.07882
   D17        1.05924  -0.00000   0.00000   0.00054   0.00054   1.05977
   D18       -3.12640  -0.00000   0.00000   0.00052   0.00052  -3.12588
   D19       -1.02330  -0.00001   0.00000   0.00051   0.00051  -1.02279
   D20       -3.14086   0.00001   0.00000   0.00071   0.00071  -3.14015
   D21       -1.04331   0.00001   0.00000   0.00069   0.00069  -1.04262
   D22        1.05979   0.00001   0.00000   0.00069   0.00069   1.06048
   D23        0.76136  -0.00001   0.00000   0.00018   0.00018   0.76154
   D24       -1.25895  -0.00001   0.00000   0.00023   0.00023  -1.25872
   D25        2.91761  -0.00002   0.00000   0.00005   0.00005   2.91766
   D26       -0.57463  -0.00001   0.00000   0.00006   0.00006  -0.57458
         Item               Value     Threshold  Converged?
 Maximum Force            0.000091     0.000450     YES
 RMS     Force            0.000019     0.000300     YES
 Maximum Displacement     0.000766     0.001800     YES
 RMS     Displacement     0.000303     0.001200     YES
 Predicted change in Energy= 6.121386D-09
 Optimization completed.
    -- Stationary point found.
                           ----------------------------
                           !   Optimized Parameters   !
                           ! (Angstroms and Degrees)  !
 --------------------------                            --------------------------
 ! Name  Definition              Value          Derivative Info.                !
 --------------------------------------------------------------------------------
[...]
 Maximum Force            0.000091     0.000450     YES
 RMS     Force            0.000019     0.000300     YES
 Maximum Displacement     0.000800     0.001800     YES
 RMS     Displacement     0.000295     0.001200     YES
 Predicted change in Energy= 3.666758D-09
 Optimization completed.
    -- Stationary point found.
                           ----------------------------
                           !   Optimized Parameters   !
                           ! (Angstroms and Degrees)  !
 --------------------------                            --------------------------
 ! Name  Definition              Value          Derivative Info.                !
 --------------------------------------------------------------------------------
 ! R1    R(1,2)                  1.0845         -DE/DX =    0.0                 !
 ! R2    R(1,3)                  1.0872         -DE/DX =    0.0                 !
 ! R3    R(1,4)                  1.3756         -DE/DX =    0.0                 !
 ! R4    R(1,5)                  1.5263         -DE/DX =    0.0                 !
 ! R5    R(4,11)                 1.2023         -DE/DX =   -0.0001              !
 ! R6    R(5,6)                  1.0947         -DE/DX =    0.0                 !
 ! R7    R(5,7)                  1.5156         -DE/DX =    0.0                 !
 ! R8    R(5,12)                 1.4393         -DE/DX =    0.0                 !
 ! R9    R(7,8)                  1.0904         -DE/DX =    0.0                 !
 ! R10   R(7,9)                  1.0897         -DE/DX =    0.0                 !
 ! R11   R(7,10)                 1.0903         -DE/DX =    0.0                 !
 ! R12   R(11,12)                1.4186         -DE/DX =    0.0001              !
 ! A1    A(2,1,3)              114.4911         -DE/DX =    0.0                 !
 ! A2    A(2,1,4)              111.0705         -DE/DX =    0.0                 !
 ! A3    A(2,1,5)              118.2856         -DE/DX =    0.0                 !
 ! A4    A(3,1,4)              105.5952         -DE/DX =    0.0                 !
 ! A5    A(3,1,5)              116.1045         -DE/DX =    0.0                 !
 ! A6    A(4,1,5)               86.7416         -DE/DX =    0.0                 !
 ! A7    A(1,4,11)             134.1442         -DE/DX =    0.0                 !
 ! A8    A(1,5,6)              108.8935         -DE/DX =    0.0                 !
 ! A9    A(1,5,7)              115.9904         -DE/DX =    0.0                 !
 ! A10   A(1,5,12)             103.5494         -DE/DX =    0.0                 !
 ! A11   A(6,5,7)              111.0389         -DE/DX =    0.0                 !
 ! A12   A(6,5,12)             108.8939         -DE/DX =    0.0                 !
 ! A13   A(7,5,12)             108.0421         -DE/DX =    0.0                 !
 ! A14   A(5,7,8)              110.0109         -DE/DX =    0.0                 !
 ! A15   A(5,7,9)              110.6749         -DE/DX =    0.0                 !
 ! A16   A(5,7,10)             110.4854         -DE/DX =    0.0                 !
 ! A17   A(8,7,9)              108.7317         -DE/DX =    0.0                 !
 ! A18   A(8,7,10)             108.1361         -DE/DX =    0.0                 !
 ! A19   A(9,7,10)             108.7382         -DE/DX =    0.0                 !
 ! A20   A(4,11,12)             94.6299         -DE/DX =    0.0                 !
 ! A21   A(5,12,11)            103.2126         -DE/DX =    0.0                 !
 ! D1    D(2,1,4,11)           131.3607         -DE/DX =    0.0                 !
 ! D2    D(3,1,4,11)          -103.9746         -DE/DX =    0.0                 !
 ! D3    D(5,1,4,11)            12.2363         -DE/DX =    0.0                 !
 ! D4    D(2,1,5,6)            -27.3645         -DE/DX =    0.0                 !
 ! D5    D(2,1,5,7)             98.721          -DE/DX =    0.0                 !
 ! D6    D(2,1,5,12)          -143.1202         -DE/DX =    0.0                 !
 ! D7    D(3,1,5,6)           -169.3554         -DE/DX =    0.0                 !
 ! D8    D(3,1,5,7)            -43.2698         -DE/DX =    0.0                 !
 ! D9    D(3,1,5,12)            74.889          -DE/DX =    0.0                 !
 ! D10   D(4,1,5,6)             84.8633         -DE/DX =    0.0                 !
 ! D11   D(4,1,5,7)           -149.0511         -DE/DX =    0.0                 !
 ! D12   D(4,1,5,12)           -30.8923         -DE/DX =    0.0                 !
 ! D13   D(1,4,11,12)           13.1719         -DE/DX =    0.0                 !
 ! D14   D(1,5,7,8)            -64.3046         -DE/DX =    0.0                 !
 ! D15   D(1,5,7,9)             55.8761         -DE/DX =    0.0                 !
 ! D16   D(1,5,7,10)           176.3748         -DE/DX =    0.0                 !
 ! D17   D(6,5,7,8)             60.6898         -DE/DX =    0.0                 !
 ! D18   D(6,5,7,9)           -179.1295         -DE/DX =    0.0                 !
 ! D19   D(6,5,7,10)           -58.6309         -DE/DX =    0.0                 !
 ! D20   D(12,5,7,8)          -179.958          -DE/DX =    0.0                 !
 ! D21   D(12,5,7,9)           -59.7773         -DE/DX =    0.0                 !
 ! D22   D(12,5,7,10)           60.7214         -DE/DX =    0.0                 !
 ! D23   D(1,5,12,11)           43.6228         -DE/DX =    0.0                 !
 ! D24   D(6,5,12,11)          -72.1326         -DE/DX =    0.0                 !
 ! D25   D(7,5,12,11)          167.1668         -DE/DX =    0.0                 !
 ! D26   D(4,11,12,5)          -32.924          -DE/DX =    0.0                 !
 --------------------------------------------------------------------------------
 GradGradGradGradGradGradGradGradGradGradGradGradGradGradGradGradGradGrad


 ----------------------------------------------------------------------

 Electric dipole moment (input orientation):
 (Debye = 10**-18 statcoulomb cm , SI units = C m)
                  (au)            (Debye)         (10**-30 SI)
   Tot        0.124572D+01      0.316629D+01      0.105616D+02
   x         -0.932831D+00     -0.237102D+01     -0.790887D+01
   y          0.804073D+00      0.204375D+01      0.681721D+01
   z          0.187349D+00      0.476193D+00      0.158841D+01

 Dipole polarizability, Alpha (input orientation).
 (esu units = cm**3 , SI units = C**2 m**2 J**-1)
 Alpha(0;0):
               (au)            (10**-24 esu)      (10**-40 SI)
   iso        0.508129D+02      0.752969D+01      0.837791D+01
   aniso      0.175502D+02      0.260067D+01      0.289364D+01
   xx         0.561734D+02      0.832404D+01      0.926174D+01
   yx        -0.332828D+01     -0.493201D+00     -0.548760D+00
   yy         0.563165D+02      0.834524D+01      0.928534D+01
   zx         0.559476D+00      0.829058D-01      0.922451D-01
   zy        -0.165904D+01     -0.245845D+00     -0.273539D+00
   zz         0.399488D+02      0.591980D+01      0.658666D+01

 ----------------------------------------------------------------------

 Dipole orientation:
     6          1.04083706          1.90020621          1.48214819
     1          2.60578926          2.06323464          2.79524534
     1         -0.43166701          3.31074246          1.73275305
     1          1.85037027          2.16381878         -0.97394941
     6          0.15456729         -0.74038687          0.73310499
     1          1.74677156         -2.05144010          0.89172925
     6         -2.14036951         -1.73650249          2.12722284
     1         -1.70607426         -1.96328730          4.12862351
     1         -3.72669462         -0.43720615          1.93785031
     1         -2.69691446         -3.57400069          1.37948930
     8          1.51604253          0.98254571         -2.88562177
     8         -0.50578296         -0.47027647         -1.89146361

 Electric dipole moment (dipole orientation):
 (Debye = 10**-18 statcoulomb cm , SI units = C m)
                  (au)            (Debye)         (10**-30 SI)
   Tot        0.124572D+01      0.316629D+01      0.105616D+02
   x          0.000000D+00      0.000000D+00      0.000000D+00
   y          0.000000D+00      0.000000D+00      0.000000D+00
   z          0.124572D+01      0.316629D+01      0.105616D+02

 Dipole polarizability, Alpha (dipole orientation).
 (esu units = cm**3 , SI units = C**2 m**2 J**-1)
 Alpha(0;0):
               (au)            (10**-24 esu)      (10**-40 SI)
   iso        0.508129D+02      0.752969D+01      0.837791D+01
   aniso      0.175502D+02      0.260067D+01      0.289364D+01
   xx         0.450527D+02      0.667612D+01      0.742818D+01
   yx         0.585329D+01      0.867368D+00      0.965077D+00
   yy         0.487506D+02      0.722409D+01      0.803789D+01
   zx        -0.301969D+01     -0.447473D+00     -0.497880D+00
   zy         0.315883D+01      0.468090D+00      0.520820D+00
   zz         0.586354D+02      0.868886D+01      0.966766D+01

 ----------------------------------------------------------------------
 1\1\GINC-CNODE0429\Freq\UB3LYP\CC-pVTZ+d\C3H7O2(2)\KOTUKILE\28-Mar-202
 2\0\\#N Geom=AllCheck Guess=TCheck SCRF=Check GenChk UB3LYP/CC-pVTZ+d 
 Freq\\RisopO2-H-shift-TS3-b3lyp-c\\0,2\C,0.1174776164,1.3790458466,-0.
 1186462217\H,0.0578604248,2.2305345364,0.5503069657\H,-0.0676055387,1.
 6133449817,-1.1639977948\H,1.3689272349,0.8090876961,-0.0833677155\C,-
 0.4131963432,0.0348706606,0.3724866939\H,-0.3356904687,0.0005435432,1.
 4638595887\C,-1.80957768,-0.3354128802,-0.0857229054\H,-2.5352892681,0
 .368216856,0.3231175441\H,-1.8759184761,-0.3142495099,-1.1731974253\H,
 -2.0727786638,-1.3347632758,0.2618607156\O,1.7731314491,-0.3169256979,
 0.0354945752\O,0.5077737132,-0.9172507568,-0.1903250205\\Version=ES64L
 -G16RevB.01\State=2-A\HF=-268.8969038\S2=0.758679\S2-1=0.\S2A=0.750036
 \RMSD=1.023e-09\RMSF=3.623e-05\ZeroPoint=0.0927856\Thermal=0.0983869\D
 ipole=-0.9328313,0.8040729,0.1873486\DipoleDeriv=0.1293363,-0.7204791,
 0.1222388,-0.1259188,0.099281,0.0429051,0.039834,0.1562577,0.103239,0.
 0893966,0.1177061,0.0108952,-0.0117711,-0.0329407,-0.0419545,0.0106856
 ,-0.0692519,0.0001193,0.0240739,0.1815053,-0.0857399,-0.0205739,-0.000
 911,0.0131146,-0.0063872,0.0181317,-0.0644623,-0.0466307,0.5732956,-0.
 1086005,0.3087901,-0.6134026,0.1081107,0.0129892,-0.0219681,0.1380443,
 0.4140295,0.2031717,-0.0895059,0.1422927,0.0834743,0.0849609,-0.090092
 2,-0.1041481,0.3801732,-0.0357324,-0.0136985,-0.0406371,0.0007111,0.01
 38698,0.012328,0.0261999,0.0121561,-0.1805144,-0.070216,-0.046514,-0.0
 172482,-0.1376159,0.1650104,-0.0141469,0.0189115,-0.0058678,0.0857823,
 -0.0041975,0.0231383,0.0302509,0.0914435,-0.0160622,-0.0533818,0.03551
 08,-0.0530618,0.0423441,0.0448909,-0.0068255,0.0247727,-0.011694,0.054
 11,0.0187856,-0.0404546,0.0002989,-0.1105008,0.0113789,0.0005198,-0.00
 58911,-0.0840946,-0.0680612,0.0475965,-0.0208784,0.0574172,0.0525505,-
 0.4871791,0.4588327,-0.016882,-0.2431457,0.8323053,-0.160022,-0.071522
 2,0.0606145,-0.2035624,-0.0691503,-0.7706525,0.1763473,0.0915765,-0.51
 66732,-0.0582962,0.0852037,-0.0505783,-0.2432129\Polar=56.1733815,-3.3
 282842,56.3164993,0.559476,-1.6590423,39.9487696\Quadrupole=-1.1508498
 ,0.5155507,0.6352991,1.572689,-0.0298704,-0.3214494\PG=C01 [X(C3H7O2)]
 \NImag=1\\0.12592603,0.02259566,0.51460499,0.03034428,0.04766578,0.585
 44090,-0.02577827,0.01417456,0.01479000,0.02222311,0.00718333,-0.22328
 111,-0.13564274,-0.01088584,0.23365675,0.01012547,-0.13634966,-0.16239
 926,-0.01190024,0.14691185,0.16540579,-0.02961462,0.00818384,-0.059215
 57,0.00314136,-0.00019559,0.00306749,0.03237067,0.00383961,-0.06583931
 ,0.05548584,-0.00469991,0.00797643,-0.02227137,-0.00558708,0.06103321,
 -0.04720891,0.05349021,-0.30332102,-0.00438061,0.00574600,-0.01237739,
 0.05214919,-0.06164006,0.32234972,0.05457963,-0.02100754,-0.00763250,-
 0.00564717,-0.00156077,-0.00075057,-0.01476736,0.00271785,0.00222576,0
 .00202919,-0.12544460,0.02933210,0.00271942,0.01492875,-0.00124882,0.0
 0114108,0.01707289,-0.00296633,-0.00317350,0.13421148,-0.05901564,0.00
 651569,-0.00625335,-0.02381966,0.00752936,-0.00240144,-0.00074024,-0.0
 1157995,0.00419115,-0.00158996,-0.00408312,0.00861546,0.03768601,-0.04
 620671,-0.04635270,0.01441731,0.00210913,0.00525341,-0.00109857,-0.000
 09734,0.00575353,-0.00121176,-0.04040747,0.02483905,0.00702493,0.47291
 287,-0.04954771,-0.12896024,0.03351480,-0.00793558,-0.00739905,0.00793
 454,-0.00162866,-0.00075061,-0.00054101,0.00176179,-0.02389054,0.00127
 548,0.06862756,0.38643904,0.00331507,0.03336668,-0.10399264,-0.0049592
 8,-0.01713801,0.00832949,0.01401586,0.02587851,-0.00940712,0.01057352,
 -0.00734540,0.00228180,0.02960735,-0.01201734,0.58820026,0.00113503,-0
 .00348067,0.01183705,0.00039915,0.00023915,-0.00042658,0.00007582,-0.0
 0190011,0.00073868,0.00092834,-0.00060371,0.00067127,-0.05459574,-0.00
 173450,-0.02693305,0.05995488,0.00178165,-0.00562776,0.03130065,0.0004
 1882,0.00082628,-0.00068181,-0.00256652,-0.00449575,0.00181365,0.00060
 808,0.00133081,-0.00008911,-0.00297840,-0.04661548,0.01839874,-0.00093
 265,0.06053894,0.00004681,0.00324595,-0.01128310,-0.00032210,0.0005601
 6,0.00067538,0.00031321,0.00176624,0.00100695,-0.00167122,0.00169163,-
 0.00065796,-0.02311107,0.01789279,-0.29099142,0.01951084,-0.01067982,0
 .31926526,-0.01387633,-0.00849312,-0.00093050,-0.00057861,0.00040348,-
 0.00020092,0.00205055,0.00118231,-0.00070901,0.00105039,-0.00368951,0.
 00010336,-0.16173745,-0.02383602,-0.03461329,-0.00269029,-0.00204926,-
 0.00195078,0.48315596,-0.01854684,-0.00971571,-0.00787898,-0.00005510,
 -0.00120173,0.00027694,-0.00024629,0.00160714,-0.00044730,-0.00965208,
 0.00889774,0.00071420,-0.03939051,-0.08231678,-0.01037973,0.00038449,0
 .00098403,0.00055554,-0.02389198,0.55654526,0.00643230,0.00249447,0.00
 316849,-0.00021818,0.00070057,-0.00043110,0.00061695,0.00050504,0.0010
 9876,0.00225161,-0.00285698,-0.00010269,-0.03961444,-0.01177864,-0.098
 29052,-0.03150835,-0.00759932,-0.00764291,-0.02902418,-0.00706525,0.56
 523995,-0.00047463,0.00029774,0.00038917,-0.00014736,-0.00031410,-0.00
 001110,0.00021229,-0.00018585,0.00003083,0.00161141,-0.00135662,-0.000
 17091,-0.01704990,0.02106886,0.01421739,0.00110923,0.00003830,-0.00064
 587,-0.16118255,0.11279812,0.06435195,0.17645403,-0.00040114,0.0003156
 2,0.00021217,-0.00006706,0.00008061,-0.00006619,0.00008357,0.00001646,
 0.00003839,0.00049203,-0.00063109,0.00002324,-0.00563076,0.00489469,0.
 00436981,0.00060359,0.00029347,0.00022719,0.11361394,-0.15594284,-0.06
 528980,-0.12380975,0.16782731,-0.00000296,0.00007499,0.00020243,0.0000
 3909,-0.00002388,0.00007790,0.00003983,-0.00006457,-0.00008224,-0.0001
 3639,0.00007645,-0.00003318,-0.00603297,0.00885173,0.00304297,0.000704
 23,0.00028235,0.00011725,0.06544607,-0.06558029,-0.08382546,-0.0713007
 6,0.07191378,0.08700330,0.00150794,0.00149738,-0.00059368,0.00004658,0
 .00003951,0.00012983,0.00001727,-0.00040509,0.00066962,-0.00004270,0.0
 0022863,-0.00015383,-0.00344340,-0.00002391,-0.03471284,-0.00553545,-0
 .00127412,-0.00111600,-0.04767366,-0.00029287,-0.01076452,0.00162581,-
 0.00209189,0.02178195,0.05121648,0.00000570,0.00063926,-0.00138628,-0.
 00000494,0.00003081,0.00009038,0.00012589,-0.00009019,0.00030566,0.000
 49965,-0.00057557,-0.00003647,0.00029664,-0.00197455,-0.00955753,-0.00
 184684,0.00044628,-0.00033892,-0.00081783,-0.04814067,0.00728888,-0.00
 244197,0.00050037,-0.02110336,0.00206096,0.04714425,0.00061487,0.00043
 795,0.00113211,0.00015801,0.00001588,0.00015254,-0.00032961,-0.0007155
 0,0.00037801,0.00010438,0.00010028,-0.00003034,-0.00151575,-0.00029080
 ,-0.01250070,-0.00191179,-0.00068088,0.00112878,-0.01361391,0.00657567
 ,-0.30963147,-0.00051931,0.00063761,-0.01028626,0.01645168,-0.00640886
 ,0.33692171,-0.00159833,-0.00061426,-0.00249665,-0.00033741,-0.0005289
 7,0.00014347,-0.00041350,0.00020569,0.00006322,-0.00293991,0.00309526,
 0.00015530,-0.01015689,-0.02962872,0.01169825,0.00111758,0.00054166,-0
 .00008617,-0.05958618,-0.05569273,0.01890855,0.00590068,0.02010334,-0.
 00814913,-0.00040164,0.00191071,-0.00018979,0.06508788,-0.00080176,0.0
 0059140,-0.00109019,-0.00006977,-0.00008419,0.00005547,0.00001557,0.00
 010691,-0.00008500,-0.00049357,0.00048224,0.00016104,-0.00183716,-0.00
 692162,0.00231715,-0.00016542,0.00029909,-0.00047051,-0.05678117,-0.26
 713452,0.07840860,-0.00487846,-0.01820210,0.00675003,0.00072660,0.0008
 9623,-0.00008206,0.06353613,0.29003530,-0.00103313,0.00029765,0.000093
 36,0.00036381,-0.00002596,0.00010437,-0.00014438,-0.00028518,0.0002508
 1,-0.00080203,0.00088376,0.00007575,-0.00246873,-0.01120044,0.00290904
 ,0.00068905,-0.00032402,0.00039014,0.01899979,0.07857705,-0.07615095,-
 0.00381400,-0.01173310,0.00363491,0.00725757,0.02999343,-0.00878224,-0
 .01983246,-0.08587689,0.07716866,-0.01268846,0.01849738,-0.00894987,-0
 .00269244,-0.00146293,0.00002700,-0.00681303,0.00189883,0.00040505,-0.
 04195627,0.01706449,-0.00645284,-0.07654633,0.00023543,0.00020371,0.00
 407580,-0.00221901,-0.00094746,-0.00154828,0.00450750,0.00742237,-0.00
 160218,-0.00104390,-0.00144221,0.00018868,0.00064201,0.00013484,-0.001
 16424,-0.00070635,-0.00002082,0.30269380,0.15931121,-0.05012350,-0.004
 90194,-0.01030012,-0.00133982,-0.00209803,-0.01787152,0.00352089,0.003
 75409,-0.10037123,0.09467937,0.00004087,-0.01168446,0.02706833,0.01977
 043,0.00071931,0.00030708,-0.00139348,0.00390027,-0.01208392,0.0002049
 0,0.00304479,0.00064988,-0.00058357,-0.00036737,0.00070052,0.00004152,
 -0.00310762,-0.00057553,-0.00081772,-0.01479264,0.00194649,-0.00466948
 ,0.00510599,0.00174872,-0.00051136,-0.00012429,0.00007114,-0.00192391,
 0.00000420,0.00132635,-0.00308311,-0.00012180,-0.01665706,0.00929122,0
 .00978233,0.00837050,-0.00135401,0.00184962,0.00279762,0.00201849,-0.0
 0201669,0.00102766,0.00035170,-0.00000080,0.00072704,0.00089500,0.0000
 7964,0.00032824,-0.00054840,-0.00038210,-0.00008953,0.03503529,0.01236
 041,0.03321008,-0.05291128,0.01470173,0.00804097,0.00726193,0.00182933
 ,0.00089472,0.01383789,-0.00281978,-0.00277206,0.04556193,-0.08034611,
 0.00044074,-0.06478078,0.02264146,0.01758732,-0.00597435,0.00863147,0.
 00997980,-0.03738355,0.03007831,0.01114592,-0.00645683,-0.00185197,-0.
 00094675,0.00249410,-0.00042998,0.00061639,0.00449195,0.00145536,0.000
 80532,-0.16194705,-0.00848062,-0.03550144,0.25580604,0.00002489,-0.061
 93575,-0.01999853,0.00449620,-0.00801617,0.00505678,0.00261389,-0.0001
 1886,0.00073887,-0.00720569,-0.04639424,-0.00624108,0.00310381,-0.1195
 7319,-0.04766331,0.00871737,-0.00828699,-0.01305677,0.00045891,0.00850
 200,0.00498752,-0.00426106,0.00019763,-0.00059366,-0.00009784,0.000423
 25,0.00036919,0.00017952,0.00050678,0.00051142,-0.02262081,-0.06474979
 ,-0.02653651,0.01459080,0.29944535,-0.00448003,-0.00357669,0.01302968,
 -0.00058849,0.00142184,0.00113138,0.00299089,-0.00285431,0.00036714,0.
 00300368,-0.00173039,0.00358754,0.01471248,-0.04342346,-0.09795167,0.0
 2798265,-0.03359004,-0.01480600,-0.00552513,0.00666885,0.00554024,-0.0
 0287909,-0.00033231,-0.00057865,0.00015524,0.00107344,0.00118961,0.000
 33380,0.00029448,0.00039568,-0.02541506,-0.02637748,-0.03286076,-0.010
 29094,0.10242607,0.12095583\\0.00003372,-0.00001620,0.00000655,-0.0000
 0684,-0.00000777,0.00000584,-0.00000503,0.00000532,0.00000512,-0.00007
 809,0.00007428,-0.00001997,-0.00000477,0.00006737,-0.00000905,-0.00000
 410,-0.00000554,-0.00000250,0.00000388,-0.00001527,0.00000140,0.000002
 52,-0.00000036,-0.00000009,-0.00000205,0.00000403,-0.00000021,-0.00000
 550,-0.00000152,-0.00000333,-0.00002364,-0.00013669,0.00000342,0.00008
 989,0.00003237,0.00001283\\\@


     SCHOPENHAUER'S LAW OF ENTROPY
 IF YOU PUT A SPOONFUL OF WINE IN A BARREL FULL
 OF SEWAGE, YOU GET SEWAGE.
 IF YOU PUT A SPOONFUL OF SEWAGE IN A BARREL FULL
 OF WINE, YOU GET SEWAGE.
 Job cpu time:       0 days  0 hours  0 minutes 29.2 seconds.
 Elapsed time:       0 days  0 hours  2 minutes 31.8 seconds.
 File lengths (MBytes):  RWF=    113 Int=      0 D2E=      0 Chk=      8 Scr=      1
 Normal termination of Gaussian 16 at Mon Mar 28 21:07:48 2022.
