 Entering Gaussian System, Link 0=g16
 Input=Mol_03.com
 Output=Mol_03.log
 Initial command:
 /home/saurabh/g16/l1.exe "/scratch/saurabh/PBS_8053882.helios/Gau-33394.inp" -scrdir="/scratch/saurabh/PBS_8053882.helios/"
 Entering Link 1 = /home/saurabh/g16/l1.exe PID=     33395.
  
 Copyright (c) 1988-2019, Gaussian, Inc.  All Rights Reserved.
  
 This is part of the Gaussian(R) 16 program.  It is based on
 the Gaussian(R) 09 system (copyright 2009, Gaussian, Inc.),
 the Gaussian(R) 03 system (copyright 2003, Gaussian, Inc.),
 the Gaussian(R) 98 system (copyright 1998, Gaussian, Inc.),
 the Gaussian(R) 94 system (copyright 1995, Gaussian, Inc.),
 the Gaussian 92(TM) system (copyright 1992, Gaussian, Inc.),
 the Gaussian 90(TM) system (copyright 1990, Gaussian, Inc.),
 the Gaussian 88(TM) system (copyright 1988, Gaussian, Inc.),
 the Gaussian 86(TM) system (copyright 1986, Carnegie Mellon
 University), and the Gaussian 82(TM) system (copyright 1983,
 Carnegie Mellon University). Gaussian is a federally registered
 trademark of Gaussian, Inc.
  
 This software contains proprietary and confidential information,
 including trade secrets, belonging to Gaussian, Inc.
  
 This software is provided under written license and may be
 used, copied, transmitted, or stored only in accord with that
 written license.
  
 The following legend is applicable only to US Government
 contracts under FAR:
  
                    RESTRICTED RIGHTS LEGEND
  
 Use, reproduction and disclosure by the US Government is
 subject to restrictions as set forth in subparagraphs (a)
 and (c) of the Commercial Computer Software - Restricted
 Rights clause in FAR 52.227-19.
  
 Gaussian, Inc.
 340 Quinnipiac St., Bldg. 40, Wallingford CT 06492
  
  
 ---------------------------------------------------------------
 Warning -- This program may not be used in any manner that
 competes with the business of Gaussian, Inc. or will provide
 assistance to any competitor of Gaussian, Inc.  The licensee
 of this program is prohibited from giving any competitor of
 Gaussian, Inc. access to this program.  By using this program,
 the user acknowledges that Gaussian, Inc. is engaged in the
 business of creating and licensing software in the field of
 computational chemistry and represents and warrants to the
 licensee that it is not a competitor of Gaussian, Inc. and that
 it will not use this program in any manner prohibited above.
 ---------------------------------------------------------------
  

 Cite this work as:
 Gaussian 16, Revision C.01,
 M. J. Frisch, G. W. Trucks, H. B. Schlegel, G. E. Scuseria, 
 M. A. Robb, J. R. Cheeseman, G. Scalmani, V. Barone, 
 G. A. Petersson, H. Nakatsuji, X. Li, M. Caricato, A. V. Marenich, 
 J. Bloino, B. G. Janesko, R. Gomperts, B. Mennucci, H. P. Hratchian, 
 J. V. Ortiz, A. F. Izmaylov, J. L. Sonnenberg, D. Williams-Young, 
 F. Ding, F. Lipparini, F. Egidi, J. Goings, B. Peng, A. Petrone, 
 T. Henderson, D. Ranasinghe, V. G. Zakrzewski, J. Gao, N. Rega, 
 G. Zheng, W. Liang, M. Hada, M. Ehara, K. Toyota, R. Fukuda, 
 J. Hasegawa, M. Ishida, T. Nakajima, Y. Honda, O. Kitao, H. Nakai, 
 T. Vreven, K. Throssell, J. A. Montgomery, Jr., J. E. Peralta, 
 F. Ogliaro, M. J. Bearpark, J. J. Heyd, E. N. Brothers, K. N. Kudin, 
 V. N. Staroverov, T. A. Keith, R. Kobayashi, J. Normand, 
 K. Raghavachari, A. P. Rendell, J. C. Burant, S. S. Iyengar, 
 J. Tomasi, M. Cossi, J. M. Millam, M. Klene, C. Adamo, R. Cammi, 
 J. W. Ochterski, R. L. Martin, K. Morokuma, O. Farkas, 
 J. B. Foresman, and D. J. Fox, Gaussian, Inc., Wallingford CT, 2019.
 
 ******************************************
 Gaussian 16:  EM64L-G16RevC.01  3-Jul-2019
                 3-Apr-2022 
 ******************************************
 %mem=8gb
 %nproc=8
 Will use up to    8 processors via shared memory.
 %chk=Mol_03.chk
 ----------------------------------------------------------------------
 #p B3LYP/cc-PVTZ scf(verytight, maxcycles=1000) opt(calcfc, maxcyc=100
 0) freq(hpmodes) int(grid=ultrafine)
 ----------------------------------------------------------------------
 1/6=1000,10=4,18=20,19=15,26=4,38=1/1,3;
 2/9=110,12=2,17=6,18=5,40=1/2;
 3/5=16,6=1,11=2,25=1,30=1,71=2,74=-5,75=-5,140=1/1,2,3;
 4//1;
 5/5=2,7=1000,17=3,38=5/2;
 8/6=4,10=90,11=11/1;
 11/6=1,8=1,9=11,15=111,16=1/1,2,10;
 10/6=1,13=1/2;
 6/7=2,8=2,9=2,10=2,28=1/1;
 7/10=1,25=1/1,2,3,16;
 1/6=1000,10=4,18=20,19=15,26=4/3(2);
 2/9=110/2;
 99//99;
 2/9=110/2;
 3/5=16,6=1,11=2,25=1,30=1,71=1,74=-5,75=-5/1,2,3;
 4/5=5,16=3,69=1/1;
 5/5=2,7=1000,17=3,38=5/2;
 7//1,2,3,16;
 1/6=1000,18=20,19=15,26=4/3(-5);
 2/9=110/2;
 6/7=2,8=2,9=2,10=2,19=2,28=1/1;
 99/9=1/99;
 Leave Link    1 at Sun Apr  3 19:48:08 2022, MaxMem=  1073741824 cpu:               0.5 elap:               0.1
 (Enter /home/saurabh/g16/l101.exe)
 ------
 Mol_03
 ------
 Symbolic Z-matrix:
 Charge =  0 Multiplicity = 2
 C                    -0.0981    0.02384  -0.36059 
 C                    -1.20429   1.03272  -0.56569 
 C                    -1.01117   2.35787  -0.41999 
 C                     0.3106    2.95002   0.02364 
 C                     1.27896   1.88259   0.57398 
 C                     1.29264   0.67511  -0.34916 
 H                     2.05237  -0.0683   -0.02742 
 H                     1.55874   1.02079  -1.37248 
 H                     0.95184   1.54487   1.58268 
 H                    -1.836     3.03329  -0.62669 
 H                    -2.1921    0.67124  -0.8345 
 H                    -0.1064   -0.71893  -1.18653 
 H                    -0.30282  -0.51125   0.59138 
 O                     0.87666   3.62543  -1.07444 
 H                     0.09245   3.66306   0.85284 
 O                     1.76507   4.47177  -0.5844 
 H                     2.64476   4.0977   -0.84806 
 
 ITRead=  0  0  0  0  0  0  0  0  0  0  0  0  0  0  0  0  0
 MicOpt= -1 -1 -1 -1 -1 -1 -1 -1 -1 -1 -1 -1 -1 -1 -1 -1 -1
 NAtoms=     17 NQM=       17 NQMF=       0 NMMI=      0 NMMIF=      0
                NMic=       0 NMicF=      0.
                    Isotopes and Nuclear Properties:
 (Nuclear quadrupole moments (NQMom) in fm**2, nuclear magnetic moments (NMagM)
  in nuclear magnetons)

  Atom         1           2           3           4           5           6           7           8           9          10
 IAtWgt=          12          12          12          12          12          12           1           1           1           1
 AtmWgt=  12.0000000  12.0000000  12.0000000  12.0000000  12.0000000  12.0000000   1.0078250   1.0078250   1.0078250   1.0078250
 NucSpn=           0           0           0           0           0           0           1           1           1           1
 AtZEff=  -0.0000000  -0.0000000  -0.0000000  -0.0000000  -0.0000000  -0.0000000  -0.0000000  -0.0000000  -0.0000000  -0.0000000
 NQMom=    0.0000000   0.0000000   0.0000000   0.0000000   0.0000000   0.0000000   0.0000000   0.0000000   0.0000000   0.0000000
 NMagM=    0.0000000   0.0000000   0.0000000   0.0000000   0.0000000   0.0000000   2.7928460   2.7928460   2.7928460   2.7928460
 AtZNuc=   6.0000000   6.0000000   6.0000000   6.0000000   6.0000000   6.0000000   1.0000000   1.0000000   1.0000000   1.0000000

  Atom        11          12          13          14          15          16          17
 IAtWgt=           1           1           1          16           1          16           1
 AtmWgt=   1.0078250   1.0078250   1.0078250  15.9949146   1.0078250  15.9949146   1.0078250
 NucSpn=           1           1           1           0           1           0           1
 AtZEff=  -0.0000000  -0.0000000  -0.0000000  -0.0000000  -0.0000000  -0.0000000  -0.0000000
 NQMom=    0.0000000   0.0000000   0.0000000   0.0000000   0.0000000   0.0000000   0.0000000
 NMagM=    2.7928460   2.7928460   2.7928460   0.0000000   2.7928460   0.0000000   2.7928460
 AtZNuc=   1.0000000   1.0000000   1.0000000   8.0000000   1.0000000   8.0000000   1.0000000
 Leave Link  101 at Sun Apr  3 19:48:09 2022, MaxMem=  1073741824 cpu:               2.1 elap:               0.3
 (Enter /home/saurabh/g16/l103.exe)

 GradGradGradGradGradGradGradGradGradGradGradGradGradGradGradGradGradGrad
 Berny optimization.
 Initialization pass.
                           ----------------------------
                           !    Initial Parameters    !
                           ! (Angstroms and Degrees)  !
 --------------------------                            --------------------------
 ! Name  Definition              Value          Derivative Info.                !
 --------------------------------------------------------------------------------
 ! R1    R(1,2)                  1.5111         calculate D2E/DX2 analytically  !
 ! R2    R(1,6)                  1.5357         calculate D2E/DX2 analytically  !
 ! R3    R(1,12)                 1.1108         calculate D2E/DX2 analytically  !
 ! R4    R(1,13)                 1.1111         calculate D2E/DX2 analytically  !
 ! R5    R(2,3)                  1.3471         calculate D2E/DX2 analytically  !
 ! R6    R(2,11)                 1.0857         calculate D2E/DX2 analytically  !
 ! R7    R(3,4)                  1.5148         calculate D2E/DX2 analytically  !
 ! R8    R(3,10)                 1.0859         calculate D2E/DX2 analytically  !
 ! R9    R(4,5)                  1.5427         calculate D2E/DX2 analytically  !
 ! R10   R(4,14)                 1.408          calculate D2E/DX2 analytically  !
 ! R11   R(4,15)                 1.1152         calculate D2E/DX2 analytically  !
 ! R12   R(5,6)                  1.52           calculate D2E/DX2 analytically  !
 ! R13   R(5,9)                  1.1129         calculate D2E/DX2 analytically  !
 ! R14   R(6,7)                  1.1106         calculate D2E/DX2 analytically  !
 ! R15   R(6,8)                  1.1124         calculate D2E/DX2 analytically  !
 ! R16   R(14,16)                1.3212         calculate D2E/DX2 analytically  !
 ! R17   R(16,17)                0.9916         calculate D2E/DX2 analytically  !
 ! A1    A(2,1,6)              112.3829         calculate D2E/DX2 analytically  !
 ! A2    A(2,1,12)             109.8789         calculate D2E/DX2 analytically  !
 ! A3    A(2,1,13)             107.6337         calculate D2E/DX2 analytically  !
 ! A4    A(6,1,12)             107.21           calculate D2E/DX2 analytically  !
 ! A5    A(6,1,13)             111.3905         calculate D2E/DX2 analytically  !
 ! A6    A(12,1,13)            108.2795         calculate D2E/DX2 analytically  !
 ! A7    A(1,2,3)              122.4896         calculate D2E/DX2 analytically  !
 ! A8    A(1,2,11)             118.5126         calculate D2E/DX2 analytically  !
 ! A9    A(3,2,11)             118.9966         calculate D2E/DX2 analytically  !
 ! A10   A(2,3,4)              122.7744         calculate D2E/DX2 analytically  !
 ! A11   A(2,3,10)             118.8411         calculate D2E/DX2 analytically  !
 ! A12   A(4,3,10)             118.3845         calculate D2E/DX2 analytically  !
 ! A13   A(3,4,5)              112.4402         calculate D2E/DX2 analytically  !
 ! A14   A(3,4,14)             108.0553         calculate D2E/DX2 analytically  !
 ! A15   A(3,4,15)             107.2792         calculate D2E/DX2 analytically  !
 ! A16   A(5,4,14)             110.9633         calculate D2E/DX2 analytically  !
 ! A17   A(5,4,15)             107.4539         calculate D2E/DX2 analytically  !
 ! A18   A(14,4,15)            110.5994         calculate D2E/DX2 analytically  !
 ! A19   A(4,5,6)              109.794          calculate D2E/DX2 analytically  !
 ! A20   A(4,5,9)              110.4137         calculate D2E/DX2 analytically  !
 ! A21   A(6,5,9)              108.1831         calculate D2E/DX2 analytically  !
 ! A22   A(1,6,5)              109.4669         calculate D2E/DX2 analytically  !
 ! A23   A(1,6,7)              109.7418         calculate D2E/DX2 analytically  !
 ! A24   A(1,6,8)              109.9721         calculate D2E/DX2 analytically  !
 ! A25   A(5,6,7)              111.2211         calculate D2E/DX2 analytically  !
 ! A26   A(5,6,8)              108.2996         calculate D2E/DX2 analytically  !
 ! A27   A(7,6,8)              108.1119         calculate D2E/DX2 analytically  !
 ! A28   A(4,14,16)            106.7594         calculate D2E/DX2 analytically  !
 ! A29   A(14,16,17)           104.8479         calculate D2E/DX2 analytically  !
 ! D1    D(6,1,2,3)            -15.2809         calculate D2E/DX2 analytically  !
 ! D2    D(6,1,2,11)           165.1107         calculate D2E/DX2 analytically  !
 ! D3    D(12,1,2,3)          -134.5665         calculate D2E/DX2 analytically  !
 ! D4    D(12,1,2,11)           45.8252         calculate D2E/DX2 analytically  !
 ! D5    D(13,1,2,3)           107.7295         calculate D2E/DX2 analytically  !
 ! D6    D(13,1,2,11)          -71.8788         calculate D2E/DX2 analytically  !
 ! D7    D(2,1,6,5)             48.1701         calculate D2E/DX2 analytically  !
 ! D8    D(2,1,6,7)            170.4964         calculate D2E/DX2 analytically  !
 ! D9    D(2,1,6,8)            -70.6977         calculate D2E/DX2 analytically  !
 ! D10   D(12,1,6,5)           169.0029         calculate D2E/DX2 analytically  !
 ! D11   D(12,1,6,7)           -68.6708         calculate D2E/DX2 analytically  !
 ! D12   D(12,1,6,8)            50.1351         calculate D2E/DX2 analytically  !
 ! D13   D(13,1,6,5)           -72.7045         calculate D2E/DX2 analytically  !
 ! D14   D(13,1,6,7)            49.6217         calculate D2E/DX2 analytically  !
 ! D15   D(13,1,6,8)           168.4276         calculate D2E/DX2 analytically  !
 ! D16   D(1,2,3,4)             -2.9156         calculate D2E/DX2 analytically  !
 ! D17   D(1,2,3,10)           177.1942         calculate D2E/DX2 analytically  !
 ! D18   D(11,2,3,4)           176.691          calculate D2E/DX2 analytically  !
 ! D19   D(11,2,3,10)           -3.1993         calculate D2E/DX2 analytically  !
 ! D20   D(2,3,4,5)            -12.4981         calculate D2E/DX2 analytically  !
 ! D21   D(2,3,4,14)           110.3054         calculate D2E/DX2 analytically  !
 ! D22   D(2,3,4,15)          -130.4232         calculate D2E/DX2 analytically  !
 ! D23   D(10,3,4,5)           167.3927         calculate D2E/DX2 analytically  !
 ! D24   D(10,3,4,14)          -69.8039         calculate D2E/DX2 analytically  !
 ! D25   D(10,3,4,15)           49.4676         calculate D2E/DX2 analytically  !
 ! D26   D(3,4,5,6)             45.4756         calculate D2E/DX2 analytically  !
 ! D27   D(3,4,5,9)            -73.7218         calculate D2E/DX2 analytically  !
 ! D28   D(14,4,5,6)           -75.6774         calculate D2E/DX2 analytically  !
 ! D29   D(14,4,5,9)           165.1252         calculate D2E/DX2 analytically  !
 ! D30   D(15,4,5,6)           163.2973         calculate D2E/DX2 analytically  !
 ! D31   D(15,4,5,9)            44.1            calculate D2E/DX2 analytically  !
 ! D32   D(3,4,14,16)          160.1689         calculate D2E/DX2 analytically  !
 ! D33   D(5,4,14,16)          -76.1311         calculate D2E/DX2 analytically  !
 ! D34   D(15,4,14,16)          43.0218         calculate D2E/DX2 analytically  !
 ! D35   D(4,5,6,1)            -63.8829         calculate D2E/DX2 analytically  !
 ! D36   D(4,5,6,7)            174.6791         calculate D2E/DX2 analytically  !
 ! D37   D(4,5,6,8)             56.0155         calculate D2E/DX2 analytically  !
 ! D38   D(9,5,6,1)             56.6741         calculate D2E/DX2 analytically  !
 ! D39   D(9,5,6,7)            -64.7639         calculate D2E/DX2 analytically  !
 ! D40   D(9,5,6,8)            176.5725         calculate D2E/DX2 analytically  !
 ! D41   D(4,14,16,17)         109.5146         calculate D2E/DX2 analytically  !
 --------------------------------------------------------------------------------
 Trust Radius=3.00D-01 FncErr=1.00D-07 GrdErr=1.00D-06 EigMax=2.50D+02 EigMin=1.00D-04
 Number of steps in this run=    102 maximum allowed number of steps=    102.
 GradGradGradGradGradGradGradGradGradGradGradGradGradGradGradGradGradGrad

 Leave Link  103 at Sun Apr  3 19:48:09 2022, MaxMem=  1073741824 cpu:               0.2 elap:               0.1
 (Enter /home/saurabh/g16/l202.exe)
                          Input orientation:                          
 ---------------------------------------------------------------------
 Center     Atomic      Atomic             Coordinates (Angstroms)
 Number     Number       Type             X           Y           Z
 ---------------------------------------------------------------------
      1          6           0       -0.098096    0.023840   -0.360595
      2          6           0       -1.204290    1.032719   -0.565689
      3          6           0       -1.011174    2.357871   -0.419991
      4          6           0        0.310597    2.950015    0.023635
      5          6           0        1.278960    1.882587    0.573981
      6          6           0        1.292637    0.675113   -0.349162
      7          1           0        2.052366   -0.068297   -0.027417
      8          1           0        1.558741    1.020792   -1.372477
      9          1           0        0.951837    1.544873    1.582683
     10          1           0       -1.835996    3.033289   -0.626685
     11          1           0       -2.192102    0.671241   -0.834498
     12          1           0       -0.106400   -0.718931   -1.186525
     13          1           0       -0.302821   -0.511249    0.591376
     14          8           0        0.876665    3.625429   -1.074445
     15          1           0        0.092453    3.663060    0.852844
     16          8           0        1.765070    4.471767   -0.584403
     17          1           0        2.644758    4.097702   -0.848056
 ---------------------------------------------------------------------
                    Distance matrix (angstroms):
                    1          2          3          4          5
     1  C    0.000000
     2  C    1.511147   0.000000
     3  C    2.506978   1.347052   0.000000
     4  C    2.979458   2.513605   1.514767   0.000000
     5  C    2.494926   2.861408   2.541376   1.542728   0.000000
     6  C    1.535718   2.531682   2.853811   2.505705   1.519991
     7  H    2.178069   3.479624   3.927554   3.485193   2.183068
     8  H    2.182414   2.878436   3.049504   2.688661   2.147014
     9  H    2.681834   3.086533   2.919775   2.194594   1.112897
    10  H    3.485382   2.098822   1.085930   2.244486   3.531100
    11  H    2.242448   1.085678   2.100268   3.491806   3.936933
    12  H    1.110828   2.158490   3.297408   3.885813   3.433147
    13  H    1.111072   2.129620   3.123536   3.560753   2.869283
    14  O    3.798841   3.363236   2.366210   1.407976   2.432417
    15  H    3.840920   3.257679   2.131108   1.115171   2.157695
    16  O    4.827580   4.543622   3.493296   2.191102   2.877848
    17  H    4.935304   4.928390   4.071375   2.743235   2.965523
                    6          7          8          9         10
     6  C    0.000000
     7  H    1.110570   0.000000
     8  H    1.112420   1.799713   0.000000
     9  H    2.145846   2.530989   3.062020   0.000000
    10  H    3.927641   5.009822   4.016291   3.855996   0.000000
    11  H    3.518377   4.383355   3.805316   4.060831   2.397763
    12  H    2.145190   2.535178   2.415349   3.730039   4.169421
    13  H    2.199444   2.475080   3.109547   2.604706   4.049450
    14  O    3.066502   4.015240   2.708909   3.375603   2.812410
    15  H    3.437017   4.305710   3.752817   2.399567   2.510884
    16  O    3.833159   4.583116   3.545823   3.731530   3.877974
    17  H    3.713656   4.287181   3.304819   3.910423   4.610764
                   11         12         13         14         15
    11  H    0.000000
    12  H    2.531136   0.000000
    13  H    2.645898   1.800735   0.000000
    14  O    4.266396   4.455608   4.612836   0.000000
    15  H    4.125203   4.837397   4.201126   2.081069   0.000000
    16  O    5.492336   5.550522   5.521691   1.321246   2.348900
    17  H    5.927566   5.557282   5.657085   1.844030   3.097780
                   16         17
    16  O    0.000000
    17  H    0.991610   0.000000
 Stoichiometry    C6H9O2(2)
 Framework group  C1[X(C6H9O2)]
 Deg. of freedom    45
 Full point group                 C1      NOp   1
 Largest Abelian subgroup         C1      NOp   1
 Largest concise Abelian subgroup C1      NOp   1
                         Standard orientation:                         
 ---------------------------------------------------------------------
 Center     Atomic      Atomic             Coordinates (Angstroms)
 Number     Number       Type             X           Y           Z
 ---------------------------------------------------------------------
      1          6           0       -2.152769   -0.373163   -0.197777
      2          6           0       -1.694256    1.065248   -0.132158
      3          6           0       -0.422416    1.407071    0.150912
      4          6           0        0.644509    0.387030    0.491070
      5          6           0        0.054492   -1.009730    0.775588
      6          6           0       -0.977717   -1.358141   -0.284378
      7          1           0       -1.349022   -2.397113   -0.157741
      8          1           0       -0.492245   -1.283641   -1.282499
      9          1           0       -0.448641   -1.023752    1.768161
     10          1           0       -0.146881    2.457377    0.137397
     11          1           0       -2.421979    1.850000   -0.314586
     12          1           0       -2.779522   -0.528964   -1.101572
     13          1           0       -2.779523   -0.567872    0.698742
     14          8           0        1.559239    0.339193   -0.578219
     15          1           0        1.148683    0.733429    1.423498
     16          8           0        2.670676   -0.196156   -0.105143
     17          1           0        2.718747   -1.093655   -0.524039
 ---------------------------------------------------------------------
 Rotational constants (GHZ):           4.0572610           1.5775410           1.2893850
 Leave Link  202 at Sun Apr  3 19:48:09 2022, MaxMem=  1073741824 cpu:               0.2 elap:               0.1
 (Enter /home/saurabh/g16/l301.exe)
 Standard basis: CC-pVTZ (5D, 7F)
 Ernie: Thresh=  0.10000D-02 Tol=  0.10000D-05 Strict=F.
 Ernie:  24 primitive shells out of 280 were deleted.
 There are   415 symmetry adapted cartesian basis functions of A   symmetry.
 There are   366 symmetry adapted basis functions of A   symmetry.
   366 basis functions,   569 primitive gaussians,   415 cartesian basis functions
    31 alpha electrons       30 beta electrons
       nuclear repulsion energy       379.9597276503 Hartrees.
 IExCor=  402 DFT=T Ex+Corr=B3LYP ExCW=0 ScaHFX=  0.200000
 ScaDFX=  0.800000  0.720000  1.000000  0.810000 ScalE2=  1.000000  1.000000
 IRadAn=      5 IRanWt=     -1 IRanGd=            0 ICorTp=0 IEmpDi=  4
 NAtoms=   17 NActive=   17 NUniq=   17 SFac= 1.00D+00 NAtFMM=   60 NAOKFM=F Big=F
 Integral buffers will be    131072 words long.
 Raffenetti 2 integral format.
 Two-electron integral symmetry is turned on.
 Leave Link  301 at Sun Apr  3 19:48:10 2022, MaxMem=  1073741824 cpu:               0.9 elap:               0.2
 (Enter /home/saurabh/g16/l302.exe)
 NPDir=0 NMtPBC=     1 NCelOv=     1 NCel=       1 NClECP=     1 NCelD=      1
         NCelK=      1 NCelE2=     1 NClLst=     1 CellRange=     0.0.
 One-electron integrals computed using PRISM.
 One-electron integral symmetry used in STVInt
 NBasis=   366 RedAO= T EigKep=  1.52D-04  NBF=   366
 NBsUse=   366 1.00D-06 EigRej= -1.00D+00 NBFU=   366
 Precomputing XC quadrature grid using
 IXCGrd= 4 IRadAn=           5 IRanWt=          -1 IRanGd=           0 AccXCQ= 0.00D+00.
 Generated NRdTot=       0 NPtTot=           0 NUsed=           0 NTot=          32
 NSgBfM=   415   415   415   415   415 MxSgAt=    17 MxSgA2=    17.
 Leave Link  302 at Sun Apr  3 19:48:10 2022, MaxMem=  1073741824 cpu:               3.9 elap:               0.5
 (Enter /home/saurabh/g16/l303.exe)
 DipDrv:  MaxL=1.
 Leave Link  303 at Sun Apr  3 19:48:11 2022, MaxMem=  1073741824 cpu:               0.8 elap:               0.2
 (Enter /home/saurabh/g16/l401.exe)
 ExpMin= 1.03D-01 ExpMax= 1.53D+04 ExpMxC= 5.22D+02 IAcc=3 IRadAn=         5 AccDes= 0.00D+00
 Harris functional with IExCor=  402 and IRadAn=       5 diagonalized for initial guess.
 HarFok:  IExCor=  402 AccDes= 0.00D+00 IRadAn=         5 IDoV= 1 UseB2=F ITyADJ=14
 ICtDFT=  3500011 ScaDFX=  1.000000  1.000000  1.000000  1.000000
 FoFCou: FMM=F IPFlag=           0 FMFlag=      100000 FMFlg1=           0
         NFxFlg=           0 DoJE=T BraDBF=F KetDBF=T FulRan=T
         wScrn=  0.000000 ICntrl=       500 IOpCl=  0 I1Cent=   200000004 NGrid=           0
         NMat0=    1 NMatS0=      1 NMatT0=    0 NMatD0=    1 NMtDS0=    0 NMtDT0=    0
 Petite list used in FoFCou.
 Harris En= -384.450727117462    
 JPrj=0 DoOrth=F DoCkMO=F.
 Initial guess <Sx>= 0.0000 <Sy>= 0.0000 <Sz>= 0.5000 <S**2>= 0.7500 S= 0.5000
 Leave Link  401 at Sun Apr  3 19:48:14 2022, MaxMem=  1073741824 cpu:              24.8 elap:               3.2
 (Enter /home/saurabh/g16/l502.exe)
 Integral symmetry usage will be decided dynamically.
 UHF open shell SCF:
 Using DIIS extrapolation, IDIIS=  1040.
 NGot=  1073741824 LenX=  1073389980 LenY=  1073217314
 Requested convergence on RMS density matrix=1.00D-08 within1000 cycles.
 Requested convergence on MAX density matrix=1.00D-06.
 Requested convergence on             energy=1.00D-06.
 No special actions if energy rises.
 Fock matrices will be formed incrementally for  20 cycles.
 Integral accuracy reduced to 1.0D-05 until final iterations.

 Cycle   1  Pass 0  IDiag  1:
 FoFJK:  IHMeth= 1 ICntrl=       0 DoSepK=F KAlg= 0 I1Cent=           0 FoldK=F
 IRaf= 960000000 NMat=       1 IRICut=       1 DoRegI=T DoRafI=F ISym2E= 0 IDoP0=0 IntGTp=1.
 FoFCou: FMM=F IPFlag=           0 FMFlag=      100000 FMFlg1=           0
         NFxFlg=           0 DoJE=F BraDBF=F KetDBF=F FulRan=T
         wScrn=  0.000000 ICntrl=         0 IOpCl=  1 I1Cent=           0 NGrid=           0
         NMat0=    1 NMatS0=      1 NMatT0=    0 NMatD0=    1 NMtDS0=    0 NMtDT0=    0
 Symmetry not used in FoFCou.
 E= -384.247607632343    
 DIIS: error= 1.41D-02 at cycle   1 NSaved=   1.
 NSaved= 1 IEnMin= 1 EnMin= -384.247607632343     IErMin= 1 ErrMin= 1.41D-02
 ErrMax= 1.41D-02  0.00D+00 EMaxC= 1.00D-01 BMatC= 8.69D-01 BMatP= 8.69D-01
 IDIUse=3 WtCom= 8.59D-01 WtEn= 1.41D-01
 Coeff-Com:  0.100D+01
 Coeff-En:   0.100D+01
 Coeff:      0.100D+01
 Gap=     0.256 Goal=   None    Shift=    0.000
 Gap=     0.195 Goal=   None    Shift=    0.000
 GapD=    0.195 DampG=1.000 DampE=0.500 DampFc=0.5000 IDamp=-1.
 Damping current iteration by 5.00D-01
 RMSDP=2.17D-03 MaxDP=8.99D-02              OVMax= 1.68D-01

 Cycle   2  Pass 0  IDiag  1:
 RMSU=  1.08D-03    CP:  9.97D-01
 E= -384.330334724533     Delta-E=       -0.082727092190 Rises=F Damp=T
 DIIS: error= 4.81D-03 at cycle   2 NSaved=   2.
 NSaved= 2 IEnMin= 2 EnMin= -384.330334724533     IErMin= 2 ErrMin= 4.81D-03
 ErrMax= 4.81D-03  0.00D+00 EMaxC= 1.00D-01 BMatC= 6.51D-02 BMatP= 8.69D-01
 IDIUse=3 WtCom= 9.52D-01 WtEn= 4.81D-02
 Coeff-Com:  0.460D-01 0.954D+00
 Coeff-En:   0.137D+00 0.863D+00
 Coeff:      0.504D-01 0.950D+00
 Gap=     0.266 Goal=   None    Shift=    0.000
 Gap=     0.186 Goal=   None    Shift=    0.000
 RMSDP=5.27D-04 MaxDP=1.77D-02 DE=-8.27D-02 OVMax= 9.48D-02

 Cycle   3  Pass 0  IDiag  1:
 RMSU=  4.58D-04    CP:  1.00D+00  7.61D-01
 E= -384.438052478887     Delta-E=       -0.107717754354 Rises=F Damp=F
 DIIS: error= 4.33D-03 at cycle   3 NSaved=   3.
 NSaved= 3 IEnMin= 3 EnMin= -384.438052478887     IErMin= 3 ErrMin= 4.33D-03
 ErrMax= 4.33D-03  0.00D+00 EMaxC= 1.00D-01 BMatC= 2.70D-02 BMatP= 6.51D-02
 IDIUse=3 WtCom= 9.57D-01 WtEn= 4.33D-02
 Coeff-Com: -0.536D-01 0.376D+00 0.677D+00
 Coeff-En:   0.000D+00 0.000D+00 0.100D+01
 Coeff:     -0.513D-01 0.360D+00 0.691D+00
 Gap=     0.224 Goal=   None    Shift=    0.000
 Gap=     0.168 Goal=   None    Shift=    0.000
 RMSDP=1.90D-04 MaxDP=6.42D-03 DE=-1.08D-01 OVMax= 1.61D-02

 Cycle   4  Pass 0  IDiag  1:
 RMSU=  1.30D-04    CP:  9.99D-01  8.25D-01  7.42D-01
 E= -384.443470706055     Delta-E=       -0.005418227168 Rises=F Damp=F
 DIIS: error= 7.98D-04 at cycle   4 NSaved=   4.
 NSaved= 4 IEnMin= 4 EnMin= -384.443470706055     IErMin= 4 ErrMin= 7.98D-04
 ErrMax= 7.98D-04  0.00D+00 EMaxC= 1.00D-01 BMatC= 3.24D-03 BMatP= 2.70D-02
 IDIUse=3 WtCom= 9.92D-01 WtEn= 7.98D-03
 Coeff-Com: -0.272D-01 0.107D+00 0.318D+00 0.602D+00
 Coeff-En:   0.000D+00 0.000D+00 0.000D+00 0.100D+01
 Coeff:     -0.269D-01 0.106D+00 0.316D+00 0.605D+00
 Gap=     0.224 Goal=   None    Shift=    0.000
 Gap=     0.166 Goal=   None    Shift=    0.000
 RMSDP=7.20D-05 MaxDP=3.46D-03 DE=-5.42D-03 OVMax= 1.23D-02

 Cycle   5  Pass 0  IDiag  1:
 RMSU=  5.28D-05    CP:  9.99D-01  8.39D-01  7.97D-01  6.97D-01
 E= -384.443940143315     Delta-E=       -0.000469437260 Rises=F Damp=F
 DIIS: error= 5.13D-04 at cycle   5 NSaved=   5.
 NSaved= 5 IEnMin= 5 EnMin= -384.443940143315     IErMin= 5 ErrMin= 5.13D-04
 ErrMax= 5.13D-04  0.00D+00 EMaxC= 1.00D-01 BMatC= 9.10D-04 BMatP= 3.24D-03
 IDIUse=3 WtCom= 9.95D-01 WtEn= 5.13D-03
 Coeff-Com: -0.983D-02 0.170D-01 0.103D+00 0.383D+00 0.507D+00
 Coeff-En:   0.000D+00 0.000D+00 0.000D+00 0.223D+00 0.777D+00
 Coeff:     -0.978D-02 0.169D-01 0.102D+00 0.382D+00 0.509D+00
 Gap=     0.225 Goal=   None    Shift=    0.000
 Gap=     0.169 Goal=   None    Shift=    0.000
 RMSDP=3.05D-05 MaxDP=1.32D-03 DE=-4.69D-04 OVMax= 6.29D-03

 Cycle   6  Pass 0  IDiag  1:
 RMSU=  1.42D-05    CP:  9.99D-01  8.34D-01  8.03D-01  7.89D-01  5.58D-01
 E= -384.444119951420     Delta-E=       -0.000179808104 Rises=F Damp=F
 DIIS: error= 1.55D-04 at cycle   6 NSaved=   6.
 NSaved= 6 IEnMin= 6 EnMin= -384.444119951420     IErMin= 6 ErrMin= 1.55D-04
 ErrMax= 1.55D-04  0.00D+00 EMaxC= 1.00D-01 BMatC= 4.79D-05 BMatP= 9.10D-04
 IDIUse=3 WtCom= 9.98D-01 WtEn= 1.55D-03
 Coeff-Com: -0.329D-02 0.138D-02 0.324D-01 0.162D+00 0.271D+00 0.536D+00
 Coeff-En:   0.000D+00 0.000D+00 0.000D+00 0.000D+00 0.000D+00 0.100D+01
 Coeff:     -0.329D-02 0.138D-02 0.324D-01 0.162D+00 0.271D+00 0.537D+00
 Gap=     0.225 Goal=   None    Shift=    0.000
 Gap=     0.169 Goal=   None    Shift=    0.000
 RMSDP=7.40D-06 MaxDP=3.58D-04 DE=-1.80D-04 OVMax= 1.51D-03

 Initial convergence to 1.0D-05 achieved.  Increase integral accuracy.
 Cycle   7  Pass 1  IDiag  1:
 E= -384.444124401780     Delta-E=       -0.000004450361 Rises=F Damp=F
 DIIS: error= 4.99D-05 at cycle   1 NSaved=   1.
 NSaved= 1 IEnMin= 1 EnMin= -384.444124401780     IErMin= 1 ErrMin= 4.99D-05
 ErrMax= 4.99D-05  0.00D+00 EMaxC= 1.00D-01 BMatC= 6.77D-06 BMatP= 6.77D-06
 IDIUse=1 WtCom= 1.00D+00 WtEn= 0.00D+00
 Coeff-Com:  0.100D+01
 Coeff:      0.100D+01
 Gap=     0.225 Goal=   None    Shift=    0.000
 Gap=     0.169 Goal=   None    Shift=    0.000
 RMSDP=7.40D-06 MaxDP=3.58D-04 DE=-4.45D-06 OVMax= 1.01D-03

 Cycle   8  Pass 1  IDiag  1:
 RMSU=  1.16D-05    CP:  1.00D+00
 E= -384.444123393077     Delta-E=        0.000001008704 Rises=F Damp=F
 DIIS: error= 6.83D-05 at cycle   2 NSaved=   2.
 NSaved= 2 IEnMin= 1 EnMin= -384.444124401780     IErMin= 1 ErrMin= 4.99D-05
 ErrMax= 6.83D-05  0.00D+00 EMaxC= 1.00D-01 BMatC= 1.28D-05 BMatP= 6.77D-06
 IDIUse=1 WtCom= 1.00D+00 WtEn= 0.00D+00
 Coeff-Com:  0.590D+00 0.410D+00
 Coeff:      0.590D+00 0.410D+00
 Gap=     0.225 Goal=   None    Shift=    0.000
 Gap=     0.169 Goal=   None    Shift=    0.000
 RMSDP=3.29D-06 MaxDP=1.94D-04 DE= 1.01D-06 OVMax= 8.77D-04

 Cycle   9  Pass 1  IDiag  1:
 RMSU=  3.14D-06    CP:  1.00D+00  9.15D-01
 E= -384.444126170090     Delta-E=       -0.000002777013 Rises=F Damp=F
 DIIS: error= 1.52D-05 at cycle   3 NSaved=   3.
 NSaved= 3 IEnMin= 3 EnMin= -384.444126170090     IErMin= 3 ErrMin= 1.52D-05
 ErrMax= 1.52D-05  0.00D+00 EMaxC= 1.00D-01 BMatC= 5.50D-07 BMatP= 6.77D-06
 IDIUse=1 WtCom= 1.00D+00 WtEn= 0.00D+00
 Coeff-Com:  0.776D-01 0.164D+00 0.759D+00
 Coeff:      0.776D-01 0.164D+00 0.759D+00
 Gap=     0.225 Goal=   None    Shift=    0.000
 Gap=     0.169 Goal=   None    Shift=    0.000
 RMSDP=1.18D-06 MaxDP=6.76D-05 DE=-2.78D-06 OVMax= 2.93D-04

 Cycle  10  Pass 1  IDiag  1:
 RMSU=  1.07D-06    CP:  1.00D+00  9.46D-01  8.98D-01
 E= -384.444126287663     Delta-E=       -0.000000117573 Rises=F Damp=F
 DIIS: error= 8.16D-06 at cycle   4 NSaved=   4.
 NSaved= 4 IEnMin= 4 EnMin= -384.444126287663     IErMin= 4 ErrMin= 8.16D-06
 ErrMax= 8.16D-06  0.00D+00 EMaxC= 1.00D-01 BMatC= 2.56D-07 BMatP= 5.50D-07
 IDIUse=1 WtCom= 1.00D+00 WtEn= 0.00D+00
 Coeff-Com: -0.608D-01 0.236D-01 0.480D+00 0.557D+00
 Coeff:     -0.608D-01 0.236D-01 0.480D+00 0.557D+00
 Gap=     0.225 Goal=   None    Shift=    0.000
 Gap=     0.169 Goal=   None    Shift=    0.000
 RMSDP=5.73D-07 MaxDP=3.18D-05 DE=-1.18D-07 OVMax= 1.29D-04

 Cycle  11  Pass 1  IDiag  1:
 RMSU=  4.79D-07    CP:  1.00D+00  9.55D-01  9.37D-01  7.49D-01
 E= -384.444126355991     Delta-E=       -0.000000068328 Rises=F Damp=F
 DIIS: error= 2.07D-06 at cycle   5 NSaved=   5.
 NSaved= 5 IEnMin= 5 EnMin= -384.444126355991     IErMin= 5 ErrMin= 2.07D-06
 ErrMax= 2.07D-06  0.00D+00 EMaxC= 1.00D-01 BMatC= 1.33D-08 BMatP= 2.56D-07
 IDIUse=1 WtCom= 1.00D+00 WtEn= 0.00D+00
 Coeff-Com: -0.303D-01-0.210D-01 0.146D-01 0.158D+00 0.879D+00
 Coeff:     -0.303D-01-0.210D-01 0.146D-01 0.158D+00 0.879D+00
 Gap=     0.225 Goal=   None    Shift=    0.000
 Gap=     0.169 Goal=   None    Shift=    0.000
 RMSDP=2.33D-07 MaxDP=1.38D-05 DE=-6.83D-08 OVMax= 2.96D-05

 Cycle  12  Pass 1  IDiag  1:
 RMSU=  1.70D-07    CP:  1.00D+00  9.57D-01  9.49D-01  8.79D-01  1.13D+00
 E= -384.444126360760     Delta-E=       -0.000000004769 Rises=F Damp=F
 DIIS: error= 1.16D-06 at cycle   6 NSaved=   6.
 NSaved= 6 IEnMin= 6 EnMin= -384.444126360760     IErMin= 6 ErrMin= 1.16D-06
 ErrMax= 1.16D-06  0.00D+00 EMaxC= 1.00D-01 BMatC= 4.86D-09 BMatP= 1.33D-08
 IDIUse=1 WtCom= 1.00D+00 WtEn= 0.00D+00
 Coeff-Com: -0.316D-02-0.156D-01-0.912D-01-0.298D-01 0.468D+00 0.672D+00
 Coeff:     -0.316D-02-0.156D-01-0.912D-01-0.298D-01 0.468D+00 0.672D+00
 Gap=     0.225 Goal=   None    Shift=    0.000
 Gap=     0.169 Goal=   None    Shift=    0.000
 RMSDP=1.03D-07 MaxDP=5.70D-06 DE=-4.77D-09 OVMax= 1.41D-05

 Cycle  13  Pass 1  IDiag  1:
 RMSU=  5.93D-08    CP:  1.00D+00  9.58D-01  9.51D-01  9.17D-01  1.27D+00
                    CP:  8.26D-01
 E= -384.444126362026     Delta-E=       -0.000000001265 Rises=F Damp=F
 DIIS: error= 4.01D-07 at cycle   7 NSaved=   7.
 NSaved= 7 IEnMin= 7 EnMin= -384.444126362026     IErMin= 7 ErrMin= 4.01D-07
 ErrMax= 4.01D-07  0.00D+00 EMaxC= 1.00D-01 BMatC= 8.40D-10 BMatP= 4.86D-09
 IDIUse=1 WtCom= 1.00D+00 WtEn= 0.00D+00
 Coeff-Com:  0.180D-02-0.602D-02-0.511D-01-0.347D-01 0.151D+00 0.376D+00
 Coeff-Com:  0.562D+00
 Coeff:      0.180D-02-0.602D-02-0.511D-01-0.347D-01 0.151D+00 0.376D+00
 Coeff:      0.562D+00
 Gap=     0.225 Goal=   None    Shift=    0.000
 Gap=     0.169 Goal=   None    Shift=    0.000
 RMSDP=3.40D-08 MaxDP=1.90D-06 DE=-1.27D-09 OVMax= 7.60D-06

 Cycle  14  Pass 1  IDiag  1:
 RMSU=  3.00D-08    CP:  1.00D+00  9.58D-01  9.51D-01  9.19D-01  1.29D+00
                    CP:  8.77D-01  8.46D-01
 E= -384.444126362260     Delta-E=       -0.000000000235 Rises=F Damp=F
 DIIS: error= 2.14D-07 at cycle   8 NSaved=   8.
 NSaved= 8 IEnMin= 8 EnMin= -384.444126362260     IErMin= 8 ErrMin= 2.14D-07
 ErrMax= 2.14D-07  0.00D+00 EMaxC= 1.00D-01 BMatC= 8.57D-11 BMatP= 8.40D-10
 IDIUse=1 WtCom= 1.00D+00 WtEn= 0.00D+00
 Coeff-Com:  0.101D-02-0.284D-03-0.804D-02-0.967D-02-0.558D-03 0.613D-01
 Coeff-Com:  0.211D+00 0.745D+00
 Coeff:      0.101D-02-0.284D-03-0.804D-02-0.967D-02-0.558D-03 0.613D-01
 Coeff:      0.211D+00 0.745D+00
 Gap=     0.225 Goal=   None    Shift=    0.000
 Gap=     0.169 Goal=   None    Shift=    0.000
 RMSDP=1.92D-08 MaxDP=1.55D-06 DE=-2.35D-10 OVMax= 5.92D-06

 Cycle  15  Pass 1  IDiag  1:
 RMSU=  1.55D-08    CP:  1.00D+00  9.58D-01  9.51D-01  9.20D-01  1.29D+00
                    CP:  9.10D-01  9.83D-01  1.16D+00
 E= -384.444126362301     Delta-E=       -0.000000000040 Rises=F Damp=F
 DIIS: error= 1.51D-07 at cycle   9 NSaved=   9.
 NSaved= 9 IEnMin= 9 EnMin= -384.444126362301     IErMin= 9 ErrMin= 1.51D-07
 ErrMax= 1.51D-07  0.00D+00 EMaxC= 1.00D-01 BMatC= 3.96D-11 BMatP= 8.57D-11
 IDIUse=1 WtCom= 1.00D+00 WtEn= 0.00D+00
 Coeff-Com: -0.323D-03 0.311D-02 0.225D-01 0.125D-01-0.794D-01-0.165D+00
 Coeff-Com: -0.181D+00 0.441D+00 0.947D+00
 Coeff:     -0.323D-03 0.311D-02 0.225D-01 0.125D-01-0.794D-01-0.165D+00
 Coeff:     -0.181D+00 0.441D+00 0.947D+00
 Gap=     0.225 Goal=   None    Shift=    0.000
 Gap=     0.169 Goal=   None    Shift=    0.000
 RMSDP=1.93D-08 MaxDP=1.81D-06 DE=-4.05D-11 OVMax= 7.71D-06

 Cycle  16  Pass 1  IDiag  1:
 RMSU=  8.94D-09    CP:  1.00D+00  9.58D-01  9.51D-01  9.20D-01  1.30D+00
                    CP:  9.32D-01  1.14D+00  1.59D+00  1.21D+00
 E= -384.444126362353     Delta-E=       -0.000000000052 Rises=F Damp=F
 DIIS: error= 6.92D-08 at cycle  10 NSaved=  10.
 NSaved=10 IEnMin=10 EnMin= -384.444126362353     IErMin=10 ErrMin= 6.92D-08
 ErrMax= 6.92D-08  0.00D+00 EMaxC= 1.00D-01 BMatC= 4.86D-12 BMatP= 3.96D-11
 IDIUse=1 WtCom= 1.00D+00 WtEn= 0.00D+00
 Coeff-Com: -0.213D-03 0.528D-03 0.496D-02 0.369D-02-0.128D-01-0.372D-01
 Coeff-Com: -0.632D-01-0.544D-01 0.138D+00 0.102D+01
 Coeff:     -0.213D-03 0.528D-03 0.496D-02 0.369D-02-0.128D-01-0.372D-01
 Coeff:     -0.632D-01-0.544D-01 0.138D+00 0.102D+01
 Gap=     0.225 Goal=   None    Shift=    0.000
 Gap=     0.169 Goal=   None    Shift=    0.000
 RMSDP=8.72D-09 MaxDP=8.32D-07 DE=-5.22D-11 OVMax= 3.38D-06

 SCF Done:  E(UB3LYP) =  -384.444126362     A.U. after   16 cycles
            NFock= 16  Conv=0.87D-08     -V/T= 2.0066
 <Sx>= 0.0000 <Sy>= 0.0000 <Sz>= 0.5000 <S**2>= 0.7531 S= 0.5016
 <L.S>= 0.000000000000E+00
 KE= 3.819191241245D+02 PE=-1.657322450134D+03 EE= 5.109994719971D+02
 Annihilation of the first spin contaminant:
 S**2 before annihilation     0.7531,   after     0.7500
 Leave Link  502 at Sun Apr  3 19:51:31 2022, MaxMem=  1073741824 cpu:            1577.9 elap:             197.1
 (Enter /home/saurabh/g16/l801.exe)
 DoSCS=F DFT=T ScalE2(SS,OS)=  1.000000  1.000000
 Range of M.O.s used for correlation:     1   366
 NBasis=   366 NAE=    31 NBE=    30 NFC=     0 NFV=     0
 NROrb=    366 NOA=    31 NOB=    30 NVA=   335 NVB=   336

 **** Warning!!: The largest alpha MO coefficient is  0.15198244D+02


 **** Warning!!: The largest beta MO coefficient is  0.15193673D+02

 Leave Link  801 at Sun Apr  3 19:51:31 2022, MaxMem=  1073741824 cpu:               0.2 elap:               0.0
 (Enter /home/saurabh/g16/l1101.exe)
 Using compressed storage, NAtomX=    17.
 Will process     18 centers per pass.
 Leave Link 1101 at Sun Apr  3 19:51:32 2022, MaxMem=  1073741824 cpu:               3.3 elap:               0.4
 (Enter /home/saurabh/g16/l1102.exe)
 Symmetrizing basis deriv contribution to polar:
 IMax=3 JMax=2 DiffMx= 0.00D+00
 Leave Link 1102 at Sun Apr  3 19:51:32 2022, MaxMem=  1073741824 cpu:               0.3 elap:               0.1
 (Enter /home/saurabh/g16/l1110.exe)
 Forming Gx(P) for the SCF density, NAtomX=    17.
 Integral derivatives from FoFJK, PRISM(SPDF).
 Do as many integral derivatives as possible in FoFJK.
 G2DrvN: MDV=    1073739937.
 G2DrvN: will do    18 centers at a time, making    1 passes.
 Calling FoFCou, ICntrl=  3107 FMM=F I1Cent=   0 AccDes= 0.00D+00.
 FoFJK:  IHMeth= 1 ICntrl=    3107 DoSepK=F KAlg= 0 I1Cent=           0 FoldK=F
 IRaf=         0 NMat=       1 IRICut=       1 DoRegI=T DoRafI=F ISym2E= 0 IDoP0=0 IntGTp=1.
 FoFCou: FMM=F IPFlag=           0 FMFlag=      100000 FMFlg1=           0
         NFxFlg=           0 DoJE=F BraDBF=F KetDBF=F FulRan=T
         wScrn=  0.000000 ICntrl=      3107 IOpCl=  1 I1Cent=           0 NGrid=           0
         NMat0=    1 NMatS0=      1 NMatT0=    0 NMatD0=    1 NMtDS0=    0 NMtDT0=    0
 Symmetry not used in FoFCou.
 End of G2Drv F.D. properties file   721 does not exist.
 End of G2Drv F.D. properties file   722 does not exist.
 End of G2Drv F.D. properties file   788 does not exist.
 Leave Link 1110 at Sun Apr  3 19:57:08 2022, MaxMem=  1073741824 cpu:            2690.9 elap:             336.1
 (Enter /home/saurabh/g16/l1002.exe)
 Minotr:  UHF open shell wavefunction.
          IDoAtm=11111111111111111
          Direct CPHF calculation.
          Differentiating once with respect to nuclear coordinates.
          Requested convergence is 1.0D-08 RMS, and 1.0D-07 maximum.
          Secondary convergence is 1.0D-12 RMS, and 1.0D-12 maximum.
          NewPWx=T KeepS1=F KeepF1=F KeepIn=T MapXYZ=F SortEE=F KeepMc=T.
         5081 words used for storage of precomputed grid.
 Two-electron integrals replicated using symmetry.
          MDV=    1073741824 using IRadAn=       1.
          Solving linear equations simultaneously, MaxMat=     384.
 FoF2E skips out because all densities are zero.
 CalDSu exits because no D1Ps are significant.
 FoFJK:  IHMeth= 1 ICntrl=       0 DoSepK=F KAlg= 0 I1Cent=           0 FoldK=F
 IRaf= 950000000 NMat=      51 IRICut=     127 DoRegI=T DoRafI=T ISym2E= 2 IDoP0=3 IntGTp=3.
 FoFCou: FMM=F IPFlag=           0 FMFlag=      100000 FMFlg1=           0
         NFxFlg=           0 DoJE=F BraDBF=F KetDBF=F FulRan=T
         wScrn=  0.000000 ICntrl=         0 IOpCl=  1 I1Cent=           0 NGrid=           0
         NMat0=   51 NMatS0=     51 NMatT0=    0 NMatD0=   51 NMtDS0=    0 NMtDT0=    0
 Integrals replicated using symmetry in FoFCou.
 Raff kept on since  92.43% of shell-pairs survive, threshold=   0.20 IRatSp=92.
          There are    54 degrees of freedom in the 1st order CPHF.  IDoFFX=6 NUNeed=     0.
     48 vectors produced by pass  0 Test12= 3.79D-14 1.85D-09 XBig12= 2.28D-01 1.49D-01.
 AX will form    48 AO Fock derivatives at one time.
     48 vectors produced by pass  1 Test12= 3.79D-14 1.85D-09 XBig12= 3.21D-02 5.52D-02.
     48 vectors produced by pass  2 Test12= 3.79D-14 1.85D-09 XBig12= 5.08D-04 6.46D-03.
     48 vectors produced by pass  3 Test12= 3.79D-14 1.85D-09 XBig12= 4.68D-06 4.49D-04.
     48 vectors produced by pass  4 Test12= 3.79D-14 1.85D-09 XBig12= 4.39D-08 3.08D-05.
     48 vectors produced by pass  5 Test12= 3.79D-14 1.85D-09 XBig12= 3.15D-10 2.82D-06.
     42 vectors produced by pass  6 Test12= 3.79D-14 1.85D-09 XBig12= 2.15D-12 1.53D-07.
     13 vectors produced by pass  7 Test12= 3.79D-14 1.85D-09 XBig12= 1.05D-14 8.94D-09.
 InvSVY:  IOpt=1 It=  1 EMax= 7.22D-16
 Solved reduced A of dimension   343 with    54 vectors.
 End of Minotr F.D. properties file   721 does not exist.
 End of Minotr F.D. properties file   722 does not exist.
 End of Minotr F.D. properties file   788 does not exist.
 Leave Link 1002 at Sun Apr  3 20:08:23 2022, MaxMem=  1073741824 cpu:            5406.7 elap:             675.4
 (Enter /home/saurabh/g16/l601.exe)
 Copying SCF densities to generalized density rwf, IOpCl= 1 IROHF=0.

 **********************************************************************

            Population analysis using the SCF Density.

 **********************************************************************

 Orbital symmetries:
 Alpha Orbitals:
       Occupied  (A) (A) (A) (A) (A) (A) (A) (A) (A) (A) (A) (A)
                 (A) (A) (A) (A) (A) (A) (A) (A) (A) (A) (A) (A)
                 (A) (A) (A) (A) (A) (A) (A)
       Virtual   (A) (A) (A) (A) (A) (A) (A) (A) (A) (A) (A) (A)
                 (A) (A) (A) (A) (A) (A) (A) (A) (A) (A) (A) (A)
                 (A) (A) (A) (A) (A) (A) (A) (A) (A) (A) (A) (A)
                 (A) (A) (A) (A) (A) (A) (A) (A) (A) (A) (A) (A)
                 (A) (A) (A) (A) (A) (A) (A) (A) (A) (A) (A) (A)
                 (A) (A) (A) (A) (A) (A) (A) (A) (A) (A) (A) (A)
                 (A) (A) (A) (A) (A) (A) (A) (A) (A) (A) (A) (A)
                 (A) (A) (A) (A) (A) (A) (A) (A) (A) (A) (A) (A)
                 (A) (A) (A) (A) (A) (A) (A) (A) (A) (A) (A) (A)
                 (A) (A) (A) (A) (A) (A) (A) (A) (A) (A) (A) (A)
                 (A) (A) (A) (A) (A) (A) (A) (A) (A) (A) (A) (A)
                 (A) (A) (A) (A) (A) (A) (A) (A) (A) (A) (A) (A)
                 (A) (A) (A) (A) (A) (A) (A) (A) (A) (A) (A) (A)
                 (A) (A) (A) (A) (A) (A) (A) (A) (A) (A) (A) (A)
                 (A) (A) (A) (A) (A) (A) (A) (A) (A) (A) (A) (A)
                 (A) (A) (A) (A) (A) (A) (A) (A) (A) (A) (A) (A)
                 (A) (A) (A) (A) (A) (A) (A) (A) (A) (A) (A) (A)
                 (A) (A) (A) (A) (A) (A) (A) (A) (A) (A) (A) (A)
                 (A) (A) (A) (A) (A) (A) (A) (A) (A) (A) (A) (A)
                 (A) (A) (A) (A) (A) (A) (A) (A) (A) (A) (A) (A)
                 (A) (A) (A) (A) (A) (A) (A) (A) (A) (A) (A) (A)
                 (A) (A) (A) (A) (A) (A) (A) (A) (A) (A) (A) (A)
                 (A) (A) (A) (A) (A) (A) (A) (A) (A) (A) (A) (A)
                 (A) (A) (A) (A) (A) (A) (A) (A) (A) (A) (A) (A)
                 (A) (A) (A) (A) (A) (A) (A) (A) (A) (A) (A) (A)
                 (A) (A) (A) (A) (A) (A) (A) (A) (A) (A) (A) (A)
                 (A) (A) (A) (A) (A) (A) (A) (A) (A) (A) (A) (A)
                 (A) (A) (A) (A) (A) (A) (A) (A) (A) (A) (A)
 Beta  Orbitals:
       Occupied  (A) (A) (A) (A) (A) (A) (A) (A) (A) (A) (A) (A)
                 (A) (A) (A) (A) (A) (A) (A) (A) (A) (A) (A) (A)
                 (A) (A) (A) (A) (A) (A)
       Virtual   (A) (A) (A) (A) (A) (A) (A) (A) (A) (A) (A) (A)
                 (A) (A) (A) (A) (A) (A) (A) (A) (A) (A) (A) (A)
                 (A) (A) (A) (A) (A) (A) (A) (A) (A) (A) (A) (A)
                 (A) (A) (A) (A) (A) (A) (A) (A) (A) (A) (A) (A)
                 (A) (A) (A) (A) (A) (A) (A) (A) (A) (A) (A) (A)
                 (A) (A) (A) (A) (A) (A) (A) (A) (A) (A) (A) (A)
                 (A) (A) (A) (A) (A) (A) (A) (A) (A) (A) (A) (A)
                 (A) (A) (A) (A) (A) (A) (A) (A) (A) (A) (A) (A)
                 (A) (A) (A) (A) (A) (A) (A) (A) (A) (A) (A) (A)
                 (A) (A) (A) (A) (A) (A) (A) (A) (A) (A) (A) (A)
                 (A) (A) (A) (A) (A) (A) (A) (A) (A) (A) (A) (A)
                 (A) (A) (A) (A) (A) (A) (A) (A) (A) (A) (A) (A)
                 (A) (A) (A) (A) (A) (A) (A) (A) (A) (A) (A) (A)
                 (A) (A) (A) (A) (A) (A) (A) (A) (A) (A) (A) (A)
                 (A) (A) (A) (A) (A) (A) (A) (A) (A) (A) (A) (A)
                 (A) (A) (A) (A) (A) (A) (A) (A) (A) (A) (A) (A)
                 (A) (A) (A) (A) (A) (A) (A) (A) (A) (A) (A) (A)
                 (A) (A) (A) (A) (A) (A) (A) (A) (A) (A) (A) (A)
                 (A) (A) (A) (A) (A) (A) (A) (A) (A) (A) (A) (A)
                 (A) (A) (A) (A) (A) (A) (A) (A) (A) (A) (A) (A)
                 (A) (A) (A) (A) (A) (A) (A) (A) (A) (A) (A) (A)
                 (A) (A) (A) (A) (A) (A) (A) (A) (A) (A) (A) (A)
                 (A) (A) (A) (A) (A) (A) (A) (A) (A) (A) (A) (A)
                 (A) (A) (A) (A) (A) (A) (A) (A) (A) (A) (A) (A)
                 (A) (A) (A) (A) (A) (A) (A) (A) (A) (A) (A) (A)
                 (A) (A) (A) (A) (A) (A) (A) (A) (A) (A) (A) (A)
                 (A) (A) (A) (A) (A) (A) (A) (A) (A) (A) (A) (A)
                 (A) (A) (A) (A) (A) (A) (A) (A) (A) (A) (A) (A)
 The electronic state is 2-A.
 Alpha  occ. eigenvalues --  -19.17930 -19.17650 -10.23335 -10.19712 -10.19339
 Alpha  occ. eigenvalues --  -10.18811 -10.18341 -10.18261  -1.17973  -0.90501
 Alpha  occ. eigenvalues --   -0.83171  -0.75132  -0.73236  -0.62520  -0.60422
 Alpha  occ. eigenvalues --   -0.56214  -0.52774  -0.50017  -0.47433  -0.46020
 Alpha  occ. eigenvalues --   -0.44303  -0.42237  -0.40126  -0.38961  -0.37317
 Alpha  occ. eigenvalues --   -0.34177  -0.33316  -0.29657  -0.26763  -0.25481
 Alpha  occ. eigenvalues --   -0.23189
 Alpha virt. eigenvalues --   -0.00671   0.02825   0.04008   0.06052   0.06545
 Alpha virt. eigenvalues --    0.08074   0.09591   0.10799   0.11004   0.12549
 Alpha virt. eigenvalues --    0.15528   0.16734   0.16895   0.19997   0.21192
 Alpha virt. eigenvalues --    0.22368   0.24979   0.26357   0.27951   0.29368
 Alpha virt. eigenvalues --    0.30791   0.31556   0.32056   0.32938   0.34692
 Alpha virt. eigenvalues --    0.36157   0.37820   0.39048   0.40942   0.42001
 Alpha virt. eigenvalues --    0.42351   0.42468   0.43090   0.43891   0.45066
 Alpha virt. eigenvalues --    0.45615   0.45718   0.47182   0.47499   0.48427
 Alpha virt. eigenvalues --    0.49178   0.50669   0.50909   0.52659   0.53647
 Alpha virt. eigenvalues --    0.55717   0.61142   0.62159   0.63890   0.64125
 Alpha virt. eigenvalues --    0.65668   0.67299   0.68865   0.70228   0.71037
 Alpha virt. eigenvalues --    0.74387   0.75109   0.76949   0.78182   0.80531
 Alpha virt. eigenvalues --    0.84237   0.86902   0.87356   0.88711   0.92697
 Alpha virt. eigenvalues --    0.93112   0.95382   0.96011   0.96867   0.98702
 Alpha virt. eigenvalues --    0.99779   1.00512   1.03998   1.05475   1.06404
 Alpha virt. eigenvalues --    1.07921   1.09325   1.11206   1.12380   1.14276
 Alpha virt. eigenvalues --    1.14656   1.16026   1.16720   1.17210   1.19087
 Alpha virt. eigenvalues --    1.20429   1.21207   1.23122   1.23925   1.26158
 Alpha virt. eigenvalues --    1.26714   1.28242   1.29574   1.31720   1.32949
 Alpha virt. eigenvalues --    1.33727   1.34582   1.36795   1.39641   1.40125
 Alpha virt. eigenvalues --    1.42382   1.42811   1.44638   1.46157   1.47633
 Alpha virt. eigenvalues --    1.48891   1.51560   1.52980   1.56935   1.58422
 Alpha virt. eigenvalues --    1.60221   1.63446   1.69645   1.71254   1.72931
 Alpha virt. eigenvalues --    1.75303   1.79552   1.86702   1.93891   1.97519
 Alpha virt. eigenvalues --    2.01685   2.03163   2.06363   2.10062   2.11723
 Alpha virt. eigenvalues --    2.14640   2.18795   2.23454   2.26292   2.28546
 Alpha virt. eigenvalues --    2.30790   2.34141   2.36516   2.38109   2.39639
 Alpha virt. eigenvalues --    2.41947   2.43720   2.45458   2.47302   2.49120
 Alpha virt. eigenvalues --    2.52000   2.53891   2.54826   2.56241   2.58875
 Alpha virt. eigenvalues --    2.60165   2.60538   2.63718   2.63911   2.66243
 Alpha virt. eigenvalues --    2.67371   2.68813   2.71029   2.73283   2.76933
 Alpha virt. eigenvalues --    2.78838   2.79953   2.80872   2.83821   2.84831
 Alpha virt. eigenvalues --    2.88481   2.89920   2.90971   2.91588   2.93302
 Alpha virt. eigenvalues --    2.95185   2.96647   2.98211   3.02083   3.02762
 Alpha virt. eigenvalues --    3.03920   3.05998   3.06473   3.08411   3.10102
 Alpha virt. eigenvalues --    3.10341   3.12176   3.12896   3.13545   3.14659
 Alpha virt. eigenvalues --    3.18449   3.19848   3.20581   3.21694   3.22575
 Alpha virt. eigenvalues --    3.25245   3.27576   3.29125   3.30542   3.30697
 Alpha virt. eigenvalues --    3.31429   3.32068   3.34390   3.35510   3.36496
 Alpha virt. eigenvalues --    3.40141   3.40843   3.41118   3.43606   3.45835
 Alpha virt. eigenvalues --    3.46619   3.48232   3.50593   3.52450   3.55305
 Alpha virt. eigenvalues --    3.58359   3.60684   3.61771   3.62808   3.63284
 Alpha virt. eigenvalues --    3.66389   3.67434   3.69315   3.70407   3.71610
 Alpha virt. eigenvalues --    3.73225   3.74304   3.75406   3.78764   3.79011
 Alpha virt. eigenvalues --    3.80076   3.80995   3.82140   3.85610   3.86389
 Alpha virt. eigenvalues --    3.87510   3.89221   3.90061   3.92204   3.93145
 Alpha virt. eigenvalues --    3.95556   3.96466   3.98041   3.99436   4.00962
 Alpha virt. eigenvalues --    4.04236   4.05379   4.05977   4.07986   4.09236
 Alpha virt. eigenvalues --    4.10209   4.11734   4.12363   4.16046   4.16749
 Alpha virt. eigenvalues --    4.18291   4.20958   4.22685   4.23463   4.24671
 Alpha virt. eigenvalues --    4.26874   4.27987   4.30950   4.32415   4.35046
 Alpha virt. eigenvalues --    4.38343   4.39164   4.44939   4.46930   4.49061
 Alpha virt. eigenvalues --    4.53575   4.54656   4.56396   4.57646   4.61123
 Alpha virt. eigenvalues --    4.63937   4.65961   4.69812   4.71535   4.74911
 Alpha virt. eigenvalues --    4.75828   4.79389   4.80771   4.83257   4.85263
 Alpha virt. eigenvalues --    4.87029   4.89232   4.92464   4.93512   4.94862
 Alpha virt. eigenvalues --    4.96577   5.00712   5.02784   5.06531   5.07633
 Alpha virt. eigenvalues --    5.08750   5.12004   5.15073   5.16721   5.18894
 Alpha virt. eigenvalues --    5.21462   5.25587   5.27915   5.28950   5.30185
 Alpha virt. eigenvalues --    5.33912   5.37265   5.41662   5.45565   5.51266
 Alpha virt. eigenvalues --    5.57946   5.61613   5.68485   5.71241   5.79747
 Alpha virt. eigenvalues --    5.81082   5.90789   5.92155   6.00278   6.03003
 Alpha virt. eigenvalues --    6.08495   6.11071   6.28741   6.36332   6.40816
 Alpha virt. eigenvalues --    6.47591   6.52287   6.62086   6.70627   6.81014
 Alpha virt. eigenvalues --    6.82609   6.96291   6.98503   7.23112   7.37181
 Alpha virt. eigenvalues --    7.53041   7.78978   9.92935  10.46811  10.70747
 Alpha virt. eigenvalues --   11.77408  12.07945  12.35042  12.70711  13.65633
  Beta  occ. eigenvalues --  -19.17913 -19.17635 -10.23351 -10.19217 -10.18804
  Beta  occ. eigenvalues --  -10.18349 -10.18274 -10.18185  -1.17934  -0.90334
  Beta  occ. eigenvalues --   -0.82694  -0.74566  -0.72314  -0.62305  -0.59210
  Beta  occ. eigenvalues --   -0.56087  -0.52528  -0.49531  -0.47208  -0.45890
  Beta  occ. eigenvalues --   -0.43897  -0.41800  -0.39846  -0.38394  -0.36544
  Beta  occ. eigenvalues --   -0.33515  -0.33000  -0.29541  -0.26544  -0.25247
  Beta virt. eigenvalues --   -0.08359  -0.00535   0.02915   0.04221   0.06205
  Beta virt. eigenvalues --    0.06652   0.08112   0.09708   0.11017   0.11113
  Beta virt. eigenvalues --    0.12709   0.15615   0.17065   0.17493   0.20103
  Beta virt. eigenvalues --    0.21927   0.22927   0.25210   0.26606   0.28275
  Beta virt. eigenvalues --    0.30564   0.30965   0.32297   0.32910   0.33417
  Beta virt. eigenvalues --    0.35273   0.36267   0.38465   0.39203   0.41221
  Beta virt. eigenvalues --    0.42417   0.42611   0.42749   0.43715   0.44166
  Beta virt. eigenvalues --    0.45294   0.45725   0.46344   0.47406   0.47723
  Beta virt. eigenvalues --    0.48770   0.49528   0.51136   0.51237   0.52892
  Beta virt. eigenvalues --    0.53876   0.56079   0.61312   0.62262   0.64086
  Beta virt. eigenvalues --    0.64248   0.65882   0.67517   0.69176   0.70596
  Beta virt. eigenvalues --    0.71241   0.74565   0.75214   0.77467   0.78585
  Beta virt. eigenvalues --    0.80924   0.84462   0.87109   0.87704   0.88977
  Beta virt. eigenvalues --    0.92958   0.93693   0.95612   0.96192   0.97343
  Beta virt. eigenvalues --    0.98982   1.00010   1.01128   1.04260   1.05830
  Beta virt. eigenvalues --    1.06558   1.08483   1.09656   1.11328   1.12720
  Beta virt. eigenvalues --    1.14733   1.14899   1.16382   1.17165   1.17912
  Beta virt. eigenvalues --    1.19654   1.20864   1.21562   1.23505   1.24265
  Beta virt. eigenvalues --    1.26663   1.26962   1.28829   1.29733   1.31971
  Beta virt. eigenvalues --    1.33134   1.34419   1.34677   1.37387   1.40221
  Beta virt. eigenvalues --    1.40501   1.42639   1.43141   1.45163   1.46494
  Beta virt. eigenvalues --    1.48059   1.49287   1.51818   1.53180   1.57314
  Beta virt. eigenvalues --    1.59019   1.60435   1.63921   1.70046   1.71672
  Beta virt. eigenvalues --    1.73182   1.75578   1.79910   1.86961   1.94721
  Beta virt. eigenvalues --    1.97811   2.01830   2.03876   2.06581   2.10239
  Beta virt. eigenvalues --    2.11932   2.16514   2.18962   2.24180   2.26470
  Beta virt. eigenvalues --    2.28660   2.31107   2.34408   2.37274   2.38484
  Beta virt. eigenvalues --    2.39983   2.42709   2.44166   2.45697   2.47978
  Beta virt. eigenvalues --    2.49576   2.53124   2.54364   2.55257   2.56624
  Beta virt. eigenvalues --    2.59440   2.60582   2.60800   2.64243   2.64367
  Beta virt. eigenvalues --    2.66659   2.68097   2.69370   2.71687   2.73609
  Beta virt. eigenvalues --    2.77798   2.79295   2.80482   2.81274   2.84307
  Beta virt. eigenvalues --    2.85182   2.88800   2.91003   2.91572   2.92122
  Beta virt. eigenvalues --    2.93898   2.95486   2.96956   2.98608   3.02808
  Beta virt. eigenvalues --    3.03061   3.04512   3.06528   3.07051   3.08720
  Beta virt. eigenvalues --    3.10462   3.10757   3.13272   3.13624   3.14064
  Beta virt. eigenvalues --    3.15438   3.19111   3.20507   3.21384   3.22940
  Beta virt. eigenvalues --    3.23057   3.25612   3.28267   3.29434   3.30788
  Beta virt. eigenvalues --    3.31485   3.32026   3.32427   3.34589   3.35801
  Beta virt. eigenvalues --    3.37515   3.40552   3.41140   3.41997   3.44014
  Beta virt. eigenvalues --    3.46459   3.47003   3.48631   3.50767   3.53091
  Beta virt. eigenvalues --    3.55568   3.58551   3.61109   3.61982   3.63073
  Beta virt. eigenvalues --    3.63528   3.66788   3.67732   3.69654   3.70619
  Beta virt. eigenvalues --    3.71887   3.73454   3.74484   3.75587   3.79049
  Beta virt. eigenvalues --    3.79291   3.80904   3.81514   3.82340   3.86091
  Beta virt. eigenvalues --    3.86838   3.87792   3.89760   3.90288   3.92900
  Beta virt. eigenvalues --    3.93357   3.96063   3.96885   3.98527   3.99560
  Beta virt. eigenvalues --    4.01331   4.04400   4.05904   4.06432   4.08230
  Beta virt. eigenvalues --    4.09391   4.10559   4.12059   4.12550   4.16463
  Beta virt. eigenvalues --    4.17072   4.18581   4.21186   4.23044   4.23671
  Beta virt. eigenvalues --    4.24970   4.27127   4.28150   4.31385   4.32650
  Beta virt. eigenvalues --    4.35396   4.38610   4.39565   4.45117   4.47118
  Beta virt. eigenvalues --    4.49334   4.54014   4.54888   4.56604   4.58069
  Beta virt. eigenvalues --    4.61495   4.64274   4.66304   4.70085   4.71871
  Beta virt. eigenvalues --    4.75097   4.76115   4.79859   4.81020   4.83425
  Beta virt. eigenvalues --    4.85460   4.87269   4.89419   4.92850   4.93804
  Beta virt. eigenvalues --    4.95260   4.96909   5.01228   5.02972   5.06638
  Beta virt. eigenvalues --    5.07877   5.08908   5.12316   5.15375   5.17060
  Beta virt. eigenvalues --    5.19074   5.21694   5.25788   5.28129   5.29029
  Beta virt. eigenvalues --    5.30396   5.34080   5.37436   5.41817   5.45887
  Beta virt. eigenvalues --    5.51444   5.58027   5.61882   5.68804   5.71546
  Beta virt. eigenvalues --    5.79881   5.81363   5.90954   5.92302   6.00365
  Beta virt. eigenvalues --    6.03096   6.08556   6.11149   6.28788   6.36378
  Beta virt. eigenvalues --    6.40848   6.47617   6.52316   6.62106   6.70653
  Beta virt. eigenvalues --    6.81059   6.82652   6.96328   6.98545   7.23142
  Beta virt. eigenvalues --    7.37212   7.53066   7.78997   9.93221  10.47286
  Beta virt. eigenvalues --   10.71664  11.77545  12.08147  12.35140  12.70872
  Beta virt. eigenvalues --   13.65705
          Condensed to atoms (all electrons):
               1          2          3          4          5          6
     1  C    4.886477   0.333722  -0.046618  -0.008324  -0.051285   0.331162
     2  C    0.333722   4.994889   0.579941  -0.034478  -0.013016  -0.035328
     3  C   -0.046618   0.579941   5.081367   0.302146  -0.039785  -0.014444
     4  C   -0.008324  -0.034478   0.302146   4.730936   0.294362  -0.041305
     5  C   -0.051285  -0.013016  -0.039785   0.294362   5.427135   0.321763
     6  C    0.331162  -0.035328  -0.014444  -0.041305   0.321763   4.880599
     7  H   -0.035275   0.006624   0.000130   0.005486  -0.032865   0.406282
     8  H   -0.031742  -0.003006   0.007071  -0.009635  -0.044764   0.392618
     9  H   -0.000995  -0.003318   0.006852  -0.035281   0.387387  -0.050724
    10  H    0.007891  -0.051104   0.414611  -0.037406   0.009397  -0.001467
    11  H   -0.040516   0.416497  -0.046246   0.006738  -0.001248   0.006218
    12  H    0.403124  -0.036184   0.003585  -0.000966   0.009520  -0.033778
    13  H    0.396505  -0.039437  -0.001833   0.000281  -0.003189  -0.028853
    14  O   -0.000433   0.002904  -0.039094   0.310548  -0.072092  -0.004350
    15  H   -0.000338   0.000794  -0.037480   0.430125  -0.067526   0.008596
    16  O    0.000131  -0.000384   0.011467  -0.070104   0.020471   0.000473
    17  H    0.000009   0.000278  -0.001809  -0.009185   0.011988   0.000193
               7          8          9         10         11         12
     1  C   -0.035275  -0.031742  -0.000995   0.007891  -0.040516   0.403124
     2  C    0.006624  -0.003006  -0.003318  -0.051104   0.416497  -0.036184
     3  C    0.000130   0.007071   0.006852   0.414611  -0.046246   0.003585
     4  C    0.005486  -0.009635  -0.035281  -0.037406   0.006738  -0.000966
     5  C   -0.032865  -0.044764   0.387387   0.009397  -0.001248   0.009520
     6  C    0.406282   0.392618  -0.050724  -0.001467   0.006218  -0.033778
     7  H    0.610323  -0.034478  -0.006423   0.000108  -0.000353  -0.003141
     8  H   -0.034478   0.621600   0.009090  -0.000387   0.000032  -0.008024
     9  H   -0.006423   0.009090   0.612025  -0.000505   0.000081  -0.000088
    10  H    0.000108  -0.000387  -0.000505   0.553540  -0.009375  -0.000337
    11  H   -0.000353   0.000032   0.000081  -0.009375   0.553202  -0.004905
    12  H   -0.003141  -0.008024  -0.000088  -0.000337  -0.004905   0.610061
    13  H   -0.006743   0.007785   0.004162  -0.000424   0.000020  -0.031395
    14  O   -0.000312   0.014502   0.004587   0.004517  -0.000134   0.000018
    15  H   -0.000385   0.001766  -0.004589  -0.007875  -0.000440  -0.000006
    16  O   -0.000025  -0.000445   0.000143  -0.000002   0.000010   0.000002
    17  H   -0.000050  -0.000840  -0.000340   0.000005  -0.000002  -0.000000
              13         14         15         16         17
     1  C    0.396505  -0.000433  -0.000338   0.000131   0.000009
     2  C   -0.039437   0.002904   0.000794  -0.000384   0.000278
     3  C   -0.001833  -0.039094  -0.037480   0.011467  -0.001809
     4  C    0.000281   0.310548   0.430125  -0.070104  -0.009185
     5  C   -0.003189  -0.072092  -0.067526   0.020471   0.011988
     6  C   -0.028853  -0.004350   0.008596   0.000473   0.000193
     7  H   -0.006743  -0.000312  -0.000385  -0.000025  -0.000050
     8  H    0.007785   0.014502   0.001766  -0.000445  -0.000840
     9  H    0.004162   0.004587  -0.004589   0.000143  -0.000340
    10  H   -0.000424   0.004517  -0.007875  -0.000002   0.000005
    11  H    0.000020  -0.000134  -0.000440   0.000010  -0.000002
    12  H   -0.031395   0.000018  -0.000006   0.000002  -0.000000
    13  H    0.610374  -0.000062   0.000145   0.000006  -0.000004
    14  O   -0.000062   7.995306  -0.042742   0.039912  -0.037926
    15  H    0.000145  -0.042742   0.646579   0.009126  -0.002247
    16  O    0.000006   0.039912   0.009126   7.879993   0.329190
    17  H   -0.000004  -0.037926  -0.002247   0.329190   0.483828
          Atomic-Atomic Spin Densities.
               1          2          3          4          5          6
     1  C    0.087874   0.000516   0.002830   0.001191  -0.034214   0.013585
     2  C    0.000516   0.005652   0.002086   0.003103  -0.006875   0.003750
     3  C    0.002830   0.002086   0.039596   0.009515  -0.017364  -0.000419
     4  C    0.001191   0.003103   0.009515  -0.015587  -0.020028   0.004903
     5  C   -0.034214  -0.006875  -0.017364  -0.020028   1.033605  -0.026393
     6  C    0.013585   0.003750  -0.000419   0.004903  -0.026393  -0.027367
     7  H   -0.008261  -0.000209  -0.000084  -0.000446  -0.003262   0.004898
     8  H   -0.005490  -0.000170  -0.000501   0.000210  -0.001648   0.001801
     9  H   -0.003155  -0.000637  -0.002215   0.004224   0.007284   0.003960
    10  H   -0.000358  -0.001729  -0.000668  -0.003292   0.002902  -0.000211
    11  H   -0.000146   0.004125  -0.001838   0.000293  -0.001449   0.000119
    12  H   -0.005984  -0.000446   0.000342  -0.000341   0.003628  -0.002494
    13  H   -0.003105  -0.001075  -0.000041  -0.000111   0.003006   0.000065
    14  O   -0.000375  -0.000094  -0.003471   0.002335  -0.003465   0.000456
    15  H   -0.000089  -0.000278  -0.002740   0.002293  -0.001105  -0.000249
    16  O   -0.000017   0.000012  -0.000014  -0.000200  -0.002783  -0.000023
    17  H    0.000060  -0.000011   0.000145  -0.000461   0.002713  -0.000197
               7          8          9         10         11         12
     1  C   -0.008261  -0.005490  -0.003155  -0.000358  -0.000146  -0.005984
     2  C   -0.000209  -0.000170  -0.000637  -0.001729   0.004125  -0.000446
     3  C   -0.000084  -0.000501  -0.002215  -0.000668  -0.001838   0.000342
     4  C   -0.000446   0.000210   0.004224  -0.003292   0.000293  -0.000341
     5  C   -0.003262  -0.001648   0.007284   0.002902  -0.001449   0.003628
     6  C    0.004898   0.001801   0.003960  -0.000211   0.000119  -0.002494
     7  H    0.010232   0.001407   0.001202   0.000016  -0.000031   0.001247
     8  H    0.001407   0.006833  -0.000075   0.000115  -0.000081   0.001108
     9  H    0.001202  -0.000075  -0.024558   0.000181  -0.000075   0.000256
    10  H    0.000016   0.000115   0.000181   0.010581  -0.001073   0.000151
    11  H   -0.000031  -0.000081  -0.000075  -0.001073   0.001879  -0.001078
    12  H    0.001247   0.001108   0.000256   0.000151  -0.001078   0.010437
    13  H    0.000445   0.000172   0.000286   0.000092  -0.000377   0.001826
    14  O    0.000057   0.000098  -0.000012   0.000541  -0.000032   0.000030
    15  H    0.000008   0.000010   0.000737   0.000421  -0.000011   0.000007
    16  O    0.000008   0.000051   0.000035  -0.000033   0.000000   0.000000
    17  H   -0.000036  -0.000100  -0.000029  -0.000025   0.000002  -0.000004
              13         14         15         16         17
     1  C   -0.003105  -0.000375  -0.000089  -0.000017   0.000060
     2  C   -0.001075  -0.000094  -0.000278   0.000012  -0.000011
     3  C   -0.000041  -0.003471  -0.002740  -0.000014   0.000145
     4  C   -0.000111   0.002335   0.002293  -0.000200  -0.000461
     5  C    0.003006  -0.003465  -0.001105  -0.002783   0.002713
     6  C    0.000065   0.000456  -0.000249  -0.000023  -0.000197
     7  H    0.000445   0.000057   0.000008   0.000008  -0.000036
     8  H    0.000172   0.000098   0.000010   0.000051  -0.000100
     9  H    0.000286  -0.000012   0.000737   0.000035  -0.000029
    10  H    0.000092   0.000541   0.000421  -0.000033  -0.000025
    11  H   -0.000377  -0.000032  -0.000011   0.000000   0.000002
    12  H    0.001826   0.000030   0.000007   0.000000  -0.000004
    13  H   -0.001351   0.000011   0.000011   0.000001  -0.000002
    14  O    0.000011   0.006566   0.000510   0.000357   0.000100
    15  H    0.000011   0.000510   0.001413   0.000196  -0.000058
    16  O    0.000001   0.000357   0.000196   0.005705   0.000259
    17  H   -0.000002   0.000100  -0.000058   0.000259  -0.001390
 Mulliken charges and spin densities:
               1          2
     1  C   -0.143494   0.044862
     2  C   -0.119396   0.007720
     3  C   -0.179861   0.025160
     4  C    0.166062  -0.012400
     5  C   -0.156253   0.934553
     6  C   -0.137656  -0.023815
     7  H    0.091094   0.007191
     8  H    0.078858   0.003741
     9  H    0.077937  -0.012592
    10  H    0.118815   0.007612
    11  H    0.120419   0.000227
    12  H    0.092515   0.008683
    13  H    0.092661  -0.000148
    14  O   -0.175147   0.003613
    15  H    0.066496   0.001076
    16  O   -0.219964   0.003554
    17  H    0.226915   0.000965
 Sum of Mulliken charges =  -0.00000   1.00000
 Mulliken charges and spin densities with hydrogens summed into heavy atoms:
               1          2
     1  C    0.041682   0.053396
     2  C    0.001023   0.007947
     3  C   -0.061046   0.032772
     4  C    0.232558  -0.011324
     5  C   -0.078316   0.921961
     6  C    0.032297  -0.012884
    14  O   -0.175147   0.003613
    16  O    0.006951   0.004519
 APT charges:
               1
     1  C   -0.872990
     2  C   -0.395458
     3  C   -0.644778
     4  C   -0.363767
     5  C   -0.294928
     6  C   -0.705591
     7  H    0.483616
     8  H    0.211470
     9  H    0.312448
    10  H    0.506951
    11  H    0.587725
    12  H    0.459685
    13  H    0.418045
    14  O    0.063216
    15  H    0.341892
    16  O   -0.604832
    17  H    0.497295
 Sum of APT charges =  -0.00000
 APT charges with hydrogens summed into heavy atoms:
               1
     1  C    0.004740
     2  C    0.192266
     3  C   -0.137827
     4  C   -0.021875
     5  C    0.017520
     6  C   -0.010504
    14  O    0.063216
    16  O   -0.107537
 Electronic spatial extent (au):  <R**2>=            963.6139
 Charge=             -0.0000 electrons
 Dipole moment (field-independent basis, Debye):
    X=             -1.8879    Y=             -0.9815    Z=              0.1294  Tot=              2.1317
 Quadrupole moment (field-independent basis, Debye-Ang):
   XX=            -48.5356   YY=            -45.9315   ZZ=            -49.1426
   XY=             -3.3902   XZ=             -0.3520   YZ=              2.1051
 Traceless Quadrupole moment (field-independent basis, Debye-Ang):
   XX=             -0.6657   YY=              1.9384   ZZ=             -1.2727
   XY=             -3.3902   XZ=             -0.3520   YZ=              2.1051
 Octapole moment (field-independent basis, Debye-Ang**2):
  XXX=              7.0846  YYY=              4.3171  ZZZ=             -2.8891  XYY=              9.2348
  XXY=            -10.4903  XXZ=             -6.3779  XZZ=              6.1625  YZZ=             -2.1154
  YYZ=             -3.4600  XYZ=              5.9598
 Hexadecapole moment (field-independent basis, Debye-Ang**3):
 XXXX=           -783.1546 YYYY=           -327.5058 ZZZZ=           -133.6443 XXXY=            -40.9034
 XXXZ=            -15.1518 YYYX=             -7.8943 YYYZ=              2.8583 ZZZX=             -5.8916
 ZZZY=              2.7078 XXYY=           -166.5483 XXZZ=           -149.0269 YYZZ=            -84.3768
 XXYZ=              7.6803 YYXZ=             -4.3455 ZZXY=              1.7074
 N-N= 3.799597276503D+02 E-N=-1.657322458489D+03  KE= 3.819191241245D+02
  Exact polarizability:       0.000       0.000       0.000       0.000       0.000       0.000
 Approx polarizability:     132.059       2.730     106.291       7.519       1.696      95.025
                          Isotropic Fermi Contact Couplings
        Atom                 a.u.       MegaHertz       Gauss      10(-4) cm-1
     1  C(13)              0.03769      42.36959      15.11852      14.13297
     2  C(13)             -0.00191      -2.14318      -0.76474      -0.71489
     3  C(13)              0.02429      27.30309       9.74242       9.10733
     4  C(13)             -0.01288     -14.48237      -5.16767      -4.83080
     5  C(13)              0.24975     280.76846     100.18517      93.65428
     6  C(13)             -0.00759      -8.52928      -3.04346      -2.84506
     7  H(1)               0.00498      22.26236       7.94376       7.42592
     8  H(1)               0.00243      10.88086       3.88256       3.62946
     9  H(1)              -0.00272     -12.17701      -4.34506      -4.06181
    10  H(1)               0.00313      14.00248       4.99643       4.67072
    11  H(1)               0.00104       4.65224       1.66003       1.55182
    12  H(1)               0.00239      10.70378       3.81937       3.57040
    13  H(1)              -0.00072      -3.20097      -1.14218      -1.06773
    14  O(17)              0.01315      -7.97117      -2.84431      -2.65890
    15  H(1)               0.00145       6.50069       2.31961       2.16840
    16  O(17)             -0.00079       0.48124       0.17172       0.16052
    17  H(1)               0.00004       0.15997       0.05708       0.05336
 --------------------------------------------------------
       Center         ----  Spin Dipole Couplings  ----
                      3XX-RR        3YY-RR        3ZZ-RR
 --------------------------------------------------------
     1   Atom        0.031844      0.010694     -0.042538
     2   Atom       -0.002353     -0.002193      0.004547
     3   Atom        0.000119      0.016902     -0.017020
     4   Atom       -0.023605      0.036205     -0.012600
     5   Atom        0.333582      0.174954     -0.508536
     6   Atom        0.030817     -0.021877     -0.008940
     7   Atom        0.005341      0.000865     -0.006207
     8   Atom       -0.007057     -0.009713      0.016770
     9   Atom       -0.012566     -0.031991      0.044557
    10   Atom       -0.002900      0.007312     -0.004412
    11   Atom        0.000125      0.001542     -0.001667
    12   Atom        0.002508     -0.003830      0.001322
    13   Atom        0.009507     -0.006958     -0.002550
    14   Atom       -0.003023     -0.015105      0.018128
    15   Atom       -0.002314      0.011230     -0.008916
    16   Atom       -0.007716      0.019191     -0.011475
    17   Atom        0.007145     -0.005103     -0.002043
 --------------------------------------------------------
                        XY            XZ            YZ
 --------------------------------------------------------
     1   Atom       -0.061773      0.009823     -0.006486
     2   Atom       -0.006381     -0.001737     -0.000911
     3   Atom       -0.034417      0.021795     -0.026437
     4   Atom        0.014123     -0.008358     -0.031801
     5   Atom       -0.761585      0.006753     -0.008142
     6   Atom       -0.015037      0.034771     -0.003801
     7   Atom        0.011942      0.008040      0.006942
     8   Atom       -0.000597      0.007960      0.001180
     9   Atom       -0.021881     -0.042280     -0.011937
    10   Atom        0.001478      0.001454     -0.000967
    11   Atom       -0.003329      0.001943     -0.002080
    12   Atom       -0.001757      0.006917      0.001314
    13   Atom       -0.002837     -0.003701     -0.000229
    14   Atom        0.001349     -0.021665     -0.009065
    15   Atom        0.011061      0.004879      0.007509
    16   Atom        0.012307     -0.006581     -0.014764
    17   Atom        0.001386     -0.008150      0.000584
 --------------------------------------------------------


 ---------------------------------------------------------------------------------
              Anisotropic Spin Dipole Couplings in Principal Axis System
 ---------------------------------------------------------------------------------

       Atom             a.u.   MegaHertz   Gauss  10(-4) cm-1        Axes

              Baa    -0.0443    -5.940    -2.119    -1.981 -0.3408 -0.2771  0.8984
     1 C(13)  Bbb    -0.0407    -5.468    -1.951    -1.824  0.5508  0.7156  0.4297
              Bcc     0.0850    11.408     4.071     3.805  0.7619 -0.6412  0.0913
 
              Baa    -0.0089    -1.197    -0.427    -0.399  0.7089  0.6916  0.1382
     2 C(13)  Bbb     0.0038     0.509     0.182     0.170 -0.5620  0.6724 -0.4817
              Bcc     0.0051     0.688     0.245     0.229 -0.4261  0.2638  0.8654
 
              Baa    -0.0325    -4.360    -1.556    -1.454 -0.3537  0.2377  0.9046
     3 C(13)  Bbb    -0.0268    -3.599    -1.284    -1.200  0.7442  0.6574  0.1182
              Bcc     0.0593     7.959     2.840     2.655 -0.5666  0.7151 -0.4095
 
              Baa    -0.0290    -3.895    -1.390    -1.299  0.5072  0.2865  0.8128
     4 C(13)  Bbb    -0.0263    -3.524    -1.257    -1.175  0.8375 -0.3862 -0.3865
              Bcc     0.0553     7.418     2.647     2.474  0.2031  0.8768 -0.4358
 
              Baa    -0.5121   -68.719   -24.521   -22.922  0.6115  0.6825  0.4003
     5 C(13)  Bbb    -0.5079   -68.161   -24.321   -22.736 -0.2727 -0.2932  0.9163
              Bcc     1.0200   136.880    48.842    45.658  0.7428 -0.6695  0.0068
 
              Baa    -0.0317    -4.249    -1.516    -1.417 -0.5084 -0.5122  0.6922
     6 C(13)  Bbb    -0.0223    -2.988    -1.066    -0.997 -0.1138  0.8368  0.5356
              Bcc     0.0539     7.237     2.582     2.414  0.8535 -0.1936  0.4837
 
              Baa    -0.0106    -5.654    -2.018    -1.886 -0.2120 -0.3351  0.9180
     7 H(1)   Bbb    -0.0090    -4.814    -1.718    -1.606 -0.6716  0.7323  0.1122
              Bcc     0.0196    10.469     3.735     3.492  0.7099  0.5928  0.3803
 
              Baa    -0.0105    -5.619    -2.005    -1.874  0.6176  0.7572 -0.2128
     8 H(1)   Bbb    -0.0087    -4.634    -1.653    -1.546  0.7314 -0.6524 -0.1985
              Bcc     0.0192    10.253     3.658     3.420  0.2891  0.0331  0.9567
 
              Baa    -0.0585   -31.202   -11.134   -10.408  0.6425  0.6853  0.3430
     9 H(1)   Bbb    -0.0085    -4.556    -1.626    -1.520 -0.6064  0.7283 -0.3192
              Bcc     0.0670    35.758    12.760    11.928 -0.4685 -0.0030  0.8834
 
              Baa    -0.0055    -2.932    -1.046    -0.978 -0.5381  0.1250  0.8336
    10 H(1)   Bbb    -0.0021    -1.107    -0.395    -0.369  0.8327 -0.0745  0.5487
              Bcc     0.0076     4.039     1.441     1.347  0.1307  0.9894 -0.0640
 
              Baa    -0.0029    -1.554    -0.555    -0.518 -0.5764 -0.0499  0.8157
    11 H(1)   Bbb    -0.0025    -1.317    -0.470    -0.439  0.5644  0.6975  0.4415
              Bcc     0.0054     2.871     1.025     0.958 -0.5909  0.7149 -0.3738
 
              Baa    -0.0067    -3.559    -1.270    -1.187  0.5494  0.6061 -0.5751
    12 H(1)   Bbb    -0.0022    -1.174    -0.419    -0.392 -0.3885  0.7947  0.4664
              Bcc     0.0089     4.733     1.689     1.579  0.7397 -0.0328  0.6721
 
              Baa    -0.0076    -4.053    -1.446    -1.352  0.2007  0.9609  0.1909
    13 H(1)   Bbb    -0.0034    -1.791    -0.639    -0.597  0.2208 -0.2342  0.9468
              Bcc     0.0110     5.843     2.085     1.949  0.9545 -0.1479 -0.2591
 
              Baa    -0.0202     1.459     0.521     0.487  0.5395  0.6983  0.4705
    14 O(17)  Bbb    -0.0130     0.938     0.335     0.313 -0.6692  0.6947 -0.2638
              Bcc     0.0331    -2.397    -0.855    -0.800 -0.5110 -0.1725  0.8421
 
              Baa    -0.0118    -6.274    -2.239    -2.093 -0.2894 -0.1685  0.9422
    15 H(1)   Bbb    -0.0084    -4.490    -1.602    -1.498  0.8325 -0.5302  0.1609
              Bcc     0.0202    10.764     3.841     3.590  0.4725  0.8310  0.2937
 
              Baa    -0.0178     1.290     0.460     0.430  0.2567  0.2832  0.9241
    16 O(17)  Bbb    -0.0124     0.897     0.320     0.299  0.9033 -0.4104 -0.1252
              Bcc     0.0302    -2.187    -0.780    -0.730  0.3438  0.8668 -0.3612
 
              Baa    -0.0074    -3.968    -1.416    -1.323  0.4653 -0.4647  0.7534
    17 H(1)   Bbb    -0.0045    -2.411    -0.860    -0.804  0.1928  0.8839  0.4261
              Bcc     0.0120     6.379     2.276     2.128  0.8639  0.0530 -0.5008
 

 ---------------------------------------------------------------------------------

 No NMR shielding tensors so no spin-rotation constants.
 Leave Link  601 at Sun Apr  3 20:08:24 2022, MaxMem=  1073741824 cpu:               4.2 elap:               0.6
 (Enter /home/saurabh/g16/l701.exe)
 ... and contract with generalized density number  0.
 Compute integral second derivatives.
 Leave Link  701 at Sun Apr  3 20:08:24 2022, MaxMem=  1073741824 cpu:               2.3 elap:               0.3
 (Enter /home/saurabh/g16/l702.exe)
 L702 exits ... SP integral derivatives will be done elsewhere.
 Leave Link  702 at Sun Apr  3 20:08:24 2022, MaxMem=  1073741824 cpu:               0.2 elap:               0.0
 (Enter /home/saurabh/g16/l703.exe)
 Integral derivatives from FoFJK, PRISM(SPDF).
 Compute integral second derivatives, UseDBF=F ICtDFT=           0.
 Calling FoFJK, ICntrl=    100127 FMM=F ISym2X=0 I1Cent= 0 IOpClX= 1 NMat=1 NMatS=1 NMatT=0.
 FoFJK:  IHMeth= 1 ICntrl=  100127 DoSepK=F KAlg= 0 I1Cent=           0 FoldK=F
[...]
   zy        -0.918640D+01     -0.136128D+01     -0.151463D+01
   zz         0.872522D+02      0.129294D+02      0.143859D+02

 ----------------------------------------------------------------------
 Unable to Open any file for archive entry.
 1\1\GINC-HEL01\Freq\UB3LYP\CC-pVTZ\C6H9O2(2)\SAURABH\03-Apr-2022\0\\#P
  Geom=AllCheck Guess=TCheck SCRF=Check GenChk UB3LYP/CC-pVTZ Freq\\Mol
 _03\\0,2\C,-0.2198974079,-0.0453537095,-0.3615950984\C,-1.2247906219,1
 .020260828,-0.6900750617\C,-1.0135702734,2.320877031,-0.5111641678\C,0
 .2476398255,2.8753121615,0.0840243295\C,1.2293131658,1.8249569521,0.45
 70425626\C,1.2069160789,0.5200994964,-0.256818314\H,1.8731276706,-0.20
 06122901,0.2182883241\H,1.5863588578,0.6617719295,-1.2807682078\H,2.05
 49250828,2.0894989776,1.1027187252\H,-1.771313355,3.0464007514,-0.7777
 895416\H,-2.1808295405,0.6913138893,-1.0822374098\H,-0.2566928295,-0.8
 329623057,-1.1178677029\H,-0.5006828711,-0.5250394029,0.5828053711\O,0
 .7686566998,3.7759383695,-0.9492224362\H,0.0097239363,3.5136021284,0.9
 397025831\O,1.7147676093,4.6752023721,-0.3145600554\H,2.549551797,4.34
 05527337,-0.6679084863\\Version=EM64L-G16RevC.01\State=2-A\HF=-384.473
 0969\S2=0.754291\S2-1=0.\S2A=0.750014\RMSD=4.014e-09\RMSF=2.022e-06\Ze
 roPoint=0.1389159\Thermal=0.1471856\ETot=-384.3259113\HTot=-384.324967
 1\GTot=-384.3676368\Dipole=0.2742221,-0.8993329,0.1567974\DipoleDeriv=
 0.0667335,0.0389906,-0.0452756,0.0291404,0.0234803,0.0159613,-0.042421
 7,0.1022698,0.2050866,0.0349861,-0.1216331,0.1091083,0.0100482,0.23331
 4,0.0059684,0.1064811,-0.0504868,-0.1434798,-0.0225795,-0.0681481,0.08
 93361,-0.0703636,-0.1116942,0.0419354,0.1221955,0.0640705,-0.1776643,0
 .3825276,0.1289586,-0.0981011,0.0571881,0.5676887,-0.1106545,-0.180051
 8,-0.2644254,0.4031576,-0.0757319,-0.0142504,0.1617887,-0.0318973,0.01
 02166,0.1234621,0.1767411,0.1607125,-0.1018306,0.0541462,-0.0154845,-0
 .0417683,-0.0275773,0.0418324,-0.0628202,-0.0385901,-0.1301528,0.12074
 07,-0.0522528,0.0854862,-0.0507541,0.087148,-0.0607485,0.0408116,-0.07
 64257,0.0672921,0.0329352,0.0237222,-0.0158411,0.0425194,-0.0238198,0.
 0134234,0.0253526,0.0828052,-0.0282694,-0.1179199,-0.032999,0.0060095,
 -0.107607,-0.0091851,0.011697,-0.0576434,-0.0985446,-0.0707597,0.05527
 99,-0.0213292,0.0697833,-0.0576217,0.0666544,-0.0135813,0.0098934,-0.0
 886484,-0.0096963,0.1013198,-0.0993764,-0.0287678,-0.0802622,-0.025034
 ,0.0164084,-0.0179497,-0.0929458,-0.0380334,0.0953201,0.0232377,0.0244
 922,-0.0127969,-0.0176883,-0.0800344,-0.0833819,-0.0202223,-0.1406696,
 -0.0286348,0.0011962,0.0336097,0.0342876,-0.0220474,-0.023167,0.050877
 ,0.0521116,0.1307914,-0.0739571,-0.1175982,0.1920645,0.0487789,0.07864
 51,-0.378055,0.0492036,0.1118224,0.2935952,-0.3423255,0.0016499,-0.035
 6661,0.0120665,0.0156428,-0.0888672,-0.0916352,0.0527415,-0.0219444,-0
 .0447366,-0.3760776,-0.3533215,-0.0243168,-0.1770934,-0.3974362,0.1351
 699,-0.0655517,0.0525483,-0.2423264,0.2097452,0.0737181,0.0206181,0.06
 02392,0.2355228,-0.0745504,-0.0014963,-0.116842,0.2590352\Polar=77.789
 9403,9.2159095,95.1115542,5.4027827,3.0110782,58.1747741\Quadrupole=4.
 1208299,-2.6437358,-1.4770941,0.8195102,-0.0159875,0.7860938\PG=C01 [X
 (C6H9O2)]\NImag=0\\0.44228057,0.00683281,0.53169685,-0.01263674,0.0237
 1521,0.54591364,-0.14292146,0.05350868,-0.01990705,0.55199799,0.057476
 38,-0.14466368,0.01338663,0.07460995,0.79611629,-0.02564067,0.01531804
 ,-0.08108041,0.16143337,0.07223187,0.21947762,0.00977215,0.02158836,0.
 00165370,-0.12099260,-0.05956294,-0.02934863,0.51274397,0.00449910,-0.
 03029097,0.00122563,-0.06770751,-0.51584841,-0.05832233,-0.02295486,0.
 85031905,0.00243629,0.00922812,0.00825036,-0.03140498,-0.05625146,-0.0
 6847218,0.15076790,0.03572772,0.21028178,-0.00046205,0.00231161,0.0027
 3654,0.00122165,-0.01599767,-0.00372991,-0.16644788,-0.01690920,-0.049
 04645,0.47181580,0.00055640,0.00306588,0.00092177,-0.03032461,-0.01283
 186,-0.01480213,-0.02129804,-0.09749623,-0.02375643,-0.05569853,0.4640
 7705,0.00122092,0.00208155,-0.00653262,-0.00412356,-0.00751409,0.00328
 512,-0.04953024,-0.01945898,-0.09857228,0.05904907,0.13302498,0.459822
 48,-0.00021392,-0.02759041,-0.01762510,0.00141417,0.00122208,-0.001029
 00,-0.02492467,0.01863473,-0.01127385,-0.14509910,0.06096280,-0.031956
 23,0.44630755,-0.01356840,-0.01394850,-0.01153720,0.00114731,-0.000878
 04,0.00010992,-0.00242224,0.01382116,0.00068608,0.06986196,-0.13817103
 ,-0.00498033,-0.04504864,0.45822822,-0.00644562,-0.00844403,-0.0055076
 6,0.00024183,0.00056065,-0.00041362,-0.01400930,0.01079349,-0.00307290
 ,-0.03564644,-0.00406632,-0.07047095,0.22059020,0.12357956,0.32336890,
 -0.15170400,-0.03061018,-0.00522728,-0.03047652,-0.00358945,-0.0048717
 8,0.00227499,-0.00257742,0.00037497,0.00298657,0.01679466,0.01324292,-
 0.07632348,0.01034672,-0.01875050,0.47405684,-0.02365573,-0.09339306,-
 0.00057149,0.02092062,0.01340254,0.00149325,-0.00103673,-0.00036088,-0
 .00111552,0.00760479,-0.02192470,-0.01218932,0.00595436,-0.18215618,-0
 .06522728,-0.07080406,0.50885210,-0.00044422,0.00184605,-0.06809387,-0
 .01145185,-0.00077907,-0.00176411,0.00006412,-0.00063874,-0.00035525,-
 0.00021597,0.00630082,0.01124025,-0.01911856,-0.06035905,-0.09514662,0
 .02658815,-0.03990362,0.49506847,-0.01850765,0.02026240,-0.01216078,-0
 .00464964,-0.00459052,-0.00083162,0.00030574,-0.00029744,-0.00001014,0
 .00111515,-0.00033381,-0.00070526,0.00054520,0.00044029,0.00174941,-0.
 14173421,0.10110100,-0.07011558,0.15492544,-0.00844250,0.00989364,-0.0
 0598199,-0.00234704,-0.00126098,-0.00030126,-0.00057168,0.00023746,-0.
 00015131,-0.00203296,-0.00271352,-0.00436316,0.01928325,-0.02010659,0.
 01268333,0.10173032,-0.16098065,0.07586589,-0.11125728,0.17592875,0.00
 110580,0.00028461,-0.00135138,0.00009375,-0.00026157,0.00086363,-0.000
 29655,-0.00019628,-0.00004620,-0.00066293,-0.00245606,-0.00193258,0.01
 284939,-0.01412406,0.00731097,-0.07245403,0.07806813,-0.09795956,0.076
 87412,-0.08145288,0.10567155,-0.01645761,-0.00763305,0.02863144,0.0013
 8865,-0.00145571,0.00060226,0.00023963,0.00052964,-0.00017510,0.000524
 74,0.00043346,0.00007956,0.00177862,0.00215981,-0.00002695,-0.06780562
 ,-0.00842798,0.06950494,0.00658731,0.00222823,-0.01809411,0.07840920,-
 0.00758522,-0.00303106,0.01213093,0.00099516,-0.00017576,-0.00031507,-
 0.00003121,0.00000080,0.00019190,-0.00170309,0.00160674,0.00034018,0.0
 0783266,-0.00185662,-0.02884219,-0.00380323,-0.04532659,0.02521788,-0.
 00691757,-0.00294204,0.02026484,0.01417472,0.05386588,-0.00079283,0.00
 067719,0.00067627,-0.00014117,-0.00024827,0.00052462,0.00027547,-0.000
 54414,0.00011544,-0.00105170,0.00119268,-0.00085623,0.00269924,-0.0113
 9745,-0.01810235,0.07456964,0.03904984,-0.24298845,0.00422631,0.003123
 71,-0.01453127,-0.08059632,-0.03009033,0.27244512,-0.00050570,0.000070
 19,0.00011453,0.00011223,0.00029547,0.00014952,-0.00101708,0.00370041,
 -0.00073270,-0.01069198,-0.00831983,-0.01001452,-0.20994612,-0.0439604
 5,-0.15014600,0.00593520,0.00301351,0.00155864,0.00045868,-0.00049044,
 0.00015390,-0.00101522,-0.00040693,0.00061793,0.21663389,0.00061541,-0
 .00336560,-0.00332191,0.00051212,-0.00036526,0.00019423,0.00163375,-0.
 00374106,0.00069534,0.01802672,0.00951040,0.01243554,-0.04599136,-0.06
 681652,-0.05420870,-0.01808516,-0.00189216,-0.01269713,-0.00031408,0.0
 0129879,0.00095131,-0.00058959,-0.00122509,-0.00100986,0.04677473,0.06
 618508,0.00263680,-0.00099433,-0.00123102,0.00039371,-0.00012372,0.000
 08021,0.00007093,0.00158369,0.00101091,-0.00637097,-0.00370621,-0.0004
 5917,-0.14536221,-0.05198286,-0.13237755,-0.01292583,-0.00162855,-0.00
 118789,0.00102530,-0.00003336,0.00054940,0.00100334,0.00008873,-0.0007
 6093,0.15866487,0.05693839,0.13334183,0.00204446,-0.00132614,-0.004527
 19,0.00733673,-0.00570079,0.00081335,-0.19073578,0.13182637,-0.0549468
 4,-0.01577674,0.01812778,-0.00553450,-0.00294157,-0.00328558,-0.002396
 70,0.00026930,-0.00060243,0.00001940,0.00012579,0.00009407,0.00005829,
 -0.00000874,0.00002518,0.00008062,-0.00091102,0.00105999,-0.00012682,0
 .19772581,-0.00281882,-0.00238758,-0.00228173,0.02420343,-0.01938895,0
 .00808849,0.12995995,-0.17815998,0.04300045,-0.01008062,0.00891269,-0.
 00233787,-0.00197472,-0.00099470,-0.00090502,-0.00040684,0.00006266,0.
 00008766,0.00011952,0.00008622,0.00001217,0.00006660,0.00006885,0.0000
 1527,-0.00045180,0.00050501,-0.00027889,-0.14044107,0.19030215,-0.0039
 1571,-0.00153267,0.01101579,0.00286377,-0.00471311,0.00501646,-0.05537
 454,0.04465908,-0.05649106,-0.01033995,0.00925343,-0.00179268,-0.00131
 384,-0.00249257,-0.00047261,-0.00031390,0.00040840,-0.00020262,-0.0000
 2778,0.00008433,-0.00005663,0.00008495,0.00018893,0.00000012,-0.000466
 91,0.00061080,-0.00006549,0.06344689,-0.04592126,0.04865990,-0.0142402
 0,-0.00665681,-0.00592744,-0.26503294,-0.07387412,-0.09292734,-0.00199
 237,0.00037184,-0.00302421,0.00291803,-0.00048154,-0.00388065,0.000463
 09,0.00035795,0.00042515,-0.00071615,0.00378005,-0.00181997,-0.0011321
 0,-0.00060930,-0.00005413,0.00014564,0.00002126,0.00015412,0.00003460,
 -0.00005370,-0.00004126,0.00007913,-0.00041158,0.00302551,0.27921833,0
 .02029670,0.00910665,0.00669349,-0.06898460,-0.08034543,-0.02914344,-0
 .03064530,-0.00827599,-0.01326777,0.00183272,-0.00437266,-0.00028206,0
 .00010911,-0.00050842,0.00001410,0.00211505,-0.00344655,0.00161715,0.0
 0131997,0.00052816,0.00002048,-0.00002133,0.00001734,-0.00009205,-0.00
 015109,0.00019892,0.00004208,-0.00011775,0.00093140,0.00062938,0.07712
 251,0.08567920,-0.00589343,-0.00448093,0.00067614,-0.09302908,-0.02952
 899,-0.07832071,-0.00535362,-0.00239526,0.00352349,-0.00308849,0.00060
 118,0.01176210,0.00035118,0.00011187,0.00001249,0.00038740,0.00134562,
 0.00072437,-0.00025053,-0.00011301,0.00027776,-0.00038047,-0.00015572,
 -0.00003533,-0.00003388,-0.00006262,-0.00002541,0.00325339,0.00043622,
 -0.00635047,0.10373536,0.03479116,0.06791324,-0.04798961,-0.00483196,-
 0.00541364,0.00067709,0.01709923,0.01739165,-0.00254377,0.00203462,-0.
 00136195,-0.00153864,0.00052698,-0.00006258,-0.00559228,-0.00045853,-0
 .00099820,-0.00228464,-0.02423199,-0.01970389,0.00037226,0.00061441,-0
 .00024226,0.00176436,0.00035329,0.00005235,0.00018588,-0.00149484,-0.0
 0080097,0.00074125,0.00073670,-0.00111292,0.00079232,-0.00052586,0.000
 07865,0.05445812,-0.00568475,-0.17369270,-0.12691478,0.00031176,-0.021
 38111,-0.01600466,0.00372475,0.00003415,0.00109053,0.00019130,0.000863
 41,-0.00079919,-0.00235177,0.00003034,-0.00048964,-0.00077734,-0.00845
 153,-0.00698989,-0.00026784,0.00013812,0.00000474,0.00027745,0.0002779
 8,0.00038356,0.00003205,-0.00059280,-0.00012796,-0.00066729,-0.0009526
 2,0.00102703,-0.00011829,0.00112590,0.00072847,0.00495971,0.19250068,-
 0.00556532,-0.12871700,-0.17106994,-0.00039140,0.00797582,0.00690692,-
 0.00043194,0.00097322,-0.00037729,-0.00025763,0.00036490,-0.00011104,-
 0.00037348,-0.00005679,0.00083107,0.00070207,0.00101816,-0.00051955,-0
 .00031934,-0.00011585,-0.00029896,-0.00005939,0.00031908,0.00102608,-0
 .00002131,-0.00001606,0.00017993,0.00016743,0.00032956,-0.00046927,0.0
 0059524,-0.00053682,0.00073523,0.00620248,0.13891141,0.18482360,-0.059
 29167,-0.02516478,0.05000482,0.00700138,0.01075639,-0.01939112,-0.0012
 2735,0.00075488,-0.00035887,-0.00093441,-0.00038716,-0.00077927,0.0005
 6389,0.00237485,0.00065633,-0.01143649,-0.01386694,0.02563874,0.001357
 64,0.00059844,0.00015506,-0.00535041,-0.00309880,-0.00030789,0.0000736
 4,-0.00010664,-0.00001301,-0.00069369,0.00014710,0.00187095,-0.0005125
 1,-0.00068091,0.00087816,0.00021558,0.00048112,-0.00030002,0.06909678,
 -0.02911621,-0.08880646,0.09194104,-0.00359426,-0.01657502,0.02141224,
 0.00298973,0.00022179,0.00065789,-0.00005567,-0.00048828,0.00146234,0.
 00028969,0.00088061,0.00035727,-0.00360622,-0.00519484,0.00937195,0.00
 054490,0.00093330,-0.00039668,-0.00161923,-0.00016958,-0.00010171,-0.0
 0009197,-0.00000623,-0.00001703,0.00076425,-0.00033143,-0.00198229,0.0
 0049917,0.00002609,-0.00009373,0.00543140,0.01032878,-0.02015791,0.027
 92043,0.09923185,0.05471824,0.09086263,-0.23203956,-0.00081829,0.00522
 095,-0.00421264,-0.00115776,-0.00124607,-0.00003990,0.00024340,0.00008
 626,-0.00035994,-0.00003854,0.00028953,0.00080455,-0.00025917,-0.00197
 313,0.00261545,0.00065676,-0.00021608,0.00084278,-0.00037602,-0.000448
 81,0.00132126,0.00005685,0.00013404,-0.00000725,-0.00006079,0.00011804
 ,0.00028853,-0.00052679,0.00047325,0.00001711,0.00563407,0.00896385,-0
 .02184874,-0.05808185,-0.10213485,0.25255876,-0.00112961,-0.00035137,0
 .00031096,-0.00095850,0.00051142,-0.00092096,-0.02074746,-0.02364019,0
 .01428667,-0.05259897,0.00184693,0.01553192,0.01413023,0.00191229,-0.0
 1023398,0.00008226,-0.00085047,0.00115401,-0.00012867,0.00006527,-0.00
 005418,-0.00019888,0.00031016,0.00011814,-0.00088051,-0.00059547,0.001
 20319,0.00153584,0.00033441,0.00116801,0.00041931,-0.00023653,-0.00137
 546,0.00020805,-0.00002981,0.00005976,0.00040423,-0.00014343,-0.000071
 55,0.20691189,0.00090719,0.00000029,0.00022530,0.00042251,0.00023889,0
 .00044611,-0.02040727,-0.01476199,0.00678065,-0.01038482,-0.05594333,0
 .04590114,0.00159824,-0.03042974,0.02884380,0.00042373,0.00182596,-0.0
 0050506,0.00019316,-0.00024803,-0.00028967,0.00009197,-0.00107993,-0.0
 0070198,0.00061699,0.00056562,-0.00081438,0.00096679,0.00061832,-0.000
 40345,0.00000906,0.00014050,-0.00077947,-0.00037428,-0.00012429,-0.000
 20293,-0.00017220,0.00015200,-0.00005552,0.12271194,0.18691797,-0.0010
 3261,0.00025947,0.00046462,-0.00303401,-0.00190535,-0.00205193,0.00144
 347,-0.00609698,0.01182843,-0.00521295,0.00761201,-0.13451870,-0.00494
 102,0.02621403,-0.01457217,-0.00067875,-0.00020823,-0.00097575,-0.0001
 7496,0.00068314,0.00056866,-0.00011456,0.00130761,0.00112264,-0.000892
 43,-0.00015963,0.00064299,-0.00019539,-0.00045123,0.00074094,0.0003958
 6,-0.00074962,-0.00131758,0.00027280,0.00017562,0.00021153,0.00001106,
 -0.00031314,0.00009193,0.03703539,-0.01614337,0.26313242,-0.00009108,-
 0.00010234,-0.00060256,-0.00327279,0.00077422,-0.00152037,0.00523283,-
 0.01873675,-0.02300649,-0.06058491,0.03603635,0.03185322,-0.00147390,0
 .01749489,0.01523796,-0.00296822,0.00131393,-0.00188225,0.00020054,0.0
 0108850,0.00056159,0.00001162,-0.00009621,0.00012196,0.00040486,-0.000
 66662,0.00009893,0.00081448,0.00060306,0.00066843,-0.00086693,-0.00081
 239,0.00193788,0.00022458,-0.00004029,-0.00000107,0.00027288,-0.000057
 98,0.00000838,-0.00515902,-0.00407035,0.02058630,0.06589590,0.00028626
 ,0.00029445,-0.00014732,-0.00115080,0.00145527,-0.00051676,-0.00061766
 ,-0.00846571,-0.00954111,0.03722851,-0.13384593,-0.12481378,0.00630101
 ,-0.01681859,-0.01438683,0.00335188,-0.00090367,0.00104403,-0.00014633
 ,-0.00079140,-0.00048463,-0.00003769,0.00004854,-0.00016093,-0.0003423
 5,0.00067884,0.00087787,-0.00033308,0.00064504,0.00046188,-0.00031758,
 -0.00028837,0.00057915,-0.00001778,-0.00009379,-0.00004323,0.00006879,
 -0.00000297,-0.00007529,-0.01166152,0.00524875,0.02574205,-0.03458538,
 0.15129545,0.00012941,-0.00000895,-0.00017511,-0.00136166,0.00096306,-
 0.00065035,-0.00054127,-0.00889037,-0.00696631,0.03785775,-0.11649836,
 -0.18683822,-0.00236000,0.00462011,0.00726759,-0.00064466,0.00149671,-
 0.00015978,0.00004140,0.00031951,0.00006843,0.00000175,-0.00006057,0.0
 0007580,0.00033685,-0.00038104,0.00035673,-0.00023321,0.00012774,0.000
 36239,-0.00017959,-0.00041128,0.00032845,0.00001870,0.00001656,0.00000
 514,-0.00000135,0.00001391,-0.00004134,0.01421652,-0.00096839,-0.03650
 868,-0.04452456,0.12038836,0.21962290,-0.00056360,-0.00035481,0.000588
 44,-0.00277936,0.00222726,-0.00014374,0.00001759,-0.00902005,0.0072156
 0,-0.02271101,-0.01730588,-0.01462131,0.00113410,0.00253356,-0.0002342
 2,-0.00009624,-0.00012761,0.00024599,0.00016519,-0.00006071,0.00003644
 ,-0.00007455,-0.00004744,-0.00006240,0.00096776,-0.00077495,0.00041035
 ,0.00032894,0.00037166,-0.00031105,0.00038881,-0.00061857,-0.00118448,
 0.00030073,-0.00007078,-0.00003852,0.00047067,-0.00017434,0.00009330,-
 0.11943248,-0.09247272,-0.04654647,0.00119670,0.00180856,-0.00207510,0
 .50575253,-0.00032214,-0.00045290,0.00047022,-0.00204311,0.00231218,0.
 00032435,-0.00010616,-0.00544513,0.00464596,-0.01838502,-0.02100127,-0
 .01544718,-0.00006685,-0.00046339,0.00046780,-0.00053598,0.00025506,0.
 00020707,0.00009253,-0.00000234,0.00009214,-0.00007710,0.00001873,-0.0
 0005590,-0.00047471,-0.00049528,-0.00052352,-0.00060045,-0.00000182,-0
 .00030531,0.00025317,-0.00038791,-0.00076594,0.00005674,-0.00003440,-0
 .00008836,0.00022218,-0.00017195,0.00001152,-0.05580436,-0.09353218,-0
 .04476103,0.00183340,0.00174714,-0.00068456,-0.05489389,0.21177562,0.0
 0006184,0.00001192,0.00016054,0.00068416,0.00093496,0.00081125,0.00198
 823,0.00290541,-0.00120919,0.01436376,0.00554868,0.01824212,-0.0015461
 1,0.00133094,-0.00045390,0.00059957,-0.00026209,-0.00033214,-0.0000035
 8,-0.00005054,0.00003535,-0.00009385,0.00005775,0.00013374,0.00084718,
 -0.00034318,0.00053621,0.00018595,-0.00003396,-0.00013305,0.00004944,0
 .00021619,0.00017515,0.00010660,0.00009943,0.00000669,-0.00002461,-0.0
 0002636,-0.00001573,-0.04288981,-0.05917189,-0.09056442,0.00073747,0.0
 0115227,0.00292429,-0.11842052,0.14117907,0.15648334,-0.00001902,0.000
 04779,-0.00001266,-0.00006607,-0.00020120,-0.00003500,0.00004207,-0.00
 050818,0.00026015,-0.00373625,-0.00113596,0.00023053,0.00017822,0.0001
 1422,-0.00001299,-0.00005959,-0.00008431,-0.00002173,-0.00000667,0.000
 10940,-0.00003015,0.00006125,-0.00002271,0.00003654,0.00016089,0.00004
 968,0.00013365,0.00006580,0.00004304,0.00004809,0.00003394,-0.00000174
 ,-0.00003259,0.00000870,0.00003003,0.00003245,-0.00001015,0.00001974,-
 0.00002024,-0.02245772,-0.00005993,0.00307827,0.00016246,0.00016516,-0
 .00068099,-0.36506579,0.13085178,0.14335426,0.39070792,-0.00027648,-0.
 00002526,0.00004619,-0.00047959,0.00018933,-0.00021285,-0.00024244,-0.
 00178807,0.00137894,-0.00581003,0.00075265,-0.00305978,0.00083582,0.00
 018799,-0.00073000,0.00003352,-0.00036750,0.00031407,0.00005111,0.0000
 0111,-0.00003658,-0.00010021,-0.00009817,-0.00003961,0.00018621,-0.000
 44267,0.00070007,0.00021017,0.00008474,0.00002738,0.00010790,-0.000128
 82,-0.00021800,0.00012217,0.00002388,0.00004280,0.00015326,-0.00002765
 ,-0.00001032,-0.03437926,0.00041117,0.00879465,0.00002395,-0.00020306,
 -0.00004245,0.16898072,-0.09412017,-0.09354860,-0.12941682,0.09555050,
 0.00005784,-0.00010687,-0.00007577,-0.00004753,0.00005169,0.00000012,-
 0.00021999,-0.00007908,0.00059215,0.00137288,0.00037879,-0.00190765,0.
 00044794,-0.00001173,0.00099476,-0.00033883,0.00019909,0.00003706,0.00
 002624,0.00001953,-0.00001195,0.00000855,-0.00019513,-0.00016652,-0.00
 019253,0.00024048,-0.00058350,-0.00000386,-0.00000564,-0.00005025,0.00
 000068,-0.00001427,-0.00009601,-0.00006090,-0.00007507,-0.00003140,0.0
 0004288,0.00000705,0.00002474,-0.02953864,-0.00216089,0.00170506,-0.00
 027483,-0.00007572,0.00032807,0.17504769,-0.08476633,-0.08680022,-0.14
 632759,0.08659410,0.08604130\\-0.00000054,0.00000017,0.00000091,0.0000
 0024,0.00000059,0.00000046,-0.00000077,-0.00000002,0.00000011,0.000006
 21,-0.00000281,-0.00000072,-0.00000822,0.00000307,-0.00000388,0.000000
 45,-0.00000090,-0.00000062,-0.00000027,-0.00000017,0.00000046,-0.00000
 029,-0.00000058,0.00000039,0.00000396,0.00000142,0.00000288,0.00000025
 ,0.00000010,-0.00000017,-0.00000030,0.00000019,0.00000023,-0.00000046,
 -0.00000014,0.00000062,-0.00000027,0.00000039,0.00000085,-0.00000195,-
 0.00000177,-0.00000145,-0.00000003,0.00000047,0.00000016,-0.00000160,0
 .00000164,0.00000174,0.00000357,-0.00000166,-0.00000197\\\@
 The archive entry for this job was punched.


 A people that values its privileges above its principles soon loses both.
 -- Dwight D. Eisenhower
 Job cpu time:       0 days  2 hours 55 minutes 17.2 seconds.
 Elapsed time:       0 days  0 hours 21 minutes 54.1 seconds.
 File lengths (MBytes):  RWF=    346 Int=      0 D2E=      0 Chk=     16 Scr=      1
 Normal termination of Gaussian 16 at Sun Apr  3 21:18:43 2022.
