 Entering Gaussian System, Link 0=g16
 Input=Mol_01.com
 Output=Mol_01.log
 Initial command:
 /home/saurabh/g16/l1.exe "/scratch/saurabh/PBS_8053880.helios/Gau-33315.inp" -scrdir="/scratch/saurabh/PBS_8053880.helios/"
 Entering Link 1 = /home/saurabh/g16/l1.exe PID=     33360.
  
 Copyright (c) 1988-2019, Gaussian, Inc.  All Rights Reserved.
  
 This is part of the Gaussian(R) 16 program.  It is based on
 the Gaussian(R) 09 system (copyright 2009, Gaussian, Inc.),
 the Gaussian(R) 03 system (copyright 2003, Gaussian, Inc.),
 the Gaussian(R) 98 system (copyright 1998, Gaussian, Inc.),
 the Gaussian(R) 94 system (copyright 1995, Gaussian, Inc.),
 the Gaussian 92(TM) system (copyright 1992, Gaussian, Inc.),
 the Gaussian 90(TM) system (copyright 1990, Gaussian, Inc.),
 the Gaussian 88(TM) system (copyright 1988, Gaussian, Inc.),
 the Gaussian 86(TM) system (copyright 1986, Carnegie Mellon
 University), and the Gaussian 82(TM) system (copyright 1983,
 Carnegie Mellon University). Gaussian is a federally registered
 trademark of Gaussian, Inc.
  
 This software contains proprietary and confidential information,
 including trade secrets, belonging to Gaussian, Inc.
  
 This software is provided under written license and may be
 used, copied, transmitted, or stored only in accord with that
 written license.
  
 The following legend is applicable only to US Government
 contracts under FAR:
  
                    RESTRICTED RIGHTS LEGEND
  
 Use, reproduction and disclosure by the US Government is
 subject to restrictions as set forth in subparagraphs (a)
 and (c) of the Commercial Computer Software - Restricted
 Rights clause in FAR 52.227-19.
  
 Gaussian, Inc.
 340 Quinnipiac St., Bldg. 40, Wallingford CT 06492
  
  
 ---------------------------------------------------------------
 Warning -- This program may not be used in any manner that
 competes with the business of Gaussian, Inc. or will provide
 assistance to any competitor of Gaussian, Inc.  The licensee
 of this program is prohibited from giving any competitor of
 Gaussian, Inc. access to this program.  By using this program,
 the user acknowledges that Gaussian, Inc. is engaged in the
 business of creating and licensing software in the field of
 computational chemistry and represents and warrants to the
 licensee that it is not a competitor of Gaussian, Inc. and that
 it will not use this program in any manner prohibited above.
 ---------------------------------------------------------------
  

 Cite this work as:
 Gaussian 16, Revision C.01,
 M. J. Frisch, G. W. Trucks, H. B. Schlegel, G. E. Scuseria, 
 M. A. Robb, J. R. Cheeseman, G. Scalmani, V. Barone, 
 G. A. Petersson, H. Nakatsuji, X. Li, M. Caricato, A. V. Marenich, 
 J. Bloino, B. G. Janesko, R. Gomperts, B. Mennucci, H. P. Hratchian, 
 J. V. Ortiz, A. F. Izmaylov, J. L. Sonnenberg, D. Williams-Young, 
 F. Ding, F. Lipparini, F. Egidi, J. Goings, B. Peng, A. Petrone, 
 T. Henderson, D. Ranasinghe, V. G. Zakrzewski, J. Gao, N. Rega, 
 G. Zheng, W. Liang, M. Hada, M. Ehara, K. Toyota, R. Fukuda, 
 J. Hasegawa, M. Ishida, T. Nakajima, Y. Honda, O. Kitao, H. Nakai, 
 T. Vreven, K. Throssell, J. A. Montgomery, Jr., J. E. Peralta, 
 F. Ogliaro, M. J. Bearpark, J. J. Heyd, E. N. Brothers, K. N. Kudin, 
 V. N. Staroverov, T. A. Keith, R. Kobayashi, J. Normand, 
 K. Raghavachari, A. P. Rendell, J. C. Burant, S. S. Iyengar, 
 J. Tomasi, M. Cossi, J. M. Millam, M. Klene, C. Adamo, R. Cammi, 
 J. W. Ochterski, R. L. Martin, K. Morokuma, O. Farkas, 
 J. B. Foresman, and D. J. Fox, Gaussian, Inc., Wallingford CT, 2019.
 
 ******************************************
 Gaussian 16:  EM64L-G16RevC.01  3-Jul-2019
                 3-Apr-2022 
 ******************************************
 %mem=8gb
 %nproc=8
 Will use up to    8 processors via shared memory.
 %chk=Mol_01.chk
 ----------------------------------------------------------------------
 #p B3LYP/cc-PVTZ scf(verytight, maxcycles=1000) opt(calcfc, maxcyc=100
 0) freq(hpmodes) int(grid=ultrafine)
 ----------------------------------------------------------------------
 1/6=1000,10=4,18=20,19=15,26=4,38=1/1,3;
 2/9=110,12=2,17=6,18=5,40=1/2;
 3/5=16,6=1,11=2,25=1,30=1,71=2,74=-5,75=-5,140=1/1,2,3;
 4//1;
 5/5=2,7=1000,17=3,38=5/2;
 8/6=4,10=90,11=11/1;
 11/6=1,8=1,9=11,15=111,16=1/1,2,10;
 10/6=1,13=1/2;
 6/7=2,8=2,9=2,10=2,28=1/1;
 7/10=1,25=1/1,2,3,16;
 1/6=1000,10=4,18=20,19=15,26=4/3(2);
 2/9=110/2;
 99//99;
 2/9=110/2;
 3/5=16,6=1,11=2,25=1,30=1,71=1,74=-5,75=-5/1,2,3;
 4/5=5,16=3,69=1/1;
 5/5=2,7=1000,17=3,38=5/2;
 7//1,2,3,16;
 1/6=1000,18=20,19=15,26=4/3(-5);
 2/9=110/2;
 6/7=2,8=2,9=2,10=2,19=2,28=1/1;
 99/9=1/99;
 Leave Link    1 at Sun Apr  3 19:48:08 2022, MaxMem=  1073741824 cpu:               0.5 elap:               0.1
 (Enter /home/saurabh/g16/l101.exe)
 ------
 Mol_01
 ------
 Symbolic Z-matrix:
 Charge =  0 Multiplicity = 2
 C                     0.        0.        0. 
 C                    -1.29928   0.70454  -0.29219 
 C                    -1.35305   1.97923  -0.70169 
 C                    -0.08757   2.85195  -0.56754 
 C                     1.23462   2.20093  -0.10893 
 C                     1.22067   0.73953  -0.56646 
 H                     2.16245   0.22646  -0.25561 
 H                     1.18014   0.7218   -1.68164 
 H                     1.31163   2.26755   1.00137 
 H                     2.0981    2.74726  -0.5564 
 H                    -0.16231   3.93662  -0.66507 
 H                    -2.32472   2.4631   -0.89564 
 H                    -2.23603   0.14634  -0.12047 
 H                    -0.04034  -1.02426  -0.4411 
 H                     0.09588  -0.11301   1.10546 
 
 ITRead=  0  0  0  0  0  0  0  0  0  0  0  0  0  0  0
 MicOpt= -1 -1 -1 -1 -1 -1 -1 -1 -1 -1 -1 -1 -1 -1 -1
 NAtoms=     15 NQM=       15 NQMF=       0 NMMI=      0 NMMIF=      0
                NMic=       0 NMicF=      0.
                    Isotopes and Nuclear Properties:
 (Nuclear quadrupole moments (NQMom) in fm**2, nuclear magnetic moments (NMagM)
  in nuclear magnetons)

  Atom         1           2           3           4           5           6           7           8           9          10
 IAtWgt=          12          12          12          12          12          12           1           1           1           1
 AtmWgt=  12.0000000  12.0000000  12.0000000  12.0000000  12.0000000  12.0000000   1.0078250   1.0078250   1.0078250   1.0078250
 NucSpn=           0           0           0           0           0           0           1           1           1           1
 AtZEff=  -0.0000000  -0.0000000  -0.0000000  -0.0000000  -0.0000000  -0.0000000  -0.0000000  -0.0000000  -0.0000000  -0.0000000
 NQMom=    0.0000000   0.0000000   0.0000000   0.0000000   0.0000000   0.0000000   0.0000000   0.0000000   0.0000000   0.0000000
 NMagM=    0.0000000   0.0000000   0.0000000   0.0000000   0.0000000   0.0000000   2.7928460   2.7928460   2.7928460   2.7928460
 AtZNuc=   6.0000000   6.0000000   6.0000000   6.0000000   6.0000000   6.0000000   1.0000000   1.0000000   1.0000000   1.0000000

  Atom        11          12          13          14          15
 IAtWgt=           1           1           1           1           1
 AtmWgt=   1.0078250   1.0078250   1.0078250   1.0078250   1.0078250
 NucSpn=           1           1           1           1           1
 AtZEff=  -0.0000000  -0.0000000  -0.0000000  -0.0000000  -0.0000000
 NQMom=    0.0000000   0.0000000   0.0000000   0.0000000   0.0000000
 NMagM=    2.7928460   2.7928460   2.7928460   2.7928460   2.7928460
 AtZNuc=   1.0000000   1.0000000   1.0000000   1.0000000   1.0000000
 Leave Link  101 at Sun Apr  3 19:48:09 2022, MaxMem=  1073741824 cpu:               2.2 elap:               0.3
 (Enter /home/saurabh/g16/l103.exe)

 GradGradGradGradGradGradGradGradGradGradGradGradGradGradGradGradGradGrad
 Berny optimization.
 Initialization pass.
                           ----------------------------
                           !    Initial Parameters    !
                           ! (Angstroms and Degrees)  !
 --------------------------                            --------------------------
 ! Name  Definition              Value          Derivative Info.                !
 --------------------------------------------------------------------------------
 ! R1    R(1,2)                  1.5066         calculate D2E/DX2 analytically  !
 ! R2    R(1,6)                  1.5355         calculate D2E/DX2 analytically  !
 ! R3    R(1,14)                 1.1159         calculate D2E/DX2 analytically  !
 ! R4    R(1,15)                 1.1154         calculate D2E/DX2 analytically  !
 ! R5    R(2,3)                  1.3399         calculate D2E/DX2 analytically  !
 ! R6    R(2,13)                 1.1039         calculate D2E/DX2 analytically  !
 ! R7    R(3,4)                  1.5431         calculate D2E/DX2 analytically  !
 ! R8    R(3,12)                 1.1027         calculate D2E/DX2 analytically  !
 ! R9    R(4,5)                  1.5435         calculate D2E/DX2 analytically  !
 ! R10   R(4,11)                 1.0916         calculate D2E/DX2 analytically  !
 ! R11   R(5,6)                  1.5314         calculate D2E/DX2 analytically  !
 ! R12   R(5,9)                  1.115          calculate D2E/DX2 analytically  !
 ! R13   R(5,10)                 1.1155         calculate D2E/DX2 analytically  !
 ! R14   R(6,7)                  1.1166         calculate D2E/DX2 analytically  !
 ! R15   R(6,8)                  1.1161         calculate D2E/DX2 analytically  !
 ! A1    A(2,1,6)              112.8794         calculate D2E/DX2 analytically  !
 ! A2    A(2,1,14)             108.7465         calculate D2E/DX2 analytically  !
 ! A3    A(2,1,15)             108.2845         calculate D2E/DX2 analytically  !
 ! A4    A(6,1,14)             108.9638         calculate D2E/DX2 analytically  !
 ! A5    A(6,1,15)             110.2487         calculate D2E/DX2 analytically  !
 ! A6    A(14,1,15)            107.5705         calculate D2E/DX2 analytically  !
 ! A7    A(1,2,3)              122.5984         calculate D2E/DX2 analytically  !
 ! A8    A(1,2,13)             117.7216         calculate D2E/DX2 analytically  !
 ! A9    A(3,2,13)             119.6385         calculate D2E/DX2 analytically  !
 ! A10   A(2,3,4)              118.5907         calculate D2E/DX2 analytically  !
 ! A11   A(2,3,12)             120.4356         calculate D2E/DX2 analytically  !
 ! A12   A(4,3,12)             119.3262         calculate D2E/DX2 analytically  !
 ! A13   A(3,4,5)              119.3274         calculate D2E/DX2 analytically  !
 ! A14   A(3,4,11)             119.8715         calculate D2E/DX2 analytically  !
 ! A15   A(5,4,11)             120.2856         calculate D2E/DX2 analytically  !
 ! A16   A(4,5,6)              107.8143         calculate D2E/DX2 analytically  !
 ! A17   A(4,5,9)              109.26           calculate D2E/DX2 analytically  !
 ! A18   A(4,5,10)             109.7142         calculate D2E/DX2 analytically  !
 ! A19   A(6,5,9)              110.8037         calculate D2E/DX2 analytically  !
 ! A20   A(6,5,10)             110.7678         calculate D2E/DX2 analytically  !
 ! A21   A(9,5,10)             108.4656         calculate D2E/DX2 analytically  !
 ! A22   A(1,6,5)              110.8928         calculate D2E/DX2 analytically  !
 ! A23   A(1,6,7)              110.2727         calculate D2E/DX2 analytically  !
 ! A24   A(1,6,8)              109.3961         calculate D2E/DX2 analytically  !
 ! A25   A(5,6,7)              110.3424         calculate D2E/DX2 analytically  !
 ! A26   A(5,6,8)              108.302          calculate D2E/DX2 analytically  !
 ! A27   A(7,6,8)              107.5474         calculate D2E/DX2 analytically  !
 ! D1    D(6,1,2,3)            -15.3598         calculate D2E/DX2 analytically  !
 ! D2    D(6,1,2,13)           166.9956         calculate D2E/DX2 analytically  !
 ! D3    D(14,1,2,3)          -136.404          calculate D2E/DX2 analytically  !
 ! D4    D(14,1,2,13)           45.9513         calculate D2E/DX2 analytically  !
 ! D5    D(15,1,2,3)           106.9881         calculate D2E/DX2 analytically  !
 ! D6    D(15,1,2,13)          -70.6566         calculate D2E/DX2 analytically  !
 ! D7    D(2,1,6,5)             52.9084         calculate D2E/DX2 analytically  !
 ! D8    D(2,1,6,7)            175.4331         calculate D2E/DX2 analytically  !
 ! D9    D(2,1,6,8)            -66.4812         calculate D2E/DX2 analytically  !
 ! D10   D(14,1,6,5)           173.8291         calculate D2E/DX2 analytically  !
 ! D11   D(14,1,6,7)           -63.6462         calculate D2E/DX2 analytically  !
 ! D12   D(14,1,6,8)            54.4395         calculate D2E/DX2 analytically  !
 ! D13   D(15,1,6,5)           -68.3319         calculate D2E/DX2 analytically  !
 ! D14   D(15,1,6,7)            54.1928         calculate D2E/DX2 analytically  !
 ! D15   D(15,1,6,8)           172.2785         calculate D2E/DX2 analytically  !
 ! D16   D(1,2,3,4)            -14.1028         calculate D2E/DX2 analytically  !
 ! D17   D(1,2,3,12)          -179.3784         calculate D2E/DX2 analytically  !
 ! D18   D(13,2,3,4)           163.4983         calculate D2E/DX2 analytically  !
 ! D19   D(13,2,3,12)           -1.7773         calculate D2E/DX2 analytically  !
 ! D20   D(2,3,4,5)              6.3445         calculate D2E/DX2 analytically  !
 ! D21   D(2,3,4,11)          -165.4453         calculate D2E/DX2 analytically  !
 ! D22   D(12,3,4,5)           171.7866         calculate D2E/DX2 analytically  !
 ! D23   D(12,3,4,11)           -0.0032         calculate D2E/DX2 analytically  !
 ! D24   D(3,4,5,6)             29.4186         calculate D2E/DX2 analytically  !
 ! D25   D(3,4,5,9)            -91.0755         calculate D2E/DX2 analytically  !
 ! D26   D(3,4,5,10)           150.134          calculate D2E/DX2 analytically  !
 ! D27   D(11,4,5,6)          -158.8263         calculate D2E/DX2 analytically  !
 ! D28   D(11,4,5,9)            80.6796         calculate D2E/DX2 analytically  !
 ! D29   D(11,4,5,10)          -38.1109         calculate D2E/DX2 analytically  !
 ! D30   D(4,5,6,1)            -57.544          calculate D2E/DX2 analytically  !
 ! D31   D(4,5,6,7)            179.9718         calculate D2E/DX2 analytically  !
 ! D32   D(4,5,6,8)             62.5            calculate D2E/DX2 analytically  !
 ! D33   D(9,5,6,1)             61.9755         calculate D2E/DX2 analytically  !
 ! D34   D(9,5,6,7)            -60.5087         calculate D2E/DX2 analytically  !
 ! D35   D(9,5,6,8)           -177.9805         calculate D2E/DX2 analytically  !
 ! D36   D(10,5,6,1)          -177.5968         calculate D2E/DX2 analytically  !
 ! D37   D(10,5,6,7)            59.919          calculate D2E/DX2 analytically  !
 ! D38   D(10,5,6,8)           -57.5527         calculate D2E/DX2 analytically  !
 --------------------------------------------------------------------------------
 Trust Radius=3.00D-01 FncErr=1.00D-07 GrdErr=1.00D-06 EigMax=2.50D+02 EigMin=1.00D-04
 Number of steps in this run=    100 maximum allowed number of steps=    100.
 GradGradGradGradGradGradGradGradGradGradGradGradGradGradGradGradGradGrad

 Leave Link  103 at Sun Apr  3 19:48:09 2022, MaxMem=  1073741824 cpu:               0.1 elap:               0.1
 (Enter /home/saurabh/g16/l202.exe)
                          Input orientation:                          
 ---------------------------------------------------------------------
 Center     Atomic      Atomic             Coordinates (Angstroms)
 Number     Number       Type             X           Y           Z
 ---------------------------------------------------------------------
      1          6           0        0.000000    0.000000    0.000000
      2          6           0       -1.299275    0.704541   -0.292192
      3          6           0       -1.353054    1.979228   -0.701693
      4          6           0       -0.087569    2.851951   -0.567544
      5          6           0        1.234617    2.200925   -0.108927
      6          6           0        1.220670    0.739528   -0.566461
      7          1           0        2.162447    0.226455   -0.255609
      8          1           0        1.180145    0.721795   -1.681636
      9          1           0        1.311628    2.267545    1.001365
     10          1           0        2.098095    2.747255   -0.556395
     11          1           0       -0.162314    3.936619   -0.665068
     12          1           0       -2.324722    2.463096   -0.895642
     13          1           0       -2.236034    0.146337   -0.120473
     14          1           0       -0.040343   -1.024256   -0.441098
     15          1           0        0.095880   -0.113010    1.105462
 ---------------------------------------------------------------------
                    Distance matrix (angstroms):
                    1          2          3          4          5
     1  C    0.000000
     2  C    1.506609   0.000000
     3  C    2.498094   1.339929   0.000000
     4  C    2.909192   2.481012   1.543079   0.000000
     5  C    2.525909   2.948450   2.663937   1.543483   0.000000
     6  C    1.535518   2.535068   2.859930   2.484718   1.531409
     7  H    2.189245   3.494771   3.953473   3.471758   2.186531
     8  H    2.177528   2.842248   2.993079   2.717695   2.159677
     9  H    2.804436   3.306522   3.175541   2.181916   1.114952
    10  H    3.501284   3.972985   3.538560   2.188198   1.115481
    11  H    3.995701   3.446454   2.291415   1.091605   2.296376
    12  H    3.503334   2.123254   1.102671   2.294278   3.654661
    13  H    2.244054   1.103901   2.115883   3.483694   4.033222
    14  H    1.115928   2.143787   3.288166   3.878556   3.483913
    15  H    1.115352   2.137354   3.121326   3.409340   2.850571
                    6          7          8          9         10
     6  C    0.000000
     7  H    1.116610   0.000000
     8  H    1.116052   1.801064   0.000000
     9  H    2.191161   2.543605   3.099214   0.000000
    10  H    2.191106   2.539497   2.492246   1.809770   0.000000
    11  H    3.484790   4.397441   3.629146   2.781243   2.556530
    12  H    3.955863   5.054393   3.991743   4.106083   4.444901
    13  H    3.535475   4.401286   3.799824   4.282984   5.073409
    14  H    2.171820   2.539876   2.465202   3.839854   4.337108
    15  H    2.187990   2.497689   3.104907   2.675055   3.866749
                   11         12         13         14         15
    11  H    0.000000
    12  H    2.626869   0.000000
    13  H    4.354668   2.444611   0.000000
    14  H    4.967426   4.193641   2.508814   0.000000
    15  H    4.427294   4.062026   2.647263   1.800215   0.000000
 Stoichiometry    C6H9(2)
 Framework group  C1[X(C6H9)]
 Deg. of freedom    39
 Full point group                 C1      NOp   1
 Largest Abelian subgroup         C1      NOp   1
 Largest concise Abelian subgroup C1      NOp   1
                         Standard orientation:                         
 ---------------------------------------------------------------------
 Center     Atomic      Atomic             Coordinates (Angstroms)
 Number     Number       Type             X           Y           Z
 ---------------------------------------------------------------------
      1          6           0       -0.354765   -1.371375    0.176551
      2          6           0       -1.435937   -0.327835    0.067191
      3          6           0       -1.171206    0.963429   -0.173567
      4          6           0        0.281416    1.460635   -0.019389
      5          6           0        1.404453    0.439271    0.259798
      6          6           0        0.995365   -0.892401   -0.376213
      7          1           0        1.781916   -1.664948   -0.199223
      8          1           0        0.912411   -0.743195   -1.479131
      9          1           0        1.535141    0.328338    1.361493
     10          1           0        2.363888    0.806842   -0.174567
     11          1           0        0.487543    2.531637    0.026081
     12          1           0       -1.990074    1.699216   -0.236465
     13          1           0       -2.478878   -0.649706    0.232323
     14          1           0       -0.675221   -2.280150   -0.386239
     15          1           0       -0.252687   -1.658380    1.249500
 ---------------------------------------------------------------------
 Rotational constants (GHZ):           4.8765202           4.5339673           2.5713633
 Leave Link  202 at Sun Apr  3 19:48:09 2022, MaxMem=  1073741824 cpu:               0.3 elap:               0.1
 (Enter /home/saurabh/g16/l301.exe)
 Standard basis: CC-pVTZ (5D, 7F)
 Ernie: Thresh=  0.10000D-02 Tol=  0.10000D-05 Strict=F.
 Ernie:  18 primitive shells out of 228 were deleted.
 There are   345 symmetry adapted cartesian basis functions of A   symmetry.
 There are   306 symmetry adapted basis functions of A   symmetry.
   306 basis functions,   465 primitive gaussians,   345 cartesian basis functions
    23 alpha electrons       22 beta electrons
       nuclear repulsion energy       224.4380173728 Hartrees.
 IExCor=  402 DFT=T Ex+Corr=B3LYP ExCW=0 ScaHFX=  0.200000
 ScaDFX=  0.800000  0.720000  1.000000  0.810000 ScalE2=  1.000000  1.000000
 IRadAn=      5 IRanWt=     -1 IRanGd=            0 ICorTp=0 IEmpDi=  4
 NAtoms=   15 NActive=   15 NUniq=   15 SFac= 1.00D+00 NAtFMM=   60 NAOKFM=F Big=F
 Integral buffers will be    131072 words long.
 Raffenetti 2 integral format.
 Two-electron integral symmetry is turned on.
 Leave Link  301 at Sun Apr  3 19:48:10 2022, MaxMem=  1073741824 cpu:               0.9 elap:               0.2
 (Enter /home/saurabh/g16/l302.exe)
 NPDir=0 NMtPBC=     1 NCelOv=     1 NCel=       1 NClECP=     1 NCelD=      1
         NCelK=      1 NCelE2=     1 NClLst=     1 CellRange=     0.0.
 One-electron integrals computed using PRISM.
 One-electron integral symmetry used in STVInt
 NBasis=   306 RedAO= T EigKep=  1.59D-04  NBF=   306
 NBsUse=   306 1.00D-06 EigRej= -1.00D+00 NBFU=   306
 Precomputing XC quadrature grid using
 IXCGrd= 4 IRadAn=           5 IRanWt=          -1 IRanGd=           0 AccXCQ= 0.00D+00.
 Generated NRdTot=       0 NPtTot=           0 NUsed=           0 NTot=          32
 NSgBfM=   345   345   345   345   345 MxSgAt=    15 MxSgA2=    15.
 Leave Link  302 at Sun Apr  3 19:48:10 2022, MaxMem=  1073741824 cpu:               3.3 elap:               0.5
 (Enter /home/saurabh/g16/l303.exe)
 DipDrv:  MaxL=1.
 Leave Link  303 at Sun Apr  3 19:48:11 2022, MaxMem=  1073741824 cpu:               0.8 elap:               0.2
 (Enter /home/saurabh/g16/l401.exe)
 ExpMin= 1.03D-01 ExpMax= 8.24D+03 ExpMxC= 2.81D+02 IAcc=3 IRadAn=         5 AccDes= 0.00D+00
 Harris functional with IExCor=  402 and IRadAn=       5 diagonalized for initial guess.
 HarFok:  IExCor=  402 AccDes= 0.00D+00 IRadAn=         5 IDoV= 1 UseB2=F ITyADJ=14
 ICtDFT=  3500011 ScaDFX=  1.000000  1.000000  1.000000  1.000000
 FoFCou: FMM=F IPFlag=           0 FMFlag=      100000 FMFlg1=           0
         NFxFlg=           0 DoJE=T BraDBF=F KetDBF=T FulRan=T
         wScrn=  0.000000 ICntrl=       500 IOpCl=  0 I1Cent=   200000004 NGrid=           0
         NMat0=    1 NMatS0=      1 NMatT0=    0 NMatD0=    1 NMtDS0=    0 NMtDT0=    0
 Petite list used in FoFCou.
 Harris En= -234.097925602192    
 JPrj=0 DoOrth=F DoCkMO=F.
 Initial guess <Sx>= 0.0000 <Sy>= 0.0000 <Sz>= 0.5000 <S**2>= 0.7500 S= 0.5000
 Leave Link  401 at Sun Apr  3 19:48:13 2022, MaxMem=  1073741824 cpu:              18.3 elap:               2.4
 (Enter /home/saurabh/g16/l502.exe)
 Integral symmetry usage will be decided dynamically.
 UHF open shell SCF:
 Using DIIS extrapolation, IDIIS=  1040.
 NGot=  1073741824 LenX=  1073497548 LenY=  1073378082
 Requested convergence on RMS density matrix=1.00D-08 within1000 cycles.
 Requested convergence on MAX density matrix=1.00D-06.
 Requested convergence on             energy=1.00D-06.
 No special actions if energy rises.
 Fock matrices will be formed incrementally for  20 cycles.
 Integral accuracy reduced to 1.0D-05 until final iterations.

 Cycle   1  Pass 0  IDiag  1:
 FoFJK:  IHMeth= 1 ICntrl=       0 DoSepK=F KAlg= 0 I1Cent=           0 FoldK=F
 IRaf= 980000000 NMat=       1 IRICut=       1 DoRegI=T DoRafI=F ISym2E= 0 IDoP0=0 IntGTp=1.
 FoFCou: FMM=F IPFlag=           0 FMFlag=      100000 FMFlg1=           0
         NFxFlg=           0 DoJE=F BraDBF=F KetDBF=F FulRan=T
         wScrn=  0.000000 ICntrl=         0 IOpCl=  1 I1Cent=           0 NGrid=           0
         NMat0=    1 NMatS0=      1 NMatT0=    0 NMatD0=    1 NMtDS0=    0 NMtDT0=    0
 Symmetry not used in FoFCou.
 E= -233.871081699531    
 DIIS: error= 2.38D-02 at cycle   1 NSaved=   1.
 NSaved= 1 IEnMin= 1 EnMin= -233.871081699531     IErMin= 1 ErrMin= 2.38D-02
 ErrMax= 2.38D-02  0.00D+00 EMaxC= 1.00D-01 BMatC= 7.79D-01 BMatP= 7.79D-01
 IDIUse=3 WtCom= 7.62D-01 WtEn= 2.38D-01
 Coeff-Com:  0.100D+01
 Coeff-En:   0.100D+01
 Coeff:      0.100D+01
 Gap=     0.216 Goal=   None    Shift=    0.000
 Gap=     0.178 Goal=   None    Shift=    0.000
 GapD=    0.178 DampG=1.000 DampE=0.500 DampFc=0.5000 IDamp=-1.
 Damping current iteration by 5.00D-01
 RMSDP=2.59D-03 MaxDP=1.48D-01              OVMax= 1.99D-01

 Cycle   2  Pass 0  IDiag  1:
 RMSU=  1.29D-03    CP:  9.88D-01
 E= -233.948519460104     Delta-E=       -0.077437760573 Rises=F Damp=T
 DIIS: error= 7.09D-03 at cycle   2 NSaved=   2.
 NSaved= 2 IEnMin= 2 EnMin= -233.948519460104     IErMin= 2 ErrMin= 7.09D-03
 ErrMax= 7.09D-03  0.00D+00 EMaxC= 1.00D-01 BMatC= 6.25D-02 BMatP= 7.79D-01
 IDIUse=3 WtCom= 9.29D-01 WtEn= 7.09D-02
 Coeff-Com:  0.102D+00 0.898D+00
 Coeff-En:   0.212D+00 0.788D+00
 Coeff:      0.110D+00 0.890D+00
 Gap=     0.214 Goal=   None    Shift=    0.000
 Gap=     0.203 Goal=   None    Shift=    0.000
 RMSDP=6.96D-04 MaxDP=1.97D-02 DE=-7.74D-02 OVMax= 1.37D-01

 Cycle   3  Pass 0  IDiag  1:
 RMSU=  5.35D-04    CP:  9.92D-01  6.56D-01
 E= -234.067770191585     Delta-E=       -0.119250731481 Rises=F Damp=F
 DIIS: error= 4.85D-03 at cycle   3 NSaved=   3.
 NSaved= 3 IEnMin= 3 EnMin= -234.067770191585     IErMin= 3 ErrMin= 4.85D-03
 ErrMax= 4.85D-03  0.00D+00 EMaxC= 1.00D-01 BMatC= 2.14D-02 BMatP= 6.25D-02
 IDIUse=3 WtCom= 9.51D-01 WtEn= 4.85D-02
 Coeff-Com: -0.255D-01 0.341D+00 0.685D+00
 Coeff-En:   0.000D+00 0.000D+00 0.100D+01
 Coeff:     -0.242D-01 0.324D+00 0.700D+00
 Gap=     0.201 Goal=   None    Shift=    0.000
 Gap=     0.200 Goal=   None    Shift=    0.000
 RMSDP=2.45D-04 MaxDP=1.02D-02 DE=-1.19D-01 OVMax= 4.67D-02

 Cycle   4  Pass 0  IDiag  1:
 RMSU=  1.78D-04    CP:  9.91D-01  7.32D-01  7.46D-01
 E= -234.072235989485     Delta-E=       -0.004465797900 Rises=F Damp=F
 DIIS: error= 2.11D-03 at cycle   4 NSaved=   4.
 NSaved= 4 IEnMin= 4 EnMin= -234.072235989485     IErMin= 4 ErrMin= 2.11D-03
 ErrMax= 2.11D-03  0.00D+00 EMaxC= 1.00D-01 BMatC= 4.28D-03 BMatP= 2.14D-02
 IDIUse=3 WtCom= 9.79D-01 WtEn= 2.11D-02
 Coeff-Com: -0.201D-01 0.106D+00 0.357D+00 0.557D+00
 Coeff-En:   0.000D+00 0.000D+00 0.886D-01 0.911D+00
 Coeff:     -0.196D-01 0.103D+00 0.351D+00 0.565D+00
 Gap=     0.200 Goal=   None    Shift=    0.000
 Gap=     0.204 Goal=   None    Shift=    0.000
 RMSDP=1.09D-04 MaxDP=6.71D-03 DE=-4.47D-03 OVMax= 2.76D-02

 Cycle   5  Pass 0  IDiag  1:
 RMSU=  7.57D-05    CP:  9.91D-01  7.32D-01  8.09D-01  6.03D-01
 E= -234.073168667867     Delta-E=       -0.000932678381 Rises=F Damp=F
 DIIS: error= 1.08D-03 at cycle   5 NSaved=   5.
 NSaved= 5 IEnMin= 5 EnMin= -234.073168667867     IErMin= 5 ErrMin= 1.08D-03
 ErrMax= 1.08D-03  0.00D+00 EMaxC= 1.00D-01 BMatC= 1.16D-03 BMatP= 4.28D-03
 IDIUse=3 WtCom= 9.89D-01 WtEn= 1.08D-02
 Coeff-Com: -0.863D-02 0.343D-02 0.951D-01 0.364D+00 0.546D+00
 Coeff-En:   0.000D+00 0.000D+00 0.000D+00 0.203D+00 0.797D+00
 Coeff:     -0.854D-02 0.339D-02 0.941D-01 0.363D+00 0.548D+00
 Gap=     0.202 Goal=   None    Shift=    0.000
 Gap=     0.205 Goal=   None    Shift=    0.000
 RMSDP=4.54D-05 MaxDP=2.86D-03 DE=-9.33D-04 OVMax= 1.11D-02

 Cycle   6  Pass 0  IDiag  1:
 RMSU=  2.32D-05    CP:  9.91D-01  7.31D-01  8.20D-01  7.61D-01  6.47D-01
 E= -234.073507924652     Delta-E=       -0.000339256785 Rises=F Damp=F
 DIIS: error= 2.76D-04 at cycle   6 NSaved=   6.
 NSaved= 6 IEnMin= 6 EnMin= -234.073507924652     IErMin= 6 ErrMin= 2.76D-04
 ErrMax= 2.76D-04  0.00D+00 EMaxC= 1.00D-01 BMatC= 2.59D-05 BMatP= 1.16D-03
 IDIUse=3 WtCom= 9.97D-01 WtEn= 2.76D-03
 Coeff-Com:  0.232D-02-0.102D-01-0.351D-01-0.682D-01-0.161D-01 0.113D+01
 Coeff-En:   0.000D+00 0.000D+00 0.000D+00 0.000D+00 0.000D+00 0.100D+01
 Coeff:      0.231D-02-0.102D-01-0.350D-01-0.680D-01-0.160D-01 0.113D+01
 Gap=     0.203 Goal=   None    Shift=    0.000
 Gap=     0.206 Goal=   None    Shift=    0.000
 RMSDP=1.64D-05 MaxDP=1.25D-03 DE=-3.39D-04 OVMax= 4.61D-03

 Cycle   7  Pass 0  IDiag  1:
 RMSU=  9.34D-06    CP:  9.91D-01  7.29D-01  8.26D-01  7.91D-01  7.44D-01
                    CP:  1.39D+00
 E= -234.073530218890     Delta-E=       -0.000022294238 Rises=F Damp=F
 DIIS: error= 1.03D-04 at cycle   7 NSaved=   7.
 NSaved= 7 IEnMin= 7 EnMin= -234.073530218890     IErMin= 7 ErrMin= 1.03D-04
 ErrMax= 1.03D-04  0.00D+00 EMaxC= 1.00D-01 BMatC= 1.50D-05 BMatP= 2.59D-05
 IDIUse=3 WtCom= 9.99D-01 WtEn= 1.03D-03
 Coeff-Com:  0.305D-02-0.632D-02-0.394D-01-0.116D+00-0.127D+00 0.626D+00
 Coeff-Com:  0.660D+00
 Coeff-En:   0.000D+00 0.000D+00 0.000D+00 0.000D+00 0.000D+00 0.000D+00
 Coeff-En:   0.100D+01
 Coeff:      0.304D-02-0.631D-02-0.394D-01-0.116D+00-0.127D+00 0.626D+00
 Coeff:      0.661D+00
 Gap=     0.204 Goal=   None    Shift=    0.000
 Gap=     0.207 Goal=   None    Shift=    0.000
 RMSDP=7.04D-06 MaxDP=4.92D-04 DE=-2.23D-05 OVMax= 1.84D-03

 Initial convergence to 1.0D-05 achieved.  Increase integral accuracy.
 Cycle   8  Pass 1  IDiag  1:
 E= -234.073541044011     Delta-E=       -0.000010825120 Rises=F Damp=F
 DIIS: error= 3.24D-05 at cycle   1 NSaved=   1.
 NSaved= 1 IEnMin= 1 EnMin= -234.073541044011     IErMin= 1 ErrMin= 3.24D-05
 ErrMax= 3.24D-05  0.00D+00 EMaxC= 1.00D-01 BMatC= 1.45D-06 BMatP= 1.45D-06
 IDIUse=1 WtCom= 1.00D+00 WtEn= 0.00D+00
 Coeff-Com:  0.100D+01
 Coeff:      0.100D+01
 Gap=     0.204 Goal=   None    Shift=    0.000
 Gap=     0.207 Goal=   None    Shift=    0.000
 RMSDP=7.04D-06 MaxDP=4.92D-04 DE=-1.08D-05 OVMax= 6.67D-04

 Cycle   9  Pass 1  IDiag  1:
 RMSU=  6.85D-06    CP:  1.00D+00
 E= -234.073541544744     Delta-E=       -0.000000500734 Rises=F Damp=F
 DIIS: error= 1.85D-05 at cycle   2 NSaved=   2.
 NSaved= 2 IEnMin= 2 EnMin= -234.073541544744     IErMin= 2 ErrMin= 1.85D-05
 ErrMax= 1.85D-05  0.00D+00 EMaxC= 1.00D-01 BMatC= 6.89D-07 BMatP= 1.45D-06
 IDIUse=1 WtCom= 1.00D+00 WtEn= 0.00D+00
 Coeff-Com:  0.358D+00 0.642D+00
 Coeff:      0.358D+00 0.642D+00
 Gap=     0.204 Goal=   None    Shift=    0.000
 Gap=     0.207 Goal=   None    Shift=    0.000
 RMSDP=1.36D-06 MaxDP=6.51D-05 DE=-5.01D-07 OVMax= 2.32D-04

 Cycle  10  Pass 1  IDiag  1:
 RMSU=  1.36D-06    CP:  1.00D+00  9.96D-01
 E= -234.073541765083     Delta-E=       -0.000000220339 Rises=F Damp=F
 DIIS: error= 1.45D-05 at cycle   3 NSaved=   3.
 NSaved= 3 IEnMin= 3 EnMin= -234.073541765083     IErMin= 3 ErrMin= 1.45D-05
 ErrMax= 1.45D-05  0.00D+00 EMaxC= 1.00D-01 BMatC= 1.94D-07 BMatP= 6.89D-07
 IDIUse=1 WtCom= 1.00D+00 WtEn= 0.00D+00
 Coeff-Com: -0.905D-01 0.291D+00 0.799D+00
 Coeff:     -0.905D-01 0.291D+00 0.799D+00
 Gap=     0.204 Goal=   None    Shift=    0.000
 Gap=     0.207 Goal=   None    Shift=    0.000
 RMSDP=9.33D-07 MaxDP=6.52D-05 DE=-2.20D-07 OVMax= 3.08D-04

 Cycle  11  Pass 1  IDiag  1:
 RMSU=  8.40D-07    CP:  1.00D+00  1.05D+00  1.11D+00
 E= -234.073541882064     Delta-E=       -0.000000116981 Rises=F Damp=F
 DIIS: error= 8.63D-06 at cycle   4 NSaved=   4.
 NSaved= 4 IEnMin= 4 EnMin= -234.073541882064     IErMin= 4 ErrMin= 8.63D-06
 ErrMax= 8.63D-06  0.00D+00 EMaxC= 1.00D-01 BMatC= 2.42D-08 BMatP= 1.94D-07
 IDIUse=1 WtCom= 1.00D+00 WtEn= 0.00D+00
 Coeff-Com: -0.627D-01-0.105D+00 0.696D-02 0.116D+01
 Coeff:     -0.627D-01-0.105D+00 0.696D-02 0.116D+01
 Gap=     0.204 Goal=   None    Shift=    0.000
 Gap=     0.207 Goal=   None    Shift=    0.000
 RMSDP=7.78D-07 MaxDP=7.25D-05 DE=-1.17D-07 OVMax= 2.16D-04

 Cycle  12  Pass 1  IDiag  1:
 RMSU=  3.40D-07    CP:  1.00D+00  1.08D+00  1.44D+00  1.59D+00
 E= -234.073541913384     Delta-E=       -0.000000031320 Rises=F Damp=F
 DIIS: error= 5.55D-06 at cycle   5 NSaved=   5.
 NSaved= 5 IEnMin= 5 EnMin= -234.073541913384     IErMin= 5 ErrMin= 5.55D-06
 ErrMax= 5.55D-06  0.00D+00 EMaxC= 1.00D-01 BMatC= 2.04D-08 BMatP= 2.42D-08
 IDIUse=1 WtCom= 1.00D+00 WtEn= 0.00D+00
 Coeff-Com: -0.150D-01-0.166D+00-0.246D+00 0.806D+00 0.621D+00
 Coeff:     -0.150D-01-0.166D+00-0.246D+00 0.806D+00 0.621D+00
 Gap=     0.204 Goal=   None    Shift=    0.000
 Gap=     0.207 Goal=   None    Shift=    0.000
 RMSDP=3.39D-07 MaxDP=2.72D-05 DE=-3.13D-08 OVMax= 1.49D-04

 Cycle  13  Pass 1  IDiag  1:
 RMSU=  1.24D-07    CP:  1.00D+00  1.09D+00  1.54D+00  1.89D+00  7.26D-01
 E= -234.073541922948     Delta-E=       -0.000000009564 Rises=F Damp=F
 DIIS: error= 1.55D-06 at cycle   6 NSaved=   6.
 NSaved= 6 IEnMin= 6 EnMin= -234.073541922948     IErMin= 6 ErrMin= 1.55D-06
 ErrMax= 1.55D-06  0.00D+00 EMaxC= 1.00D-01 BMatC= 2.16D-09 BMatP= 2.04D-08
 IDIUse=1 WtCom= 1.00D+00 WtEn= 0.00D+00
 Coeff-Com:  0.198D-02-0.721D-01-0.133D+00 0.248D+00 0.340D+00 0.615D+00
 Coeff:      0.198D-02-0.721D-01-0.133D+00 0.248D+00 0.340D+00 0.615D+00
 Gap=     0.204 Goal=   None    Shift=    0.000
 Gap=     0.207 Goal=   None    Shift=    0.000
 RMSDP=1.08D-07 MaxDP=1.00D-05 DE=-9.56D-09 OVMax= 3.16D-05

 Cycle  14  Pass 1  IDiag  1:
 RMSU=  4.34D-08    CP:  1.00D+00  1.09D+00  1.58D+00  1.96D+00  8.08D-01
                    CP:  6.69D-01
 E= -234.073541923736     Delta-E=       -0.000000000788 Rises=F Damp=F
 DIIS: error= 3.72D-07 at cycle   7 NSaved=   7.
 NSaved= 7 IEnMin= 7 EnMin= -234.073541923736     IErMin= 7 ErrMin= 3.72D-07
 ErrMax= 3.72D-07  0.00D+00 EMaxC= 1.00D-01 BMatC= 1.29D-10 BMatP= 2.16D-09
 IDIUse=1 WtCom= 1.00D+00 WtEn= 0.00D+00
 Coeff-Com:  0.175D-02-0.197D-01-0.402D-01 0.518D-01 0.105D+00 0.259D+00
 Coeff-Com:  0.643D+00
 Coeff:      0.175D-02-0.197D-01-0.402D-01 0.518D-01 0.105D+00 0.259D+00
 Coeff:      0.643D+00
 Gap=     0.204 Goal=   None    Shift=    0.000
 Gap=     0.207 Goal=   None    Shift=    0.000
 RMSDP=2.08D-08 MaxDP=9.30D-07 DE=-7.88D-10 OVMax= 5.78D-06

 Cycle  15  Pass 1  IDiag  1:
 RMSU=  1.69D-08    CP:  1.00D+00  1.10D+00  1.59D+00  1.97D+00  8.22D-01
                    CP:  7.22D-01  9.13D-01
 E= -234.073541923778     Delta-E=       -0.000000000042 Rises=F Damp=F
 DIIS: error= 1.51D-07 at cycle   8 NSaved=   8.
 NSaved= 8 IEnMin= 8 EnMin= -234.073541923778     IErMin= 8 ErrMin= 1.51D-07
 ErrMax= 1.51D-07  0.00D+00 EMaxC= 1.00D-01 BMatC= 2.55D-11 BMatP= 1.29D-10
 IDIUse=1 WtCom= 1.00D+00 WtEn= 0.00D+00
 Coeff-Com:  0.867D-04 0.164D-01 0.284D-01-0.621D-01-0.726D-01-0.108D+00
 Coeff-Com:  0.250D+00 0.948D+00
 Coeff:      0.867D-04 0.164D-01 0.284D-01-0.621D-01-0.726D-01-0.108D+00
 Coeff:      0.250D+00 0.948D+00
 Gap=     0.204 Goal=   None    Shift=    0.000
 Gap=     0.207 Goal=   None    Shift=    0.000
 RMSDP=1.40D-08 MaxDP=8.29D-07 DE=-4.21D-11 OVMax= 3.37D-06

 Cycle  16  Pass 1  IDiag  1:
 RMSU=  6.59D-09    CP:  1.00D+00  1.10D+00  1.59D+00  1.98D+00  8.31D-01
                    CP:  7.38D-01  1.14D+00  1.02D+00
 E= -234.073541923788     Delta-E=       -0.000000000009 Rises=F Damp=F
 DIIS: error= 3.26D-08 at cycle   9 NSaved=   9.
 NSaved= 9 IEnMin= 9 EnMin= -234.073541923788     IErMin= 9 ErrMin= 3.26D-08
 ErrMax= 3.26D-08  0.00D+00 EMaxC= 1.00D-01 BMatC= 1.55D-12 BMatP= 2.55D-11
 IDIUse=1 WtCom= 1.00D+00 WtEn= 0.00D+00
 Coeff-Com: -0.164D-03 0.644D-02 0.118D-01-0.222D-01-0.308D-01-0.555D-01
 Coeff-Com: -0.341D-03 0.259D+00 0.832D+00
 Coeff:     -0.164D-03 0.644D-02 0.118D-01-0.222D-01-0.308D-01-0.555D-01
 Coeff:     -0.341D-03 0.259D+00 0.832D+00
 Gap=     0.204 Goal=   None    Shift=    0.000
 Gap=     0.207 Goal=   None    Shift=    0.000
 RMSDP=3.30D-09 MaxDP=1.83D-07 DE=-9.44D-12 OVMax= 9.30D-07

 SCF Done:  E(UB3LYP) =  -234.073541924     A.U. after   16 cycles
            NFock= 16  Conv=0.33D-08     -V/T= 2.0093
 <Sx>= 0.0000 <Sy>= 0.0000 <Sz>= 0.5000 <S**2>= 0.7737 S= 0.5118
 <L.S>= 0.000000000000E+00
 KE= 2.319128387509D+02 PE=-9.901557907393D+02 EE= 2.997313926919D+02
 Annihilation of the first spin contaminant:
 S**2 before annihilation     0.7737,   after     0.7502
 Leave Link  502 at Sun Apr  3 19:50:11 2022, MaxMem=  1073741824 cpu:             938.9 elap:             117.3
 (Enter /home/saurabh/g16/l801.exe)
 DoSCS=F DFT=T ScalE2(SS,OS)=  1.000000  1.000000
 Range of M.O.s used for correlation:     1   306
 NBasis=   306 NAE=    23 NBE=    22 NFC=     0 NFV=     0
 NROrb=    306 NOA=    23 NOB=    22 NVA=   283 NVB=   284

 **** Warning!!: The largest alpha MO coefficient is  0.14167948D+02


 **** Warning!!: The largest beta MO coefficient is  0.13888852D+02

 Leave Link  801 at Sun Apr  3 19:50:11 2022, MaxMem=  1073741824 cpu:               0.2 elap:               0.0
 (Enter /home/saurabh/g16/l1101.exe)
 Using compressed storage, NAtomX=    15.
 Will process     16 centers per pass.
 Leave Link 1101 at Sun Apr  3 19:50:11 2022, MaxMem=  1073741824 cpu:               2.4 elap:               0.3
 (Enter /home/saurabh/g16/l1102.exe)
 Symmetrizing basis deriv contribution to polar:
 IMax=3 JMax=2 DiffMx= 0.00D+00
 Leave Link 1102 at Sun Apr  3 19:50:11 2022, MaxMem=  1073741824 cpu:               0.3 elap:               0.1
 (Enter /home/saurabh/g16/l1110.exe)
 Forming Gx(P) for the SCF density, NAtomX=    15.
 Integral derivatives from FoFJK, PRISM(SPDF).
 Do as many integral derivatives as possible in FoFJK.
 G2DrvN: MDV=    1073740143.
 G2DrvN: will do    16 centers at a time, making    1 passes.
 Calling FoFCou, ICntrl=  3107 FMM=F I1Cent=   0 AccDes= 0.00D+00.
 FoFJK:  IHMeth= 1 ICntrl=    3107 DoSepK=F KAlg= 0 I1Cent=           0 FoldK=F
 IRaf=         0 NMat=       1 IRICut=       1 DoRegI=T DoRafI=F ISym2E= 0 IDoP0=0 IntGTp=1.
 FoFCou: FMM=F IPFlag=           0 FMFlag=      100000 FMFlg1=           0
         NFxFlg=           0 DoJE=F BraDBF=F KetDBF=F FulRan=T
         wScrn=  0.000000 ICntrl=      3107 IOpCl=  1 I1Cent=           0 NGrid=           0
         NMat0=    1 NMatS0=      1 NMatT0=    0 NMatD0=    1 NMtDS0=    0 NMtDT0=    0
 Symmetry not used in FoFCou.
 End of G2Drv F.D. properties file   721 does not exist.
 End of G2Drv F.D. properties file   722 does not exist.
 End of G2Drv F.D. properties file   788 does not exist.
 Leave Link 1110 at Sun Apr  3 19:53:39 2022, MaxMem=  1073741824 cpu:            1663.6 elap:             207.8
 (Enter /home/saurabh/g16/l1002.exe)
 Minotr:  UHF open shell wavefunction.
          IDoAtm=111111111111111
          Direct CPHF calculation.
          Differentiating once with respect to nuclear coordinates.
          Requested convergence is 1.0D-08 RMS, and 1.0D-07 maximum.
          Secondary convergence is 1.0D-12 RMS, and 1.0D-12 maximum.
          NewPWx=T KeepS1=F KeepF1=F KeepIn=T MapXYZ=F SortEE=F KeepMc=T.
         4429 words used for storage of precomputed grid.
 Two-electron integrals replicated using symmetry.
          MDV=    1073741824 using IRadAn=       1.
          Solving linear equations simultaneously, MaxMat=     384.
 FoF2E skips out because all densities are zero.
 CalDSu exits because no D1Ps are significant.
 FoFJK:  IHMeth= 1 ICntrl=       0 DoSepK=F KAlg= 0 I1Cent=           0 FoldK=F
 IRaf= 970000000 NMat=      45 IRICut=     112 DoRegI=T DoRafI=T ISym2E= 2 IDoP0=3 IntGTp=3.
 FoFCou: FMM=F IPFlag=           0 FMFlag=      100000 FMFlg1=           0
         NFxFlg=           0 DoJE=F BraDBF=F KetDBF=F FulRan=T
         wScrn=  0.000000 ICntrl=         0 IOpCl=  1 I1Cent=           0 NGrid=           0
         NMat0=   45 NMatS0=     45 NMatT0=    0 NMatD0=   45 NMtDS0=    0 NMtDT0=    0
 Integrals replicated using symmetry in FoFCou.
 Raff kept on since  95.79% of shell-pairs survive, threshold=   0.20 IRatSp=96.
          There are    48 degrees of freedom in the 1st order CPHF.  IDoFFX=6 NUNeed=     0.
     42 vectors produced by pass  0 Test12= 2.66D-14 2.08D-09 XBig12= 2.05D-01 2.00D-01.
 AX will form    42 AO Fock derivatives at one time.
     42 vectors produced by pass  1 Test12= 2.66D-14 2.08D-09 XBig12= 4.99D-02 7.08D-02.
     42 vectors produced by pass  2 Test12= 2.66D-14 2.08D-09 XBig12= 1.50D-03 1.16D-02.
     42 vectors produced by pass  3 Test12= 2.66D-14 2.08D-09 XBig12= 1.78D-05 6.04D-04.
     42 vectors produced by pass  4 Test12= 2.66D-14 2.08D-09 XBig12= 1.27D-07 3.59D-05.
     42 vectors produced by pass  5 Test12= 2.66D-14 2.08D-09 XBig12= 1.04D-09 3.38D-06.
     26 vectors produced by pass  6 Test12= 2.66D-14 2.08D-09 XBig12= 5.76D-12 1.91D-07.
      9 vectors produced by pass  7 Test12= 2.66D-14 2.08D-09 XBig12= 2.76D-14 1.35D-08.
 InvSVY:  IOpt=1 It=  1 EMax= 1.78D-15
 Solved reduced A of dimension   287 with    42 vectors.
 End of Minotr F.D. properties file   721 does not exist.
 End of Minotr F.D. properties file   722 does not exist.
 End of Minotr F.D. properties file   788 does not exist.
 Leave Link 1002 at Sun Apr  3 19:59:50 2022, MaxMem=  1073741824 cpu:            2974.4 elap:             371.5
 (Enter /home/saurabh/g16/l601.exe)
 Copying SCF densities to generalized density rwf, IOpCl= 1 IROHF=0.

 **********************************************************************

            Population analysis using the SCF Density.

 **********************************************************************

 Orbital symmetries:
 Alpha Orbitals:
       Occupied  (A) (A) (A) (A) (A) (A) (A) (A) (A) (A) (A) (A)
                 (A) (A) (A) (A) (A) (A) (A) (A) (A) (A) (A)
       Virtual   (A) (A) (A) (A) (A) (A) (A) (A) (A) (A) (A) (A)
                 (A) (A) (A) (A) (A) (A) (A) (A) (A) (A) (A) (A)
                 (A) (A) (A) (A) (A) (A) (A) (A) (A) (A) (A) (A)
                 (A) (A) (A) (A) (A) (A) (A) (A) (A) (A) (A) (A)
                 (A) (A) (A) (A) (A) (A) (A) (A) (A) (A) (A) (A)
                 (A) (A) (A) (A) (A) (A) (A) (A) (A) (A) (A) (A)
                 (A) (A) (A) (A) (A) (A) (A) (A) (A) (A) (A) (A)
                 (A) (A) (A) (A) (A) (A) (A) (A) (A) (A) (A) (A)
                 (A) (A) (A) (A) (A) (A) (A) (A) (A) (A) (A) (A)
                 (A) (A) (A) (A) (A) (A) (A) (A) (A) (A) (A) (A)
                 (A) (A) (A) (A) (A) (A) (A) (A) (A) (A) (A) (A)
                 (A) (A) (A) (A) (A) (A) (A) (A) (A) (A) (A) (A)
                 (A) (A) (A) (A) (A) (A) (A) (A) (A) (A) (A) (A)
                 (A) (A) (A) (A) (A) (A) (A) (A) (A) (A) (A) (A)
                 (A) (A) (A) (A) (A) (A) (A) (A) (A) (A) (A) (A)
                 (A) (A) (A) (A) (A) (A) (A) (A) (A) (A) (A) (A)
                 (A) (A) (A) (A) (A) (A) (A) (A) (A) (A) (A) (A)
                 (A) (A) (A) (A) (A) (A) (A) (A) (A) (A) (A) (A)
                 (A) (A) (A) (A) (A) (A) (A) (A) (A) (A) (A) (A)
                 (A) (A) (A) (A) (A) (A) (A) (A) (A) (A) (A) (A)
                 (A) (A) (A) (A) (A) (A) (A) (A) (A) (A) (A) (A)
                 (A) (A) (A) (A) (A) (A) (A) (A) (A) (A) (A) (A)
                 (A) (A) (A) (A) (A) (A) (A) (A) (A) (A) (A) (A)
                 (A) (A) (A) (A) (A) (A) (A)
 Beta  Orbitals:
       Occupied  (A) (A) (A) (A) (A) (A) (A) (A) (A) (A) (A) (A)
                 (A) (A) (A) (A) (A) (A) (A) (A) (A) (A)
       Virtual   (A) (A) (A) (A) (A) (A) (A) (A) (A) (A) (A) (A)
                 (A) (A) (A) (A) (A) (A) (A) (A) (A) (A) (A) (A)
                 (A) (A) (A) (A) (A) (A) (A) (A) (A) (A) (A) (A)
                 (A) (A) (A) (A) (A) (A) (A) (A) (A) (A) (A) (A)
                 (A) (A) (A) (A) (A) (A) (A) (A) (A) (A) (A) (A)
                 (A) (A) (A) (A) (A) (A) (A) (A) (A) (A) (A) (A)
                 (A) (A) (A) (A) (A) (A) (A) (A) (A) (A) (A) (A)
                 (A) (A) (A) (A) (A) (A) (A) (A) (A) (A) (A) (A)
                 (A) (A) (A) (A) (A) (A) (A) (A) (A) (A) (A) (A)
                 (A) (A) (A) (A) (A) (A) (A) (A) (A) (A) (A) (A)
                 (A) (A) (A) (A) (A) (A) (A) (A) (A) (A) (A) (A)
                 (A) (A) (A) (A) (A) (A) (A) (A) (A) (A) (A) (A)
                 (A) (A) (A) (A) (A) (A) (A) (A) (A) (A) (A) (A)
                 (A) (A) (A) (A) (A) (A) (A) (A) (A) (A) (A) (A)
                 (A) (A) (A) (A) (A) (A) (A) (A) (A) (A) (A) (A)
                 (A) (A) (A) (A) (A) (A) (A) (A) (A) (A) (A) (A)
                 (A) (A) (A) (A) (A) (A) (A) (A) (A) (A) (A) (A)
                 (A) (A) (A) (A) (A) (A) (A) (A) (A) (A) (A) (A)
                 (A) (A) (A) (A) (A) (A) (A) (A) (A) (A) (A) (A)
                 (A) (A) (A) (A) (A) (A) (A) (A) (A) (A) (A) (A)
                 (A) (A) (A) (A) (A) (A) (A) (A) (A) (A) (A) (A)
                 (A) (A) (A) (A) (A) (A) (A) (A) (A) (A) (A) (A)
                 (A) (A) (A) (A) (A) (A) (A) (A) (A) (A) (A) (A)
                 (A) (A) (A) (A) (A) (A) (A) (A)
 The electronic state is 2-A.
 Alpha  occ. eigenvalues --  -10.19170 -10.18211 -10.17975 -10.17883 -10.17633
 Alpha  occ. eigenvalues --  -10.17584  -0.83084  -0.74688  -0.72706  -0.61047
 Alpha  occ. eigenvalues --   -0.59595  -0.50466  -0.49357  -0.44701  -0.41882
 Alpha  occ. eigenvalues --   -0.40697  -0.39584  -0.38376  -0.35211  -0.32343
 Alpha  occ. eigenvalues --   -0.31551  -0.28795  -0.18066
 Alpha virt. eigenvalues --    0.02330   0.03491   0.06666   0.07062   0.07326
 Alpha virt. eigenvalues --    0.09237   0.09725   0.10748   0.12208   0.12994
 Alpha virt. eigenvalues --    0.16781   0.18816   0.21225   0.21525   0.24937
 Alpha virt. eigenvalues --    0.26072   0.26907   0.27752   0.30471   0.31297
 Alpha virt. eigenvalues --    0.33109   0.33389   0.34680   0.36254   0.36709
 Alpha virt. eigenvalues --    0.41278   0.41724   0.42437   0.43129   0.43833
 Alpha virt. eigenvalues --    0.44195   0.44980   0.46173   0.46269   0.46708
 Alpha virt. eigenvalues --    0.48003   0.48259   0.48476   0.49951   0.51265
 Alpha virt. eigenvalues --    0.52317   0.54344   0.58420   0.59915   0.63073
 Alpha virt. eigenvalues --    0.64449   0.66845   0.70806   0.72865   0.76933
 Alpha virt. eigenvalues --    0.78094   0.79190   0.81649   0.83313   0.84281
 Alpha virt. eigenvalues --    0.89742   0.90402   0.94304   0.95318   0.96083
 Alpha virt. eigenvalues --    0.98656   0.99662   1.02459   1.02740   1.04777
 Alpha virt. eigenvalues --    1.05979   1.06309   1.07615   1.08207   1.09891
 Alpha virt. eigenvalues --    1.11383   1.14350   1.16377   1.16880   1.17929
 Alpha virt. eigenvalues --    1.19396   1.20052   1.21099   1.23771   1.24600
 Alpha virt. eigenvalues --    1.26223   1.27726   1.28915   1.30684   1.31398
 Alpha virt. eigenvalues --    1.33298   1.35722   1.38428   1.39737   1.40774
 Alpha virt. eigenvalues --    1.41976   1.43817   1.44098   1.45174   1.49414
 Alpha virt. eigenvalues --    1.50101   1.53399   1.53878   1.54483   1.55938
 Alpha virt. eigenvalues --    1.58263   1.65147   1.77930   1.82278   1.87165
 Alpha virt. eigenvalues --    1.94332   2.08778   2.10900   2.13555   2.17847
 Alpha virt. eigenvalues --    2.22241   2.26437   2.30645   2.34332   2.38391
 Alpha virt. eigenvalues --    2.40924   2.41658   2.42728   2.43646   2.45283
 Alpha virt. eigenvalues --    2.47475   2.49376   2.51150   2.54714   2.56773
 Alpha virt. eigenvalues --    2.59324   2.59439   2.61302   2.62501   2.64487
 Alpha virt. eigenvalues --    2.65326   2.67364   2.69521   2.71271   2.72228
 Alpha virt. eigenvalues --    2.75836   2.77266   2.79365   2.82338   2.83513
 Alpha virt. eigenvalues --    2.87132   2.88745   2.90071   2.90947   2.93063
 Alpha virt. eigenvalues --    2.94175   2.96394   2.99354   3.00529   3.02932
 Alpha virt. eigenvalues --    3.04252   3.04827   3.06031   3.07503   3.08088
 Alpha virt. eigenvalues --    3.09712   3.10053   3.11441   3.14405   3.15223
 Alpha virt. eigenvalues --    3.16017   3.17970   3.20345   3.21737   3.23094
 Alpha virt. eigenvalues --    3.25124   3.25268   3.26955   3.28493   3.30751
 Alpha virt. eigenvalues --    3.32401   3.33200   3.34655   3.35897   3.36419
 Alpha virt. eigenvalues --    3.40871   3.43029   3.44972   3.45927   3.48810
 Alpha virt. eigenvalues --    3.52110   3.52927   3.55822   3.58891   3.61127
 Alpha virt. eigenvalues --    3.62526   3.63014   3.64854   3.67518   3.69227
 Alpha virt. eigenvalues --    3.70312   3.72919   3.73555   3.75010   3.75911
 Alpha virt. eigenvalues --    3.77405   3.79412   3.80497   3.83496   3.86844
 Alpha virt. eigenvalues --    3.87992   3.88480   3.89226   3.90541   3.94226
 Alpha virt. eigenvalues --    3.94697   3.96380   3.97760   3.99060   4.00097
 Alpha virt. eigenvalues --    4.01380   4.04520   4.05090   4.07434   4.09390
 Alpha virt. eigenvalues --    4.11448   4.11965   4.14146   4.15794   4.17605
 Alpha virt. eigenvalues --    4.18743   4.22116   4.24461   4.25626   4.26227
 Alpha virt. eigenvalues --    4.27505   4.29944   4.34488   4.37413   4.41383
 Alpha virt. eigenvalues --    4.42555   4.45899   4.49506   4.50092   4.55567
 Alpha virt. eigenvalues --    4.56666   4.59337   4.60108   4.67362   4.68352
 Alpha virt. eigenvalues --    4.71209   4.73287   4.76808   4.77213   4.80408
 Alpha virt. eigenvalues --    4.84344   4.86797   4.89229   4.90099   4.93932
 Alpha virt. eigenvalues --    4.95247   4.96292   4.99804   5.04557   5.06361
 Alpha virt. eigenvalues --    5.08388   5.15194   5.16456   5.17851   5.20793
 Alpha virt. eigenvalues --    5.23151   5.28962   5.32851   5.36392   5.38645
 Alpha virt. eigenvalues --    5.39060   5.43590   5.46841   5.53743   5.61274
 Alpha virt. eigenvalues --    5.62775   5.70229   5.85597   5.92253   5.96125
 Alpha virt. eigenvalues --    6.02358   6.08277   9.52323  10.86557  11.97756
 Alpha virt. eigenvalues --   12.36588  12.63487  13.59420
  Beta  occ. eigenvalues --  -10.18274 -10.18166 -10.18006 -10.17986 -10.17612
  Beta  occ. eigenvalues --  -10.17010  -0.82475  -0.74258  -0.71715  -0.60312
  Beta  occ. eigenvalues --   -0.58614  -0.50001  -0.48991  -0.44269  -0.41423
  Beta  occ. eigenvalues --   -0.40401  -0.39076  -0.37970  -0.34590  -0.32115
  Beta  occ. eigenvalues --   -0.31247  -0.26947
  Beta virt. eigenvalues --   -0.06229   0.03204   0.04423   0.06796   0.07178
  Beta virt. eigenvalues --    0.07478   0.09682   0.09894   0.11005   0.12328
  Beta virt. eigenvalues --    0.13175   0.16831   0.19267   0.21357   0.21815
  Beta virt. eigenvalues --    0.25244   0.26164   0.27157   0.28100   0.31047
  Beta virt. eigenvalues --    0.31655   0.33416   0.34787   0.35670   0.36696
  Beta virt. eigenvalues --    0.38940   0.41611   0.42022   0.42647   0.43695
  Beta virt. eigenvalues --    0.44007   0.44446   0.45331   0.46546   0.46719
  Beta virt. eigenvalues --    0.46973   0.48153   0.48622   0.48702   0.50662
  Beta virt. eigenvalues --    0.51723   0.52567   0.54751   0.59066   0.60166
  Beta virt. eigenvalues --    0.63476   0.64690   0.67011   0.71327   0.73002
  Beta virt. eigenvalues --    0.77290   0.78556   0.79586   0.81832   0.83782
  Beta virt. eigenvalues --    0.84593   0.89874   0.90862   0.94635   0.95794
  Beta virt. eigenvalues --    0.96367   0.98944   1.00249   1.02766   1.02994
  Beta virt. eigenvalues --    1.04945   1.06376   1.06761   1.07828   1.08422
  Beta virt. eigenvalues --    1.10157   1.12045   1.14612   1.16667   1.17208
  Beta virt. eigenvalues --    1.18146   1.19784   1.20387   1.21282   1.24189
  Beta virt. eigenvalues --    1.25166   1.26751   1.27806   1.29411   1.30839
  Beta virt. eigenvalues --    1.32074   1.33726   1.35875   1.38772   1.40439
  Beta virt. eigenvalues --    1.41058   1.42304   1.44149   1.44556   1.45670
  Beta virt. eigenvalues --    1.49722   1.50774   1.53841   1.54178   1.54924
  Beta virt. eigenvalues --    1.56507   1.58946   1.65705   1.78156   1.82429
  Beta virt. eigenvalues --    1.87448   1.94961   2.09547   2.11548   2.15377
  Beta virt. eigenvalues --    2.20398   2.22797   2.27370   2.31749   2.34691
  Beta virt. eigenvalues --    2.38774   2.41344   2.41955   2.43402   2.43951
  Beta virt. eigenvalues --    2.45574   2.48239   2.50105   2.51592   2.55022
  Beta virt. eigenvalues --    2.57202   2.59602   2.60254   2.61812   2.62926
  Beta virt. eigenvalues --    2.64676   2.66291   2.68542   2.69971   2.71841
  Beta virt. eigenvalues --    2.72600   2.77054   2.77843   2.80157   2.82590
  Beta virt. eigenvalues --    2.84581   2.87422   2.89388   2.90597   2.91355
  Beta virt. eigenvalues --    2.93759   2.95144   2.97476   3.00033   3.01206
  Beta virt. eigenvalues --    3.03141   3.04532   3.05261   3.06653   3.08402
  Beta virt. eigenvalues --    3.08693   3.10512   3.10741   3.11958   3.14762
  Beta virt. eigenvalues --    3.15504   3.16941   3.18438   3.20671   3.22196
  Beta virt. eigenvalues --    3.24116   3.25533   3.26256   3.27775   3.29380
  Beta virt. eigenvalues --    3.31321   3.32886   3.33820   3.35047   3.36418
  Beta virt. eigenvalues --    3.36873   3.41447   3.43494   3.45470   3.46353
  Beta virt. eigenvalues --    3.49213   3.52526   3.53718   3.56378   3.59015
  Beta virt. eigenvalues --    3.61261   3.62746   3.63351   3.65224   3.67824
  Beta virt. eigenvalues --    3.69512   3.70563   3.73233   3.73821   3.75298
  Beta virt. eigenvalues --    3.76225   3.77877   3.79767   3.80698   3.84139
  Beta virt. eigenvalues --    3.87350   3.88423   3.89047   3.89581   3.90876
  Beta virt. eigenvalues --    3.94550   3.95099   3.96764   3.98046   3.99385
  Beta virt. eigenvalues --    4.00462   4.01711   4.04712   4.05348   4.07825
  Beta virt. eigenvalues --    4.09622   4.11723   4.12091   4.14540   4.16300
  Beta virt. eigenvalues --    4.17923   4.19012   4.22432   4.24779   4.25869
  Beta virt. eigenvalues --    4.26416   4.27690   4.30272   4.34854   4.37821
  Beta virt. eigenvalues --    4.41709   4.42886   4.46138   4.49824   4.50317
  Beta virt. eigenvalues --    4.55757   4.56959   4.59886   4.60384   4.67770
  Beta virt. eigenvalues --    4.68618   4.71385   4.73556   4.76951   4.78286
  Beta virt. eigenvalues --    4.80576   4.84502   4.87028   4.89477   4.90264
  Beta virt. eigenvalues --    4.94227   4.95507   4.96593   5.00021   5.04958
  Beta virt. eigenvalues --    5.06604   5.08796   5.15460   5.16608   5.18046
  Beta virt. eigenvalues --    5.20937   5.23419   5.29290   5.33037   5.36589
  Beta virt. eigenvalues --    5.38846   5.39173   5.43792   5.47021   5.53974
  Beta virt. eigenvalues --    5.61442   5.62953   5.70381   5.85681   5.92379
  Beta virt. eigenvalues --    5.96336   6.02428   6.08419   9.52801  10.87908
  Beta virt. eigenvalues --   11.97873  12.36689  12.63517  13.59737
          Condensed to atoms (all electrons):
               1          2          3          4          5          6
     1  C    4.847030   0.341864  -0.051907  -0.015337  -0.035466   0.350417
     2  C    0.341864   5.021225   0.588512  -0.075063  -0.003778  -0.042944
     3  C   -0.051907   0.588512   4.854572   0.439329  -0.041547  -0.010596
     4  C   -0.015337  -0.075063   0.439329   5.223629   0.339166  -0.049845
     5  C   -0.035466  -0.003778  -0.041547   0.339166   4.834008   0.338717
     6  C    0.350417  -0.042944  -0.010596  -0.049845   0.338717   4.864464
     7  H   -0.034600   0.007057  -0.000356   0.007973  -0.035952   0.405719
     8  H   -0.036215  -0.003592   0.006820  -0.002474  -0.036288   0.400180
     9  H   -0.007070   0.002458   0.000654  -0.044977   0.404822  -0.038606
    10  H    0.007016  -0.000316   0.004019  -0.033670   0.405783  -0.029086
    11  H    0.000128   0.004323  -0.033585   0.410037  -0.038589   0.005670
    12  H    0.008486  -0.052466   0.417764  -0.038112   0.005167  -0.001032
    13  H   -0.047078   0.417243  -0.050610   0.008259  -0.001154   0.006561
    14  H    0.410616  -0.038687   0.003902  -0.000534   0.008085  -0.034467
    15  H    0.397602  -0.041048  -0.000977   0.002023  -0.006982  -0.029922
               7          8          9         10         11         12
     1  C   -0.034600  -0.036215  -0.007070   0.007016   0.000128   0.008486
     2  C    0.007057  -0.003592   0.002458  -0.000316   0.004323  -0.052466
     3  C   -0.000356   0.006820   0.000654   0.004019  -0.033585   0.417764
     4  C    0.007973  -0.002474  -0.044977  -0.033670   0.410037  -0.038112
     5  C   -0.035952  -0.036288   0.404822   0.405783  -0.038589   0.005167
     6  C    0.405719   0.400180  -0.038606  -0.029086   0.005670  -0.001032
     7  H    0.627312  -0.035097  -0.004933  -0.004764  -0.000390   0.000082
     8  H   -0.035097   0.623346   0.008949  -0.006752   0.000335  -0.000271
     9  H   -0.004933   0.008949   0.625708  -0.036152   0.001079  -0.000261
    10  H   -0.004764  -0.006752  -0.036152   0.612581  -0.005100  -0.000237
    11  H   -0.000390   0.000335   0.001079  -0.005100   0.544668  -0.003256
    12  H    0.000082  -0.000271  -0.000261  -0.000237  -0.003256   0.568768
    13  H   -0.000363   0.000146   0.000018   0.000089  -0.000391  -0.010796
    14  H   -0.003827  -0.007324   0.000052  -0.000436   0.000052  -0.000348
    15  H   -0.006774   0.008385   0.003215  -0.000082   0.000029  -0.000575
              13         14         15
     1  C   -0.047078   0.410616   0.397602
     2  C    0.417243  -0.038687  -0.041048
     3  C   -0.050610   0.003902  -0.000977
     4  C    0.008259  -0.000534   0.002023
     5  C   -0.001154   0.008085  -0.006982
     6  C    0.006561  -0.034467  -0.029922
     7  H   -0.000363  -0.003827  -0.006774
     8  H    0.000146  -0.007324   0.008385
     9  H    0.000018   0.000052   0.003215
    10  H    0.000089  -0.000436  -0.000082
    11  H   -0.000391   0.000052   0.000029
    12  H   -0.010796  -0.000348  -0.000575
    13  H    0.577097  -0.006187   0.000998
    14  H   -0.006187   0.617380  -0.034172
    15  H    0.000998  -0.034172   0.625441
          Atomic-Atomic Spin Densities.
               1          2          3          4          5          6
     1  C   -0.014536  -0.023993   0.001409   0.005868  -0.003798   0.005016
     2  C   -0.023993   0.455149   0.011292  -0.049283   0.007517  -0.002030
     3  C    0.001409   0.011292  -0.198899  -0.008613   0.000750   0.001026
     4  C    0.005868  -0.049283  -0.008613   0.934886  -0.032969  -0.009979
     5  C   -0.003798   0.007517   0.000750  -0.032969  -0.032456   0.001544
     6  C    0.005016  -0.002030   0.001026  -0.009979   0.001544   0.019493
     7  H   -0.000412   0.000122  -0.000049   0.000218   0.001003  -0.001118
     8  H    0.000309  -0.000512  -0.000948   0.002982  -0.000153  -0.002469
     9  H   -0.004078   0.005007   0.000541  -0.024813   0.017257  -0.007606
    10  H    0.000476  -0.000299  -0.000138  -0.005995   0.002301   0.005491
    11  H    0.000017  -0.000543   0.001089   0.011270   0.001993  -0.000070
    12  H   -0.000121   0.000072  -0.001921  -0.001740   0.000089  -0.000032
    13  H    0.001613   0.005279   0.000575   0.000156  -0.000066  -0.000208
    14  H    0.002757  -0.004529   0.000099  -0.000174   0.000582   0.001210
    15  H    0.009975  -0.012061  -0.000231   0.003390  -0.003288  -0.000478
               7          8          9         10         11         12
     1  C   -0.000412   0.000309  -0.004078   0.000476   0.000017  -0.000121
     2  C    0.000122  -0.000512   0.005007  -0.000299  -0.000543   0.000072
     3  C   -0.000049  -0.000948   0.000541  -0.000138   0.001089  -0.001921
     4  C    0.000218   0.002982  -0.024813  -0.005995   0.011270  -0.001740
     5  C    0.001003  -0.000153   0.017257   0.002301   0.001993   0.000089
     6  C   -0.001118  -0.002469  -0.007606   0.005491  -0.000070  -0.000032
     7  H   -0.001315   0.000656   0.000999  -0.000347   0.000012   0.000002
     8  H    0.000656  -0.000784   0.000580  -0.000620  -0.000035   0.000021
     9  H    0.000999   0.000580   0.053084  -0.006334  -0.000377   0.000066
    10  H   -0.000347  -0.000620  -0.006334   0.015338   0.000505  -0.000019
    11  H    0.000012  -0.000035  -0.000377   0.000505  -0.041955   0.000159
    12  H    0.000002   0.000021   0.000066  -0.000019   0.000159   0.009065
    13  H   -0.000001  -0.000039  -0.000042   0.000003   0.000031   0.000313
    14  H    0.000308   0.000228   0.000250  -0.000039  -0.000003   0.000014
    15  H   -0.000523  -0.000277  -0.002775   0.000195   0.000008  -0.000055
              13         14         15
     1  C    0.001613   0.002757   0.009975
     2  C    0.005279  -0.004529  -0.012061
     3  C    0.000575   0.000099  -0.000231
     4  C    0.000156  -0.000174   0.003390
     5  C   -0.000066   0.000582  -0.003288
     6  C   -0.000208   0.001210  -0.000478
     7  H   -0.000001   0.000308  -0.000523
     8  H   -0.000039   0.000228  -0.000277
     9  H   -0.000042   0.000250  -0.002775
    10  H    0.000003  -0.000039   0.000195
    11  H    0.000031  -0.000003   0.000008
    12  H    0.000313   0.000014  -0.000055
    13  H   -0.024327   0.000032   0.000286
    14  H    0.000032   0.011330  -0.003717
    15  H    0.000286  -0.003717   0.025839
 Mulliken charges and spin densities:
               1          2
     1  C   -0.135487  -0.019497
     2  C   -0.124787   0.391188
     3  C   -0.125992  -0.194017
     4  C   -0.170404   0.825204
     5  C   -0.135992  -0.039695
     6  C   -0.135231   0.009789
     7  H    0.078913  -0.000444
     8  H    0.079851  -0.001060
     9  H    0.085044   0.031759
    10  H    0.087108   0.010518
    11  H    0.114989  -0.027898
    12  H    0.107086   0.005912
    13  H    0.106169  -0.016395
    14  H    0.085896   0.008348
    15  H    0.082839   0.016288
 Sum of Mulliken charges =  -0.00000   1.00000
 Mulliken charges and spin densities with hydrogens summed into heavy atoms:
               1          2
     1  C    0.033247   0.005139
     2  C   -0.018618   0.374793
     3  C   -0.018906  -0.188105
     4  C   -0.055415   0.797306
     5  C    0.036160   0.002583
     6  C    0.023532   0.008285
 APT charges:
               1
     1  C   -0.734772
     2  C   -0.489351
     3  C   -0.550321
     4  C   -0.557898
     5  C   -0.729383
     6  C   -0.694474
     7  H    0.429020
     8  H    0.279468
     9  H    0.306379
    10  H    0.440815
    11  H    0.528837
    12  H    0.529272
    13  H    0.505186
    14  H    0.417980
    15  H    0.319242
 Sum of APT charges =  -0.00000
 APT charges with hydrogens summed into heavy atoms:
               1
     1  C    0.002450
     2  C    0.015834
     3  C   -0.021049
     4  C   -0.029061
     5  C    0.017812
     6  C    0.014014
 Electronic spatial extent (au):  <R**2>=            541.6013
 Charge=             -0.0000 electrons
 Dipole moment (field-independent basis, Debye):
    X=              0.2342    Y=             -0.3682    Z=              0.3148  Tot=              0.5381
 Quadrupole moment (field-independent basis, Debye-Ang):
   XX=            -36.7831   YY=            -37.0843   ZZ=            -39.8114
   XY=              0.2239   XZ=             -0.0711   YZ=             -0.1088
 Traceless Quadrupole moment (field-independent basis, Debye-Ang):
   XX=              1.1098   YY=              0.8086   ZZ=             -1.9185
   XY=              0.2239   XZ=             -0.0711   YZ=             -0.1088
 Octapole moment (field-independent basis, Debye-Ang**2):
  XXX=             -2.5872  YYY=              1.9831  ZZZ=              1.5294  XYY=             -0.9634
  XXY=              0.8350  XXZ=              0.3338  XZZ=              2.3399  YZZ=             -2.8361
  YYZ=             -0.1687  XYZ=              0.2854
 Hexadecapole moment (field-independent basis, Debye-Ang**3):
 XXXX=           -341.5308 YYYY=           -323.3571 ZZZZ=            -80.4579 XXXY=             -1.0455
 XXXZ=             -3.3438 YYYX=             -0.2683 YYYZ=              1.7663 ZZZX=              0.0866
 ZZZY=              0.0831 XXYY=           -109.5862 XXZZ=            -76.9133 YYZZ=            -72.8528
 XXYZ=             -2.2654 YYXZ=              1.6908 ZZXY=              1.1008
 N-N= 2.244380173728D+02 E-N=-9.901557946551D+02  KE= 2.319128387509D+02
  Exact polarizability:       0.000       0.000       0.000       0.000       0.000       0.000
 Approx polarizability:     108.612      12.537     116.855       0.950      -5.556      80.051
                          Isotropic Fermi Contact Couplings
        Atom                 a.u.       MegaHertz       Gauss      10(-4) cm-1
     1  C(13)             -0.01124     -12.63738      -4.50933      -4.21538
     2  C(13)              0.01771      19.91307       7.10548       6.64228
     3  C(13)             -0.03229     -36.29921     -12.95246     -12.10811
     4  C(13)              0.04762      53.53604      19.10299      17.85770
     5  C(13)             -0.01918     -21.55899      -7.69278      -7.19130
     6  C(13)              0.00595       6.69376       2.38850       2.23280
     7  H(1)              -0.00029      -1.30787      -0.46668      -0.43626
     8  H(1)              -0.00038      -1.68000      -0.59946      -0.56039
     9  H(1)               0.01874      83.77173      29.89184      27.94324
    10  H(1)               0.00681      30.45817      10.86823      10.15975
    11  H(1)              -0.01114     -49.77939     -17.76252     -16.60462
    12  H(1)               0.00214       9.58533       3.42029       3.19732
    13  H(1)              -0.00594     -26.54135      -9.47061      -8.85324
    14  H(1)               0.00522      23.34122       8.32873       7.78579
    15  H(1)               0.01037      46.35150      16.53937      15.46120
 --------------------------------------------------------
       Center         ----  Spin Dipole Couplings  ----
                      3XX-RR        3YY-RR        3ZZ-RR
 --------------------------------------------------------
     1   Atom       -0.002350      0.001001      0.001349
     2   Atom       -0.216913     -0.209654      0.426567
     3   Atom        0.084471      0.088903     -0.173374
     4   Atom       -0.417811     -0.474940      0.892752
     5   Atom       -0.001762     -0.004084      0.005846
     6   Atom       -0.003152      0.015446     -0.012295
     7   Atom        0.000523      0.002843     -0.003367
     8   Atom       -0.003007      0.004051     -0.001044
     9   Atom        0.001260     -0.001535      0.000275
    10   Atom        0.012361     -0.004956     -0.007405
    11   Atom       -0.054678      0.054182      0.000496
    12   Atom        0.007648      0.000252     -0.007900
    13   Atom        0.023471     -0.023670      0.000199
    14   Atom       -0.002446      0.007109     -0.004663
    15   Atom       -0.002184      0.003540     -0.001356
 --------------------------------------------------------
                        XY            XZ            YZ
 --------------------------------------------------------
     1   Atom       -0.001381      0.003791      0.001290
     2   Atom        0.023628      0.084733      0.142063
     3   Atom        0.015528      0.019224     -0.032060
     4   Atom       -0.000331     -0.289805      0.013512
     5   Atom       -0.005414     -0.000449     -0.005094
     6   Atom        0.002960     -0.001384      0.000921
     7   Atom       -0.003342     -0.000288      0.000493
     8   Atom       -0.002322     -0.002698      0.005932
     9   Atom       -0.006738      0.007569     -0.004930
    10   Atom       -0.005552      0.000063      0.000639
    11   Atom        0.021910     -0.011449      0.005863
    12   Atom        0.007056      0.001677     -0.002051
    13   Atom        0.017676     -0.006336      0.003232
    14   Atom       -0.001913     -0.000630      0.001888
    15   Atom       -0.002387      0.001412     -0.005266
 --------------------------------------------------------


 ---------------------------------------------------------------------------------
              Anisotropic Spin Dipole Couplings in Principal Axis System
 ---------------------------------------------------------------------------------

       Atom             a.u.   MegaHertz   Gauss  10(-4) cm-1        Axes

              Baa    -0.0053    -0.707    -0.252    -0.236  0.8070  0.2843 -0.5177
     1 C(13)  Bbb     0.0015     0.201     0.072     0.067 -0.3214  0.9468  0.0190
              Bcc     0.0038     0.506     0.181     0.169  0.4955  0.1511  0.8554
 
              Baa    -0.2420   -32.479   -11.589   -10.834 -0.3600  0.9208 -0.1500
     2 C(13)  Bbb    -0.2261   -30.336   -10.824   -10.119  0.9243  0.3301 -0.1918
              Bcc     0.4681    62.815    22.414    20.953  0.1271  0.2077  0.9699
 
              Baa    -0.1789   -24.007    -8.566    -8.008 -0.0795  0.1230  0.9892
     3 C(13)  Bbb     0.0760    10.193     3.637     3.400  0.7866 -0.6019  0.1380
              Bcc     0.1029    13.814     4.929     4.608  0.6124  0.7891 -0.0489
 
              Baa    -0.4802   -64.441   -22.994   -21.495  0.8816 -0.4320  0.1903
     4 C(13)  Bbb    -0.4739   -63.590   -22.691   -21.211  0.4244  0.9018  0.0811
              Bcc     0.9541   128.031    45.685    42.707 -0.2067  0.0093  0.9784
 
              Baa    -0.0097    -1.298    -0.463    -0.433  0.5537  0.7863  0.2742
     5 C(13)  Bbb     0.0013     0.179     0.064     0.060  0.8084 -0.4287 -0.4033
              Bcc     0.0083     1.119     0.399     0.373  0.1996 -0.4450  0.8730
 
              Baa    -0.0126    -1.686    -0.602    -0.562  0.1604 -0.0494  0.9858
     6 C(13)  Bbb    -0.0034    -0.451    -0.161    -0.150  0.9753 -0.1454 -0.1660
              Bcc     0.0159     2.137     0.762     0.713  0.1516  0.9881  0.0248
 
              Baa    -0.0034    -1.817    -0.648    -0.606  0.0113 -0.0726  0.9973
     7 H(1)   Bbb    -0.0019    -0.989    -0.353    -0.330  0.8159  0.5772  0.0328
              Bcc     0.0053     2.806     1.001     0.936 -0.5780  0.8134  0.0658
 
              Baa    -0.0055    -2.950    -1.052    -0.984  0.5041 -0.3631  0.7836
     8 H(1)   Bbb    -0.0034    -1.824    -0.651    -0.608  0.8181  0.4915 -0.2986
              Bcc     0.0089     4.773     1.703     1.592 -0.2767  0.7916  0.5448
 
              Baa    -0.0075    -3.981    -1.421    -1.328  0.7528  0.5174 -0.4068
     9 H(1)   Bbb    -0.0056    -2.993    -1.068    -0.998 -0.0967  0.6983  0.7093
              Bcc     0.0131     6.974     2.489     2.326  0.6511 -0.4947  0.5757
 
              Baa    -0.0077    -4.134    -1.475    -1.379 -0.1293 -0.4586  0.8792
    10 H(1)   Bbb    -0.0062    -3.330    -1.188    -1.111  0.2499  0.8429  0.4764
              Bcc     0.0140     7.464     2.663     2.490  0.9596 -0.2814 -0.0056
 
              Baa    -0.0614   -32.756   -11.688   -10.926  0.9616 -0.1922  0.1961
    11 H(1)   Bbb     0.0027     1.463     0.522     0.488 -0.2045 -0.0245  0.9786
              Bcc     0.0587    31.294    11.166    10.438  0.1833  0.9810  0.0628
 
              Baa    -0.0092    -4.923    -1.757    -1.642 -0.2462  0.3765  0.8931
    12 H(1)   Bbb    -0.0027    -1.439    -0.514    -0.480 -0.4525  0.7702 -0.4494
              Bcc     0.0119     6.362     2.270     2.122  0.8571  0.5148  0.0192
 
              Baa    -0.0304   -16.227    -5.790    -5.413 -0.3249  0.9311 -0.1656
    13 H(1)   Bbb     0.0002     0.111     0.040     0.037  0.1055  0.2097  0.9721
              Bcc     0.0302    16.115     5.750     5.376  0.9398  0.2984 -0.1663
 
              Baa    -0.0050    -2.671    -0.953    -0.891  0.1442 -0.1301  0.9810
    14 H(1)   Bbb    -0.0028    -1.486    -0.530    -0.496  0.9710  0.2097 -0.1149
              Bcc     0.0078     4.157     1.483     1.387 -0.1908  0.9691  0.1566
 
              Baa    -0.0047    -2.518    -0.899    -0.840  0.0495  0.5471  0.8356
    15 H(1)   Bbb    -0.0030    -1.578    -0.563    -0.526  0.9614  0.2005 -0.1883
              Bcc     0.0077     4.097     1.462     1.366 -0.2706  0.8127 -0.5160
 

 ---------------------------------------------------------------------------------

 No NMR shielding tensors so no spin-rotation constants.
 Leave Link  601 at Sun Apr  3 19:59:51 2022, MaxMem=  1073741824 cpu:               2.8 elap:               0.4
 (Enter /home/saurabh/g16/l701.exe)
 ... and contract with generalized density number  0.
 Compute integral second derivatives.
 Leave Link  701 at Sun Apr  3 19:59:51 2022, MaxMem=  1073741824 cpu:               1.9 elap:               0.3
 (Enter /home/saurabh/g16/l702.exe)
 L702 exits ... SP integral derivatives will be done elsewhere.
 Leave Link  702 at Sun Apr  3 19:59:51 2022, MaxMem=  1073741824 cpu:               0.2 elap:               0.0
 (Enter /home/saurabh/g16/l703.exe)
 Integral derivatives from FoFJK, PRISM(SPDF).
 Compute integral second derivatives, UseDBF=F ICtDFT=           0.
 Calling FoFJK, ICntrl=    100127 FMM=F ISym2X=0 I1Cent= 0 IOpClX= 1 NMat=1 NMatS=1 NMatT=0.
 FoFJK:  IHMeth= 1 ICntrl=  100127 DoSepK=F KAlg= 0 I1Cent=           0 FoldK=F
 IRaf=         0 NMat=       1 IRICut=       1 DoRegI=T DoRafI=F ISym2E= 0 IDoP0=0 IntGTp=1.
 FoFCou: FMM=F IPFlag=           0 FMFlag=      100000 FMFlg1=         800
         NFxFlg=           0 DoJE=F BraDBF=F KetDBF=F FulRan=T
         wScrn=  0.000000 ICntrl=    100127 IOpCl=  1 I1Cent=           0 NGrid=           0
         NMat0=    1 NMatS0=      1 NMatT0=    0 NMatD0=    1 NMtDS0=    0 NMtDT0=    0
 Symmetry not used in FoFCou.
 Leave Link  703 at Sun Apr  3 20:05:07 2022, MaxMem=  1073741824 cpu:            2528.6 elap:             315.9
 (Enter /home/saurabh/g16/l716.exe)
 Dipole        = 9.21555829D-02-1.44848584D-01 1.23870653D-01
 Polarizability= 0.00000000D+00 0.00000000D+00 0.00000000D+00
                 0.00000000D+00 0.00000000D+00 0.00000000D+00
 ***** Axes restored to original set *****
 -------------------------------------------------------------------
 Center     Atomic                   Forces (Hartrees/Bohr)
 Number     Number              X              Y              Z
 -------------------------------------------------------------------
      1        6          -0.001384981   -0.009984353    0.000611430
      2        6          -0.008652405   -0.020339142    0.002260035
      3        6           0.045610089    0.055138032    0.015812981
      4        6          -0.035159361   -0.032072993   -0.002978715
      5        6          -0.016754017    0.013560703   -0.011116697
      6        6           0.011300180   -0.006063249   -0.001934086
      7        1          -0.012733217    0.005521366   -0.004648098
      8        1           0.000999729   -0.001027247    0.014195963
      9        1           0.001806359   -0.000412245   -0.010729159
     10        1          -0.010417789   -0.005944237    0.008270046
     11        1          -0.000677329   -0.007653908   -0.001224408
     12        1           0.013691399   -0.003286882   -0.000654287
     13        1           0.011002021    0.004078502   -0.005659124
     14        1           0.000404155    0.010604885    0.008760260
     15        1           0.000965166   -0.002119232   -0.010966140
 -------------------------------------------------------------------
 Cartesian Forces:  Max     0.055138032 RMS     0.015267142
 FormGI is forming the generalized inverse of G from B-inverse, IUseBI=4.
 Leave Link  716 at Sun Apr  3 20:05:07 2022, MaxMem=  1073741824 cpu:               0.2 elap:               0.0
 (Enter /home/saurabh/g16/l103.exe)

 GradGradGradGradGradGradGradGradGradGradGradGradGradGradGradGradGradGrad
 Berny optimization.
 Red2BG is reusing G-inverse.
 Internal  Forces:  Max     0.064296004 RMS     0.009311594
 Search for a local minimum.
 Step number   1 out of a maximum of  100
 All quantities printed in internal units (Hartrees-Bohrs-Radians)
 RMS Force = .93116D-02 SwitMx=.10000D-02 MixMth= 1
 Mixed Optimization -- RFO/linear search
 Second derivative matrix not updated -- analytic derivatives used.
 ITU=  0
     Eigenvalues ---    0.00277   0.00442   0.00587   0.01242   0.01496
     Eigenvalues ---    0.02057   0.03244   0.03346   0.03866   0.04129
     Eigenvalues ---    0.04165   0.05494   0.06069   0.06930   0.07561
     Eigenvalues ---    0.07768   0.08676   0.09614   0.09958   0.10888
     Eigenvalues ---    0.11763   0.12956   0.18019   0.19066   0.19885
     Eigenvalues ---    0.21400   0.25140   0.25610   0.27392   0.28059
     Eigenvalues ---    0.28170   0.28409   0.29158   0.29416   0.30229
     Eigenvalues ---    0.31320   0.31655   0.33742   0.52211
 RFO step:  Lambda=-3.77436309D-02 EMin= 2.76507704D-03
 Linear search not attempted -- first point.
 Maximum step size (   0.300) exceeded in Quadratic search.
    -- Step size scaled by   0.667
 Iteration  1 RMS(Cart)=  0.03608562 RMS(Int)=  0.00749968
 Iteration  2 RMS(Cart)=  0.00954376 RMS(Int)=  0.00037497
 Iteration  3 RMS(Cart)=  0.00002194 RMS(Int)=  0.00037449
 Iteration  4 RMS(Cart)=  0.00000001 RMS(Int)=  0.00037449
 ITry= 1 IFail=0 DXMaxC= 1.80D-01 DCOld= 1.00D+10 DXMaxT= 3.00D-01 DXLimC= 3.00D+00 Rises=F
 Variable       Old X    -DE/DX   Delta X   Delta X   Delta X     New X
                                 (Linear)    (Quad)   (Total)
    R1        2.84708  -0.00571   0.00000  -0.00783  -0.00754   2.83954
    R2        2.90171  -0.00619   0.00000  -0.00571  -0.00589   2.89582
    R3        2.10880  -0.01321   0.00000  -0.02644  -0.02644   2.08236
    R4        2.10771  -0.01057   0.00000  -0.01960  -0.01960   2.08811
    R5        2.53210   0.01575   0.00000   0.05091   0.05113   2.58323
    R6        2.08607  -0.01228   0.00000  -0.02668  -0.02668   2.05939
    R7        2.91600  -0.06430   0.00000  -0.26811  -0.26829   2.64770
    R8        2.08375  -0.01339   0.00000  -0.02158  -0.02158   2.06217
    R9        2.91676  -0.02017   0.00000  -0.04907  -0.04944   2.86733
   R10        2.06284  -0.00745   0.00000  -0.01164  -0.01164   2.05119
   R11        2.89394  -0.00142   0.00000   0.00099   0.00120   2.89514
   R12        2.10695  -0.01058   0.00000  -0.01930  -0.01930   2.08765
   R13        2.10795  -0.01429   0.00000  -0.02817  -0.02817   2.07978
   R14        2.11009  -0.01457   0.00000  -0.03050  -0.03050   2.07959
   R15        2.10903  -0.01421   0.00000  -0.02757  -0.02757   2.08146
    A1        1.97012  -0.01065   0.00000  -0.02944  -0.02954   1.94058
    A2        1.89798   0.00648   0.00000   0.02080   0.02044   1.91842
    A3        1.88992   0.00180   0.00000   0.00925   0.00974   1.89966
    A4        1.90178   0.00174   0.00000   0.00813   0.00888   1.91066
    A5        1.92420   0.00441   0.00000   0.00720   0.00672   1.93092
    A6        1.87746  -0.00347   0.00000  -0.01537  -0.01549   1.86197
    A7        2.13975  -0.00368   0.00000  -0.02021  -0.01984   2.11991
    A8        2.05463   0.00089   0.00000   0.01322   0.01298   2.06760
    A9        2.08808   0.00275   0.00000   0.00660   0.00643   2.09452
   A10        2.06980   0.01046   0.00000   0.05272   0.05229   2.12209
   A11        2.10200  -0.00120   0.00000  -0.02543  -0.02620   2.07579
   A12        2.08263  -0.00818   0.00000  -0.01306  -0.01367   2.06896
   A13        2.08266   0.00215   0.00000   0.01635   0.01580   2.09845
   A14        2.09215  -0.00269   0.00000   0.00134   0.00154   2.09369
   A15        2.09938   0.00066   0.00000  -0.01534  -0.01514   2.08424
   A16        1.88171   0.00452   0.00000   0.01773   0.01782   1.89954
   A17        1.90695   0.00036   0.00000  -0.00137  -0.00165   1.90529
   A18        1.91487  -0.00222   0.00000   0.00857   0.00874   1.92362
   A19        1.93389  -0.00155   0.00000  -0.00587  -0.00598   1.92791
   A20        1.93326  -0.00016   0.00000  -0.00347  -0.00367   1.92959
   A21        1.89308  -0.00095   0.00000  -0.01522  -0.01525   1.87784
   A22        1.93544  -0.00016   0.00000  -0.00132  -0.00224   1.93320
[...]
 ! D35   D(9,5,6,8)           -167.7487         -DE/DX =    0.0                 !
 ! D36   D(10,5,6,1)          -171.988          -DE/DX =    0.0                 !
 ! D37   D(10,5,6,7)            64.8178         -DE/DX =    0.0                 !
 ! D38   D(10,5,6,8)           -52.1891         -DE/DX =    0.0                 !
 --------------------------------------------------------------------------------
 GradGradGradGradGradGradGradGradGradGradGradGradGradGradGradGradGradGrad

 Leave Link  103 at Sun Apr  3 20:35:19 2022, MaxMem=  1073741824 cpu:               0.2 elap:               0.0
 (Enter /home/saurabh/g16/l9999.exe)

 ----------------------------------------------------------------------

 Electric dipole moment (input orientation):
 (Debye = 10**-18 statcoulomb cm , SI units = C m)
                  (au)            (Debye)         (10**-30 SI)
   Tot        0.184092D+00      0.467916D+00      0.156080D+01
   x          0.156139D+00      0.396866D+00      0.132380D+01
   y         -0.788322D-01     -0.200371D+00     -0.668367D+00
   z          0.574107D-01      0.145923D+00      0.486748D+00

 Dipole polarizability, Alpha (input orientation).
 (esu units = cm**3 , SI units = C**2 m**2 J**-1)
 Alpha(0;0):
               (au)            (10**-24 esu)      (10**-40 SI)
   iso        0.674129D+02      0.998956D+01      0.111149D+02
   aniso      0.289970D+02      0.429691D+01      0.478095D+01
   xx         0.729587D+02      0.108114D+02      0.120293D+02
   yx         0.511283D+01      0.757643D+00      0.842992D+00
   yy         0.792385D+02      0.117419D+02      0.130647D+02
   zx         0.219127D+01      0.324713D+00      0.361292D+00
   zy        -0.362614D+01     -0.537339D+00     -0.597871D+00
   zz         0.500415D+02      0.741539D+01      0.825073D+01

 ----------------------------------------------------------------------

 Dipole orientation:
     6         -0.02752151         -0.04394685          0.00563866
     6         -0.21038193          0.19099451         -2.81086413
     6          0.87602477          2.21180816         -4.06505522
     6          2.14002185          4.12675987         -2.81114290
     6          2.43362469          4.07748187          0.00538331
     6          2.27747954          1.37522492          1.04697708
     1          2.23301236          1.40189826          3.10860410
     1          3.98589144          0.35500886          0.49334554
     1          0.95327824          5.24434738          0.87870656
     1          4.22105182          4.95275087          0.55753838
     1          2.89547684          5.71249987         -3.85784283
     1          0.70467824          2.31395475         -6.10386760
     1         -1.24822081         -1.22621989         -3.85741696
     1          0.04971917         -2.03264532          0.55789831
     1         -1.75684371          0.70589462          0.87907124

 Electric dipole moment (dipole orientation):
 (Debye = 10**-18 statcoulomb cm , SI units = C m)
                  (au)            (Debye)         (10**-30 SI)
   Tot        0.184092D+00      0.467916D+00      0.156080D+01
   x          0.000000D+00      0.000000D+00      0.000000D+00
   y          0.000000D+00      0.000000D+00      0.000000D+00
   z          0.184092D+00      0.467916D+00      0.156080D+01

 Dipole polarizability, Alpha (dipole orientation).
 (esu units = cm**3 , SI units = C**2 m**2 J**-1)
 Alpha(0;0):
               (au)            (10**-24 esu)      (10**-40 SI)
   iso        0.674129D+02      0.998956D+01      0.111149D+02
   aniso      0.289970D+02      0.429691D+01      0.478095D+01
   xx         0.582569D+02      0.863278D+01      0.960527D+01
   yx         0.143223D+02      0.212235D+01      0.236144D+01
   yy         0.736866D+02      0.109192D+02      0.121493D+02
   zx         0.263116D+01      0.389898D+00      0.433820D+00
   zy        -0.157231D+01     -0.232993D+00     -0.259239D+00
   zz         0.702952D+02      0.104167D+02      0.115901D+02

 ----------------------------------------------------------------------
 Unable to Open any file for archive entry.
 1\1\GINC-HEL01\Freq\UB3LYP\CC-pVTZ\C6H9(2)\SAURABH\03-Apr-2022\0\\#P G
 eom=AllCheck Guess=TCheck SCRF=Check GenChk UB3LYP/CC-pVTZ Freq\\Mol_0
 1\\0,2\C,-0.0104853218,-0.025314806,0.0033243226\C,-1.2838864246,0.693
 0754089,-0.3261668698\C,-1.2910873929,2.0563383273,-0.5628246388\C,-0.
 145653261,2.8290817328,-0.4892704568\C,1.181426511,2.2114262266,-0.167
 407199\C,1.2157021116,0.7224304258,-0.5377775881\H,2.1342933716,0.2608
 827633,-0.1715485901\H,1.226055111,0.6337701037,-1.6271073864\H,1.3905
 51575,2.3278120759,0.905550633\H,1.9846714579,2.7466055863,-0.68018880
 04\H,-0.2025649028,3.8987902917,-0.6417365565\H,-2.2321447285,2.539737
 6915,-0.7992346294\H,-2.2092789916,0.1330511621,-0.3542167463\H,-0.035
 5153514,-1.044414815,-0.3908536828\H,0.0780872365,-0.1352631749,1.0935
 471889\\Version=EM64L-G16RevC.01\State=2-A\HF=-234.093385\S2=0.775597\
 S2-1=0.\S2A=0.750152\RMSD=3.282e-09\RMSF=2.257e-06\ZeroPoint=0.1320384
 \Thermal=0.1375431\ETot=-233.9558419\HTot=-233.9548978\GTot=-233.99053
 31\Dipole=0.1561392,-0.0788322,0.0574107\DipoleDeriv=-0.0091441,-0.020
 4699,-0.0154079,-0.0143778,0.0707566,0.0342083,-0.0033378,0.1098789,0.
 1839242,0.1044928,-0.0378832,0.0631005,-0.0124766,0.0660519,-0.0578305
 ,0.0532222,-0.1250406,-0.1909053,0.0106472,-0.0220128,0.0303801,-0.022
 804,-0.0246588,-0.0232515,0.0200284,-0.0177481,-0.1275508,0.1139866,-0
 .0051412,0.0650674,-0.0272388,0.066326,-0.0494868,0.1181965,-0.0052672
 ,-0.2006822,0.0541408,0.0262851,-0.032105,0.0169015,-0.0056247,0.01540
 87,-0.0872783,-0.0373085,0.1970327,0.0966652,-0.0460433,0.026218,-0.04
 72441,0.031392,-0.0038592,0.0104676,0.0045331,0.138992,-0.1446374,0.09
 55538,-0.0389197,0.0929629,-0.0077125,0.0205995,-0.0729026,0.0387073,0
 .0384135,0.0374316,-0.019775,-0.0108045,-0.0158047,0.0097763,-0.006741
 1,0.0412306,-0.0344702,-0.1618913,-0.0189078,-0.0292301,-0.0301516,0.0
 562994,0.0556899,-0.0118625,-0.0823949,-0.0597365,-0.1479132,-0.098283
 ,-0.0910664,0.051502,-0.0650629,-0.0189077,0.0400667,0.0997867,0.06193
 32,0.0243351,0.011987,0.0326077,-0.0150461,0.0222674,-0.1212628,0.0296
 455,-0.0218184,0.0402647,0.121007,-0.0968683,0.0772191,-0.0481349,0.07
 72019,0.0161274,0.0304661,-0.0482756,0.0305434,0.1180386,-0.1088922,-0
 .0588197,-0.0115515,-0.0500407,-0.0028719,0.0140577,-0.0252933,0.01434
 7,0.1234834,0.0286293,0.0128151,-0.006129,-0.0086224,-0.1649772,-0.042
 0536,0.0054707,-0.0958329,0.0434924,0.0187523,0.0859609,-0.0280177,-0.
 0019611,0.0298953,0.0106326,-0.0071017,0.0751963,-0.1597761\Polar=72.9
 587036,5.1128306,79.2384963,2.1912728,-3.626145,50.0415173\Quadrupole=
 0.5228691,0.8084216,-1.3312907,0.268696,0.3371548,-0.3560052\PG=C01 [X
 (C6H9)]\NImag=0\\0.43801211,-0.00497580,0.55426420,0.01026140,0.025055
 45,0.50884360,-0.17390078,0.04453928,-0.02115849,0.58356372,0.04356002
 ,-0.11538520,0.01250527,0.07445663,0.62149681,-0.02958231,0.01622728,-
 0.06725073,0.05676371,-0.08560346,0.13938431,0.00495494,0.02865246,-0.
 00344208,-0.11431401,0.05708561,-0.01723366,0.66530763,0.01435252,-0.0
 1832904,0.00769648,-0.00301160,-0.28916856,0.04623502,-0.05026778,0.57
 689130,-0.00160817,0.01124047,0.00158379,-0.00870199,0.05197816,-0.059
 90905,0.10055296,-0.08471894,0.14879502,-0.00468399,0.00220689,-0.0013
 3084,0.00731323,-0.07276095,0.00942408,-0.26453170,-0.04560176,-0.0297
 8164,0.55176995,-0.00218845,0.00372263,-0.00115829,-0.03666471,-0.0669
 1208,0.00564158,-0.10580446,-0.14583081,-0.00462113,0.05398640,0.65664
 527,0.00085144,-0.00000705,-0.00363636,0.00519670,0.00288096,0.0104224
 1,-0.02261838,0.00184669,-0.05303668,0.07073985,-0.06499982,0.13603587
 ,0.00213118,-0.02896452,-0.00766257,0.00109590,0.00618041,-0.00055165,
 -0.03200771,0.00322542,-0.00852759,-0.17754672,0.04152495,-0.02818145,
 0.52038068,-0.00778216,-0.02149179,-0.00192058,0.00164363,-0.00198891,
 -0.00100636,-0.01093783,0.01667492,-0.00601166,0.04177852,-0.11148170,
 0.01827331,0.04839255,0.46443917,-0.00153526,0.01261040,0.00622585,-0.
 00028440,0.00116331,-0.00370419,-0.00491560,-0.00341373,0.00354379,-0.
 02035013,0.01333647,-0.06749443,-0.02161832,-0.02025591,0.51628772,-0.
 13570752,-0.03367443,0.02929533,-0.03528986,-0.01107173,0.00791580,0.0
 0139166,-0.00242767,0.00040402,0.00049901,0.03309822,0.00625330,-0.082
 35305,0.00141244,0.00266049,0.53309885,-0.03267368,-0.10334352,0.01575
 833,0.00789710,0.01378898,-0.00668170,-0.00250625,-0.00187849,0.000097
 97,0.01252079,-0.02072600,-0.00084118,0.00040583,-0.16331678,-0.024621
 49,-0.05522660,0.45271456,0.02956197,0.01647930,-0.09141738,-0.0062115
 7,-0.00495144,0.00307731,-0.00063084,0.00064945,0.00088310,-0.00071151
 ,0.00866847,0.00179360,0.00233013,-0.02530764,-0.08479578,0.03800642,-
 0.00955239,0.56423784,-0.02221883,0.01115980,-0.00862297,-0.00282671,-
 0.00449927,0.00227285,0.00049912,-0.00030245,-0.00002858,0.00085198,0.
 00000990,0.00006212,0.00088536,-0.00036248,0.00015763,-0.22684529,0.09
 016413,-0.07410579,0.24804929,-0.01507025,0.00773705,-0.00579252,-0.00
 234083,-0.00202077,0.00139184,-0.00029996,0.00009787,0.00003210,-0.002
 23025,-0.00630720,-0.00178374,0.02812997,-0.01417948,0.01070780,0.0899
 8561,-0.09216445,0.03690979,-0.09735435,0.10253522,0.01248754,-0.00580
 564,0.00330988,0.00191071,0.00231872,-0.00008648,0.00000510,0.00001417
 ,0.00015688,-0.00064779,-0.00213916,0.00052120,0.00868825,-0.00507438,
 0.00212251,-0.07644711,0.03815734,-0.08082969,0.08087068,-0.04080531,0
 .08376865,-0.00230580,0.00066944,0.02774819,0.00162929,-0.00055521,0.0
 0066527,-0.00011523,-0.00002850,-0.00028178,0.00036516,0.00041788,0.00
 077025,-0.00038629,-0.00061358,0.00025848,-0.04972225,0.00239402,-0.00
 158461,0.00041086,-0.00252008,-0.02727096,0.05177187,-0.00182141,-0.00
 032307,0.01763506,0.00115180,0.00018530,-0.00050963,0.00003789,-0.0001
 3481,0.00017707,-0.00150489,0.00147346,-0.00027256,-0.00018988,-0.0064
 2774,-0.03367023,0.00252360,-0.04775496,-0.01844725,-0.00050509,0.0009
 0463,0.01372310,0.00267369,0.05720629,0.00146297,0.00073102,-0.0126682
 3,-0.00081799,0.00036682,0.00066491,0.00058607,-0.00028534,0.00022490,
 -0.00056863,0.00035481,0.00064018,-0.00054206,-0.00233246,-0.00848310,
 0.00011253,-0.01935166,-0.29775762,-0.00087261,-0.00034406,-0.01101170
 ,-0.00153008,0.02125744,0.32483395,-0.00027797,-0.00003034,-0.00045954
 ,-0.00021325,-0.00020843,-0.00055144,-0.00051653,0.00232264,-0.0002032
 6,-0.01247704,-0.00112663,-0.02856279,-0.04973310,-0.00686247,-0.04500
 371,0.00003042,0.00034342,0.00163233,0.00035618,-0.00000375,0.00041653
 ,0.00085029,0.00076200,0.00001072,0.05805407,0.00086434,0.00138466,-0.
 00064426,-0.00008160,0.00098236,0.00076065,-0.00067353,-0.00127280,0.0
 0050606,0.00395819,0.00208868,0.01191393,-0.00437862,-0.04642971,-0.01
 823864,-0.00468479,-0.00600580,-0.03399528,0.00016463,0.00173084,0.000
 48743,-0.00035086,-0.00631895,-0.00171233,0.00275241,0.05287664,-0.000
 30446,0.00032020,0.00044517,0.00018274,-0.00182632,-0.00010034,0.00148
 458,0.00341966,-0.00017488,-0.00903698,0.00177465,-0.00434655,-0.03730
 982,-0.02442793,-0.27021207,-0.00038178,-0.00228000,-0.00910182,0.0005
 3878,-0.00014997,0.00070817,0.00016684,-0.00192448,0.00125774,0.047427
 14,0.02600770,0.29907621,0.00066328,0.00026627,0.00003558,0.00032320,0
 .00022754,0.00025381,-0.00267309,0.00472372,-0.00019702,-0.02518773,-0
 .01490214,0.01175165,-0.17956042,-0.08902949,0.08962422,0.00184815,0.0
 0103349,-0.00147093,0.00032565,-0.00042622,-0.00020119,0.00016188,-0.0
 0027296,-0.00039654,0.00416810,0.00243832,-0.00137816,0.19915627,0.001
 90714,-0.00596463,-0.00309979,0.00112693,-0.00055411,0.00000411,0.0019
 5815,-0.00022637,0.00092027,0.01010169,0.00800124,-0.00761738,-0.08778
 729,-0.10789285,0.05821956,-0.02404193,-0.01525548,0.01572621,0.000501
 36,0.00061727,0.00050646,-0.00011071,0.00154191,-0.00034045,0.00187685
 ,0.00138865,-0.00070584,0.09656736,0.11803622,-0.00010085,-0.00165714,
 0.00017622,0.00018725,-0.00058053,0.00003038,-0.00072068,0.00128818,-0
 .00013400,-0.00913201,-0.00475859,0.00393292,0.09099567,0.05938378,-0.
 10346543,-0.00781943,-0.00500987,0.00363650,0.00008045,0.00060506,-0.0
 0003122,-0.00042286,0.00032358,0.00084489,0.02340782,0.01584121,-0.017
 87206,-0.09636481,-0.06444032,0.11210548,-0.00037827,-0.00004878,0.000
 09158,-0.00447339,-0.00231225,-0.00135714,0.00544052,-0.02727476,0.003
 78145,-0.05711634,0.01595602,-0.00821075,0.00189532,0.02591621,-0.0018
 2003,-0.00477619,0.00086656,-0.00245089,-0.00001762,0.00171289,0.00047
 583,0.00001659,-0.00008637,0.00015046,-0.00024246,0.00013681,-0.000801
 80,0.00137103,-0.00053020,0.00064949,0.05691864,0.00002333,0.00050967,
 -0.00031713,-0.00330589,0.00061674,0.00025569,0.00401321,-0.01334775,0
 .00324403,0.01195762,-0.32820123,0.04306653,-0.00174129,-0.00677196,0.
 00045289,0.00202578,0.00067989,0.00130759,-0.00011363,-0.00065857,-0.0
 0018667,-0.00003545,0.00003320,-0.00008935,0.00055324,-0.00051680,0.00
 015734,0.00028442,0.00079682,-0.00025761,-0.01348249,0.34684330,-0.000
 21019,-0.00046351,-0.00049717,-0.00118537,-0.00011392,0.00518922,0.000
 37364,-0.00060783,0.00519549,-0.00870112,0.04375212,-0.03168664,0.0016
 5225,0.00753793,0.00288581,-0.00092938,-0.00128416,0.00010367,0.000078
 83,0.00024087,0.00023652,-0.00000862,0.00015424,0.00003310,0.00024196,
 -0.00097797,-0.00043944,-0.00070098,-0.00049097,0.00044704,0.00832613,
 -0.04707788,0.02231715,0.00147987,-0.00086283,-0.00072680,0.00253697,-
 0.00044302,0.00003793,-0.26062879,0.10263388,-0.05371483,-0.02072021,0
 .01407773,-0.00630600,-0.00091761,-0.00402160,-0.00057128,0.00056901,-
 0.00051251,0.00000181,0.00004290,0.00006093,0.00001043,0.00001883,0.00
 005542,0.00010714,-0.00060219,0.00017796,-0.00017663,-0.00084816,0.000
 30115,-0.00030466,0.00101017,-0.00027484,0.00093519,0.27732422,-0.0023
 2540,-0.00391662,0.00141470,0.02990542,-0.01056346,0.00725644,0.102610
 36,-0.11277104,0.02918743,-0.01631713,0.01185186,-0.00427981,-0.002504
 38,-0.00173680,0.00108688,-0.00055700,-0.00009609,0.00000045,0.0000492
 4,0.00012778,-0.00002240,0.00003879,0.00008090,-0.00007760,0.00009358,
 -0.00011461,-0.00000063,-0.00085883,0.00034424,-0.00014015,0.00053068,
 0.00083957,-0.00068911,-0.11170258,0.11606207,0.00037518,0.00240371,0.
 00753169,-0.00534074,0.00226371,0.00135138,-0.05400706,0.02934395,-0.0
 5292807,-0.00154918,0.00104356,0.00219446,-0.00095547,-0.00028495,0.00
 774902,-0.00058126,0.00031117,-0.00037424,-0.00014254,0.00005912,-0.00
 006495,-0.00011078,0.00003851,-0.00016121,0.00154319,-0.00067537,0.000
 23592,-0.00107774,0.00065993,-0.00023620,0.00079165,-0.00076221,-0.003
 91902,0.06011651,-0.03329725,0.04253885,-0.01562130,-0.01362463,0.0014
 0019,-0.26014128,-0.12572307,-0.01098490,0.00337737,0.00252963,-0.0007
 5617,0.00154138,0.00079424,-0.00084241,0.00027595,0.00049825,0.0002074
 0,-0.00248951,0.00343802,-0.00272001,-0.00117710,-0.00085790,0.0006168
 6,0.00008593,0.00002388,0.00015326,0.00007885,-0.00006399,-0.00000509,
 0.00005102,-0.00013239,0.00002776,0.00002074,0.00014953,0.00002075,0.0
 0089265,-0.00036320,0.00081985,0.27270570,0.01374735,0.00977656,-0.000
 43254,-0.12186121,-0.13025215,0.00244901,-0.02863632,-0.01142318,-0.00
 114734,0.00182219,-0.00511156,0.00210422,0.00040039,-0.00005980,0.0000
 2211,0.00263272,-0.00140859,0.00133008,0.00087819,0.00046150,-0.000375
 81,-0.00006075,-0.00005167,-0.00006182,-0.00010240,0.00002365,-0.00006
 258,-0.00009579,0.00011729,-0.00000427,-0.00133295,-0.00079818,-0.0001
 6782,0.00044700,0.00093138,-0.00084455,0.13295823,0.13657489,-0.005815
 09,-0.00552165,0.00385348,-0.01229715,0.00272086,-0.02660900,0.0042553
 9,0.00185227,0.00533262,-0.00056047,0.00223140,0.00490250,0.00017088,0
 .00034885,-0.00058174,0.00039660,0.00145007,-0.00009420,-0.00017118,-0
 .00017176,0.00027590,-0.00012963,-0.00006993,0.00004861,-0.00011949,-0
 .00013049,-0.00003092,0.00003067,-0.00008207,-0.00005653,0.00032600,0.
 00019262,0.00025748,0.00074318,-0.00095334,-0.00389330,0.01213452,-0.0
 0289738,0.01679800,-0.04830677,-0.00589223,-0.00073750,0.00054656,0.02
 897339,0.00974469,-0.00422991,0.00090267,-0.00072543,-0.00085742,0.000
 32490,0.00015755,-0.00462367,-0.00143080,0.00308115,-0.00006904,-0.025
 55615,-0.01065626,0.00042625,0.00051560,-0.00062661,0.00125626,0.00065
 935,-0.00004501,0.00012086,0.00017608,-0.00004629,0.00005763,-0.001917
 58,-0.00028308,0.00020793,-0.00002276,0.00007166,0.00015039,0.00090202
 ,-0.00129144,0.00112614,-0.00074116,0.00005867,0.05401888,-0.00703486,
 -0.26253637,-0.08764037,0.00154321,-0.01635172,-0.00324254,0.00355882,
 0.00109074,-0.00072006,-0.00053777,0.00066352,-0.00025535,-0.00316400,
 -0.00004788,0.00192080,-0.00015164,-0.01357142,-0.00544733,-0.00037646
 ,0.00038253,-0.00013909,0.00045363,0.00049654,0.00053256,-0.00006940,0
 .00024592,0.00001858,0.00011029,-0.00113012,-0.00032885,0.00000825,-0.
 00003431,0.00001687,-0.00010528,-0.00063039,0.00058588,0.00021124,0.00
 112604,0.00076289,0.00579904,0.28845693,-0.00079741,-0.08950378,-0.080
 07244,-0.00115844,0.01083627,0.00255039,-0.00164510,-0.00031862,0.0001
 0611,0.00071054,0.00007000,-0.00000654,0.00200828,0.00112280,-0.000453
 74,0.00001548,0.01298591,0.00386957,-0.00044323,-0.00048551,0.00010263
 ,-0.00058901,0.00017254,0.00079598,0.00012178,0.00029890,0.00017139,0.
 00012339,0.00072444,0.00040707,0.00000142,-0.00002199,-0.00006184,-0.0
 0006725,0.00032147,-0.00026012,0.00051311,-0.00043228,0.00036283,0.002
 31551,0.09473297,0.08682083,-0.04384016,0.00057943,-0.02469146,-0.0058
 4959,0.00709034,-0.02681703,-0.00195427,-0.00177594,-0.00021196,0.0007
 8046,0.00049615,-0.00106107,0.00046419,0.00139882,0.00010934,-0.000184
 39,-0.00258818,0.02900974,0.00123797,0.00069859,-0.00028826,-0.0040373
 7,-0.00350704,0.00218978,0.00040378,-0.00043535,-0.00035906,0.00014320
 ,0.00017947,-0.00020008,0.00012334,-0.00003077,0.00003524,-0.00030805,
 0.00049844,0.00140982,-0.00072655,-0.00005548,0.00097712,0.00017591,-0
 .00024507,-0.00110907,0.05357153,-0.00058268,-0.04610454,0.02094019,0.
 00500185,-0.00387322,0.01682209,0.00120964,-0.00037198,-0.00016443,0.0
 0062047,0.00012391,-0.00002874,0.00047044,0.00071131,0.00067978,0.0001
 5743,-0.00166184,0.01662999,0.00058650,0.00073578,-0.00065876,-0.00237
 229,-0.00091104,0.00135243,-0.00030072,-0.00006271,-0.00032041,-0.0000
 6599,0.00017991,-0.00026449,-0.00005961,0.00000962,0.00017114,0.000168
 58,-0.00040878,-0.00084520,0.00016216,0.00009382,0.00026766,-0.0026923
 7,0.00184000,-0.03050314,-0.00230342,0.04969974,-0.01504673,0.01789094
 ,-0.27642735,-0.00708495,0.00604159,-0.00501052,-0.00204434,-0.0030013
 9,0.00036098,0.00149582,0.00080393,-0.00023595,-0.00049653,-0.00004480
 ,0.00037579,0.00109898,0.00086166,-0.01323086,0.00032556,-0.00041370,0
 .00082169,0.00231929,0.00141255,0.00073760,0.00009875,0.00055845,0.000
 38350,-0.00003196,0.00001584,0.00021495,0.00004661,0.00003614,-0.00006
 137,-0.00008473,0.00019292,0.00023578,-0.00058511,0.00052097,-0.000565
 72,-0.00101763,-0.00079696,-0.01433212,0.02100697,-0.02407813,0.306733
 59\\0.00000187,0.00000106,0.00000050,0.00000072,-0.00000029,0.00000458
 ,-0.00000694,0.00000004,-0.00000419,-0.00000319,0.00000601,0.00000011,
 0.00000646,-0.00000204,0.00000289,-0.00000029,-0.00000130,-0.00000058,
 0.00000086,-0.00000100,-0.00000159,-0.00000112,0.00000094,-0.00000103,
 0.00000005,-0.00000087,-0.00000081,-0.00000039,-0.00000052,-0.00000139
 ,0.00000197,-0.00000005,0.00000066,-0.00000009,-0.00000145,0.00000359,
 -0.00000061,0.00000009,-0.00000084,0.00000006,0.,-0.00000113,0.0000006
 5,-0.00000062,-0.00000077\\\@
 The archive entry for this job was punched.


 WE DON'T KNOW ONE MILLIONTH OF ONE PERCENT ABOUT
 ANYTHING.
                                     T. A. EDISON.
 Job cpu time:       0 days  2 hours  7 minutes  4.4 seconds.
 Elapsed time:       0 days  0 hours 15 minutes 52.8 seconds.
 File lengths (MBytes):  RWF=    214 Int=      0 D2E=      0 Chk=     12 Scr=      1
 Normal termination of Gaussian 16 at Sun Apr  3 20:35:19 2022.
