 Entering Gaussian System, Link 0=g16
 Input=Mol_05.com
 Output=Mol_05.log
 Initial command:
 /home/saurabh/g16/l1.exe "/scratch/saurabh/PBS_8053884.helios/Gau-73594.inp" -scrdir="/scratch/saurabh/PBS_8053884.helios/"
 Entering Link 1 = /home/saurabh/g16/l1.exe PID=     73595.
  
 Copyright (c) 1988-2019, Gaussian, Inc.  All Rights Reserved.
  
 This is part of the Gaussian(R) 16 program.  It is based on
 the Gaussian(R) 09 system (copyright 2009, Gaussian, Inc.),
 the Gaussian(R) 03 system (copyright 2003, Gaussian, Inc.),
 the Gaussian(R) 98 system (copyright 1998, Gaussian, Inc.),
 the Gaussian(R) 94 system (copyright 1995, Gaussian, Inc.),
 the Gaussian 92(TM) system (copyright 1992, Gaussian, Inc.),
 the Gaussian 90(TM) system (copyright 1990, Gaussian, Inc.),
 the Gaussian 88(TM) system (copyright 1988, Gaussian, Inc.),
 the Gaussian 86(TM) system (copyright 1986, Carnegie Mellon
 University), and the Gaussian 82(TM) system (copyright 1983,
 Carnegie Mellon University). Gaussian is a federally registered
 trademark of Gaussian, Inc.
  
 This software contains proprietary and confidential information,
 including trade secrets, belonging to Gaussian, Inc.
  
 This software is provided under written license and may be
 used, copied, transmitted, or stored only in accord with that
 written license.
  
 The following legend is applicable only to US Government
 contracts under FAR:
  
                    RESTRICTED RIGHTS LEGEND
  
 Use, reproduction and disclosure by the US Government is
 subject to restrictions as set forth in subparagraphs (a)
 and (c) of the Commercial Computer Software - Restricted
 Rights clause in FAR 52.227-19.
  
 Gaussian, Inc.
 340 Quinnipiac St., Bldg. 40, Wallingford CT 06492
  
  
 ---------------------------------------------------------------
 Warning -- This program may not be used in any manner that
 competes with the business of Gaussian, Inc. or will provide
 assistance to any competitor of Gaussian, Inc.  The licensee
 of this program is prohibited from giving any competitor of
 Gaussian, Inc. access to this program.  By using this program,
 the user acknowledges that Gaussian, Inc. is engaged in the
 business of creating and licensing software in the field of
 computational chemistry and represents and warrants to the
 licensee that it is not a competitor of Gaussian, Inc. and that
 it will not use this program in any manner prohibited above.
 ---------------------------------------------------------------
  

 Cite this work as:
 Gaussian 16, Revision C.01,
 M. J. Frisch, G. W. Trucks, H. B. Schlegel, G. E. Scuseria, 
 M. A. Robb, J. R. Cheeseman, G. Scalmani, V. Barone, 
 G. A. Petersson, H. Nakatsuji, X. Li, M. Caricato, A. V. Marenich, 
 J. Bloino, B. G. Janesko, R. Gomperts, B. Mennucci, H. P. Hratchian, 
 J. V. Ortiz, A. F. Izmaylov, J. L. Sonnenberg, D. Williams-Young, 
 F. Ding, F. Lipparini, F. Egidi, J. Goings, B. Peng, A. Petrone, 
 T. Henderson, D. Ranasinghe, V. G. Zakrzewski, J. Gao, N. Rega, 
 G. Zheng, W. Liang, M. Hada, M. Ehara, K. Toyota, R. Fukuda, 
 J. Hasegawa, M. Ishida, T. Nakajima, Y. Honda, O. Kitao, H. Nakai, 
 T. Vreven, K. Throssell, J. A. Montgomery, Jr., J. E. Peralta, 
 F. Ogliaro, M. J. Bearpark, J. J. Heyd, E. N. Brothers, K. N. Kudin, 
 V. N. Staroverov, T. A. Keith, R. Kobayashi, J. Normand, 
 K. Raghavachari, A. P. Rendell, J. C. Burant, S. S. Iyengar, 
 J. Tomasi, M. Cossi, J. M. Millam, M. Klene, C. Adamo, R. Cammi, 
 J. W. Ochterski, R. L. Martin, K. Morokuma, O. Farkas, 
 J. B. Foresman, and D. J. Fox, Gaussian, Inc., Wallingford CT, 2019.
 
 ******************************************
 Gaussian 16:  EM64L-G16RevC.01  3-Jul-2019
                 3-Apr-2022 
 ******************************************
 %mem=8gb
 %nproc=8
 Will use up to    8 processors via shared memory.
 %chk=Mol_05.chk
 ----------------------------------------------------------------------
 #p B3LYP/cc-PVTZ scf(verytight, maxcycles=1000) opt(calcfc, maxcyc=100
 0) freq(hpmodes) int(grid=ultrafine)
 ----------------------------------------------------------------------
 1/6=1000,10=4,18=20,19=15,26=4,38=1/1,3;
 2/9=110,12=2,17=6,18=5,40=1/2;
 3/5=16,6=1,11=2,25=1,30=1,71=2,74=-5,75=-5,140=1/1,2,3;
 4//1;
 5/5=2,7=1000,17=3,38=5/2;
 8/6=4,10=90,11=11/1;
 11/6=1,8=1,9=11,15=111,16=1/1,2,10;
 10/6=1,13=1/2;
 6/7=2,8=2,9=2,10=2,28=1/1;
 7/10=1,25=1/1,2,3,16;
 1/6=1000,10=4,18=20,19=15,26=4/3(2);
 2/9=110/2;
 99//99;
 2/9=110/2;
 3/5=16,6=1,11=2,25=1,30=1,71=1,74=-5,75=-5/1,2,3;
 4/5=5,16=3,69=1/1;
 5/5=2,7=1000,17=3,38=5/2;
 7//1,2,3,16;
 1/6=1000,18=20,19=15,26=4/3(-5);
 2/9=110/2;
 6/7=2,8=2,9=2,10=2,19=2,28=1/1;
 99/9=1/99;
 Leave Link    1 at Sun Apr  3 19:47:20 2022, MaxMem=  1073741824 cpu:               0.5 elap:               0.1
 (Enter /home/saurabh/g16/l101.exe)
 ------
 Mol_05
 ------
 Symbolic Z-matrix:
 Charge =  0 Multiplicity = 1
 C                    -0.1852   -0.01401  -0.36682 
 C                    -1.1915    1.0258   -0.81574 
 C                    -1.10018   2.28496  -0.34482 
 C                     0.04842   2.66398   0.51909 
 C                     1.12526   1.85682   0.58628 
 C                     1.19826   0.63371  -0.3048 
 H                     1.9862   -0.06584   0.04581 
 H                     1.45748   0.9636   -1.33498 
 H                     1.94827   2.09605   1.25238 
 H                    -1.85616   3.02093  -0.59862 
 H                    -1.997     0.75001  -1.48906 
 H                    -0.21433  -0.9055   -1.02826 
 H                    -0.44817  -0.33601   0.66491 
 H                     0.01537   3.58242   1.09612 
 
 ITRead=  0  0  0  0  0  0  0  0  0  0  0  0  0  0
 MicOpt= -1 -1 -1 -1 -1 -1 -1 -1 -1 -1 -1 -1 -1 -1
 NAtoms=     14 NQM=       14 NQMF=       0 NMMI=      0 NMMIF=      0
                NMic=       0 NMicF=      0.
                    Isotopes and Nuclear Properties:
 (Nuclear quadrupole moments (NQMom) in fm**2, nuclear magnetic moments (NMagM)
  in nuclear magnetons)

  Atom         1           2           3           4           5           6           7           8           9          10
 IAtWgt=          12          12          12          12          12          12           1           1           1           1
 AtmWgt=  12.0000000  12.0000000  12.0000000  12.0000000  12.0000000  12.0000000   1.0078250   1.0078250   1.0078250   1.0078250
 NucSpn=           0           0           0           0           0           0           1           1           1           1
 AtZEff=  -0.0000000  -0.0000000  -0.0000000  -0.0000000  -0.0000000  -0.0000000  -0.0000000  -0.0000000  -0.0000000  -0.0000000
 NQMom=    0.0000000   0.0000000   0.0000000   0.0000000   0.0000000   0.0000000   0.0000000   0.0000000   0.0000000   0.0000000
 NMagM=    0.0000000   0.0000000   0.0000000   0.0000000   0.0000000   0.0000000   2.7928460   2.7928460   2.7928460   2.7928460
 AtZNuc=   6.0000000   6.0000000   6.0000000   6.0000000   6.0000000   6.0000000   1.0000000   1.0000000   1.0000000   1.0000000

  Atom        11          12          13          14
 IAtWgt=           1           1           1           1
 AtmWgt=   1.0078250   1.0078250   1.0078250   1.0078250
 NucSpn=           1           1           1           1
 AtZEff=  -0.0000000  -0.0000000  -0.0000000  -0.0000000
 NQMom=    0.0000000   0.0000000   0.0000000   0.0000000
 NMagM=    2.7928460   2.7928460   2.7928460   2.7928460
 AtZNuc=   1.0000000   1.0000000   1.0000000   1.0000000
 Leave Link  101 at Sun Apr  3 19:47:21 2022, MaxMem=  1073741824 cpu:               2.1 elap:               0.3
 (Enter /home/saurabh/g16/l103.exe)

 GradGradGradGradGradGradGradGradGradGradGradGradGradGradGradGradGradGrad
 Berny optimization.
 Initialization pass.
                           ----------------------------
                           !    Initial Parameters    !
                           ! (Angstroms and Degrees)  !
 --------------------------                            --------------------------
 ! Name  Definition              Value          Derivative Info.                !
 --------------------------------------------------------------------------------
 ! R1    R(1,2)                  1.515          calculate D2E/DX2 analytically  !
 ! R2    R(1,6)                  1.5288         calculate D2E/DX2 analytically  !
 ! R3    R(1,12)                 1.1105         calculate D2E/DX2 analytically  !
 ! R4    R(1,13)                 1.1123         calculate D2E/DX2 analytically  !
 ! R5    R(2,3)                  1.3474         calculate D2E/DX2 analytically  !
 ! R6    R(2,11)                 1.0855         calculate D2E/DX2 analytically  !
 ! R7    R(3,4)                  1.4864         calculate D2E/DX2 analytically  !
 ! R8    R(3,10)                 1.0852         calculate D2E/DX2 analytically  !
 ! R9    R(4,5)                  1.3474         calculate D2E/DX2 analytically  !
 ! R10   R(4,14)                 1.0852         calculate D2E/DX2 analytically  !
 ! R11   R(5,6)                  1.515          calculate D2E/DX2 analytically  !
 ! R12   R(5,9)                  1.0855         calculate D2E/DX2 analytically  !
 ! R13   R(6,7)                  1.1105         calculate D2E/DX2 analytically  !
 ! R14   R(6,8)                  1.1123         calculate D2E/DX2 analytically  !
 ! A1    A(2,1,6)              108.8017         calculate D2E/DX2 analytically  !
 ! A2    A(2,1,12)             110.9201         calculate D2E/DX2 analytically  !
 ! A3    A(2,1,13)             108.4507         calculate D2E/DX2 analytically  !
 ! A4    A(6,1,12)             112.8316         calculate D2E/DX2 analytically  !
 ! A5    A(6,1,13)             107.3949         calculate D2E/DX2 analytically  !
 ! A6    A(12,1,13)            108.293          calculate D2E/DX2 analytically  !
 ! A7    A(1,2,3)              119.5237         calculate D2E/DX2 analytically  !
 ! A8    A(1,2,11)             120.1534         calculate D2E/DX2 analytically  !
 ! A9    A(3,2,11)             120.2986         calculate D2E/DX2 analytically  !
 ! A10   A(2,3,4)              119.5903         calculate D2E/DX2 analytically  !
 ! A11   A(2,3,10)             120.3195         calculate D2E/DX2 analytically  !
 ! A12   A(4,3,10)             120.0891         calculate D2E/DX2 analytically  !
 ! A13   A(3,4,5)              119.5904         calculate D2E/DX2 analytically  !
 ! A14   A(3,4,14)             120.0892         calculate D2E/DX2 analytically  !
 ! A15   A(5,4,14)             120.3194         calculate D2E/DX2 analytically  !
 ! A16   A(4,5,6)              119.5238         calculate D2E/DX2 analytically  !
 ! A17   A(4,5,9)              120.2986         calculate D2E/DX2 analytically  !
 ! A18   A(6,5,9)              120.1531         calculate D2E/DX2 analytically  !
 ! A19   A(1,6,5)              108.8011         calculate D2E/DX2 analytically  !
 ! A20   A(1,6,7)              112.8305         calculate D2E/DX2 analytically  !
 ! A21   A(1,6,8)              107.3956         calculate D2E/DX2 analytically  !
 ! A22   A(5,6,7)              110.9195         calculate D2E/DX2 analytically  !
 ! A23   A(5,6,8)              108.4519         calculate D2E/DX2 analytically  !
 ! A24   A(7,6,8)              108.2936         calculate D2E/DX2 analytically  !
 ! D1    D(6,1,2,3)            -40.0837         calculate D2E/DX2 analytically  !
 ! D2    D(6,1,2,11)           141.7051         calculate D2E/DX2 analytically  !
 ! D3    D(12,1,2,3)          -164.7622         calculate D2E/DX2 analytically  !
 ! D4    D(12,1,2,11)           17.0266         calculate D2E/DX2 analytically  !
 ! D5    D(13,1,2,3)            76.4364         calculate D2E/DX2 analytically  !
 ! D6    D(13,1,2,11)         -101.7747         calculate D2E/DX2 analytically  !
 ! D7    D(2,1,6,5)             54.8694         calculate D2E/DX2 analytically  !
 ! D8    D(2,1,6,7)            178.4128         calculate D2E/DX2 analytically  !
 ! D9    D(2,1,6,8)            -62.3265         calculate D2E/DX2 analytically  !
 ! D10   D(12,1,6,5)           178.4147         calculate D2E/DX2 analytically  !
 ! D11   D(12,1,6,7)           -58.0419         calculate D2E/DX2 analytically  !
 ! D12   D(12,1,6,8)            61.2188         calculate D2E/DX2 analytically  !
 ! D13   D(13,1,6,5)           -62.3251         calculate D2E/DX2 analytically  !
 ! D14   D(13,1,6,7)            61.2183         calculate D2E/DX2 analytically  !
 ! D15   D(13,1,6,8)          -179.521          calculate D2E/DX2 analytically  !
 ! D16   D(1,2,3,4)              4.9743         calculate D2E/DX2 analytically  !
 ! D17   D(1,2,3,10)          -175.4078         calculate D2E/DX2 analytically  !
 ! D18   D(11,2,3,4)          -176.8172         calculate D2E/DX2 analytically  !
 ! D19   D(11,2,3,10)            2.8007         calculate D2E/DX2 analytically  !
 ! D20   D(2,3,4,5)             14.5146         calculate D2E/DX2 analytically  !
 ! D21   D(2,3,4,14)          -165.1065         calculate D2E/DX2 analytically  !
 ! D22   D(10,3,4,5)          -165.1042         calculate D2E/DX2 analytically  !
 ! D23   D(10,3,4,14)           15.2747         calculate D2E/DX2 analytically  !
 ! D24   D(3,4,5,6)              4.9748         calculate D2E/DX2 analytically  !
 ! D25   D(3,4,5,9)           -176.823          calculate D2E/DX2 analytically  !
 ! D26   D(14,4,5,6)          -175.4049         calculate D2E/DX2 analytically  !
 ! D27   D(14,4,5,9)             2.7973         calculate D2E/DX2 analytically  !
 ! D28   D(4,5,6,1)            -40.084          calculate D2E/DX2 analytically  !
 ! D29   D(4,5,6,7)           -164.7602         calculate D2E/DX2 analytically  !
 ! D30   D(4,5,6,8)             76.4373         calculate D2E/DX2 analytically  !
 ! D31   D(9,5,6,1)            141.7112         calculate D2E/DX2 analytically  !
 ! D32   D(9,5,6,7)             17.035          calculate D2E/DX2 analytically  !
 ! D33   D(9,5,6,8)           -101.7676         calculate D2E/DX2 analytically  !
 --------------------------------------------------------------------------------
 Trust Radius=3.00D-01 FncErr=1.00D-07 GrdErr=1.00D-06 EigMax=2.50D+02 EigMin=1.00D-04
 Number of steps in this run=    100 maximum allowed number of steps=    100.
 GradGradGradGradGradGradGradGradGradGradGradGradGradGradGradGradGradGrad

 Leave Link  103 at Sun Apr  3 19:47:21 2022, MaxMem=  1073741824 cpu:               0.2 elap:               0.1
 (Enter /home/saurabh/g16/l202.exe)
                          Input orientation:                          
 ---------------------------------------------------------------------
 Center     Atomic      Atomic             Coordinates (Angstroms)
 Number     Number       Type             X           Y           Z
 ---------------------------------------------------------------------
      1          6           0       -0.185201   -0.014006   -0.366815
      2          6           0       -1.191496    1.025797   -0.815738
      3          6           0       -1.100177    2.284963   -0.344818
      4          6           0        0.048420    2.663980    0.519093
      5          6           0        1.125260    1.856819    0.586277
      6          6           0        1.198258    0.633706   -0.304804
      7          1           0        1.986199   -0.065835    0.045807
      8          1           0        1.457478    0.963603   -1.334980
      9          1           0        1.948266    2.096048    1.252375
     10          1           0       -1.856163    3.020933   -0.598624
     11          1           0       -1.997000    0.750010   -1.489059
     12          1           0       -0.214334   -0.905505   -1.028264
     13          1           0       -0.448173   -0.336011    0.664909
     14          1           0        0.015373    3.582420    1.096120
 ---------------------------------------------------------------------
                    Distance matrix (angstroms):
                    1          2          3          4          5
     1  C    0.000000
     2  C    1.515041   0.000000
     3  C    2.474454   1.347444   0.000000
     4  C    2.830374   2.450063   1.486361   0.000000
     5  C    2.475011   2.832596   2.450064   1.347444   0.000000
     6  C    1.528834   2.475017   2.830380   2.474459   1.515044
     7  H    2.210864   3.468669   3.899302   3.380958   2.174839
     8  H    2.142768   2.700101   3.044341   2.883455   2.144629
     9  H    3.409661   3.909045   3.446697   2.114158   1.085475
    10  H    3.472276   2.114117   1.085166   2.236994   3.412922
    11  H    2.264016   1.085475   2.114157   3.446693   3.909035
    12  H    1.110465   2.174842   3.380961   3.899304   3.468672
    13  H    1.112339   2.144613   2.883429   3.044309   2.700071
    14  H    3.887761   3.412925   2.236995   1.085165   2.114116
                    6          7          8          9         10
     6  C    0.000000
     7  H    1.110467   0.000000
     8  H    1.112335   1.801627   0.000000
     9  H    2.264015   2.476083   2.866655   0.000000
    10  H    3.887759   4.970631   3.969263   4.330738   0.000000
    11  H    3.409642   4.345951   3.464504   4.989229   2.443317
    12  H    2.210877   2.588632   2.526379   4.345972   4.277512
    13  H    2.142763   2.526351   3.052878   3.464527   3.853314
    14  H    3.472278   4.277508   3.853325   2.443316   2.586517
                   11         12         13         14
    11  H    0.000000
    12  H    2.476078   0.000000
    13  H    2.866685   1.801621   0.000000
    14  H    4.330743   4.970637   3.969247   0.000000
 Stoichiometry    C6H8
 Framework group  C1[X(C6H8)]
 Deg. of freedom    36
 Full point group                 C1      NOp   1
 Largest Abelian subgroup         C1      NOp   1
 Largest concise Abelian subgroup C1      NOp   1
                         Standard orientation:                         
 ---------------------------------------------------------------------
 Center     Atomic      Atomic             Coordinates (Angstroms)
 Number     Number       Type             X           Y           Z
 ---------------------------------------------------------------------
      1          6           0       -1.180730   -0.692740   -0.323230
      2          6           0        0.092191   -1.414610    0.069103
      3          6           0        1.254497   -0.734415    0.113637
      4          6           0        1.254464    0.734466   -0.113646
      5          6           0        0.092128    1.414612   -0.069111
      6          6           0       -1.180764    0.692690    0.323234
      7          1           0       -2.075736    1.293077    0.055470
      8          1           0       -1.176335    0.545216    1.425741
      9          1           0        0.071527    2.478395   -0.284045
     10          1           0        2.185113   -1.252955    0.320166
     11          1           0        0.071622   -2.478376    0.284128
     12          1           0       -2.075680   -1.293175   -0.055506
     13          1           0       -1.176285   -0.545253   -1.425739
     14          1           0        2.185062    1.253055   -0.320137
 ---------------------------------------------------------------------
 Rotational constants (GHZ):           5.0838230           5.0591520           2.7391858
 Leave Link  202 at Sun Apr  3 19:47:21 2022, MaxMem=  1073741824 cpu:               0.3 elap:               0.1
 (Enter /home/saurabh/g16/l301.exe)
 Standard basis: CC-pVTZ (5D, 7F)
 Ernie: Thresh=  0.10000D-02 Tol=  0.10000D-05 Strict=F.
 Ernie:  18 primitive shells out of 220 were deleted.
 There are   330 symmetry adapted cartesian basis functions of A   symmetry.
 There are   292 symmetry adapted basis functions of A   symmetry.
   292 basis functions,   448 primitive gaussians,   330 cartesian basis functions
    22 alpha electrons       22 beta electrons
       nuclear repulsion energy       219.0771102208 Hartrees.
 IExCor=  402 DFT=T Ex+Corr=B3LYP ExCW=0 ScaHFX=  0.200000
 ScaDFX=  0.800000  0.720000  1.000000  0.810000 ScalE2=  1.000000  1.000000
 IRadAn=      5 IRanWt=     -1 IRanGd=            0 ICorTp=0 IEmpDi=  4
 NAtoms=   14 NActive=   14 NUniq=   14 SFac= 1.00D+00 NAtFMM=   60 NAOKFM=F Big=F
 Integral buffers will be    131072 words long.
 Raffenetti 2 integral format.
 Two-electron integral symmetry is turned on.
 Leave Link  301 at Sun Apr  3 19:47:21 2022, MaxMem=  1073741824 cpu:               0.8 elap:               0.1
 (Enter /home/saurabh/g16/l302.exe)
 NPDir=0 NMtPBC=     1 NCelOv=     1 NCel=       1 NClECP=     1 NCelD=      1
         NCelK=      1 NCelE2=     1 NClLst=     1 CellRange=     0.0.
 One-electron integrals computed using PRISM.
 One-electron integral symmetry used in STVInt
 NBasis=   292 RedAO= T EigKep=  1.22D-04  NBF=   292
 NBsUse=   292 1.00D-06 EigRej= -1.00D+00 NBFU=   292
 Precomputing XC quadrature grid using
 IXCGrd= 4 IRadAn=           5 IRanWt=          -1 IRanGd=           0 AccXCQ= 0.00D+00.
 Generated NRdTot=       0 NPtTot=           0 NUsed=           0 NTot=          32
 NSgBfM=   330   330   330   330   330 MxSgAt=    14 MxSgA2=    14.
 Leave Link  302 at Sun Apr  3 19:47:22 2022, MaxMem=  1073741824 cpu:               3.2 elap:               0.5
 (Enter /home/saurabh/g16/l303.exe)
 DipDrv:  MaxL=1.
 Leave Link  303 at Sun Apr  3 19:47:22 2022, MaxMem=  1073741824 cpu:               0.8 elap:               0.2
 (Enter /home/saurabh/g16/l401.exe)
 ExpMin= 1.03D-01 ExpMax= 8.24D+03 ExpMxC= 2.81D+02 IAcc=3 IRadAn=         5 AccDes= 0.00D+00
 Harris functional with IExCor=  402 and IRadAn=       5 diagonalized for initial guess.
 HarFok:  IExCor=  402 AccDes= 0.00D+00 IRadAn=         5 IDoV= 1 UseB2=F ITyADJ=14
 ICtDFT=  3500011 ScaDFX=  1.000000  1.000000  1.000000  1.000000
 FoFCou: FMM=F IPFlag=           0 FMFlag=      100000 FMFlg1=           0
         NFxFlg=           0 DoJE=T BraDBF=F KetDBF=T FulRan=T
         wScrn=  0.000000 ICntrl=       500 IOpCl=  0 I1Cent=   200000004 NGrid=           0
         NMat0=    1 NMatS0=      1 NMatT0=    0 NMatD0=    1 NMtDS0=    0 NMtDT0=    0
 Petite list used in FoFCou.
 Harris En= -233.552366088336    
 JPrj=0 DoOrth=F DoCkMO=F.
 Leave Link  401 at Sun Apr  3 19:47:24 2022, MaxMem=  1073741824 cpu:              13.8 elap:               1.8
 (Enter /home/saurabh/g16/l502.exe)
 Integral symmetry usage will be decided dynamically.
 Closed shell SCF:
 Using DIIS extrapolation, IDIIS=  1040.
 NGot=  1073741824 LenX=  1073518082 LenY=  1073408741
 Requested convergence on RMS density matrix=1.00D-08 within1000 cycles.
 Requested convergence on MAX density matrix=1.00D-06.
 Requested convergence on             energy=1.00D-06.
 No special actions if energy rises.
 Fock matrices will be formed incrementally for  20 cycles.
 Integral accuracy reduced to 1.0D-05 until final iterations.

 Cycle   1  Pass 0  IDiag  1:
 FoFJK:  IHMeth= 1 ICntrl=       0 DoSepK=F KAlg= 0 I1Cent=           0 FoldK=F
 IRaf= 990000000 NMat=       1 IRICut=       1 DoRegI=T DoRafI=F ISym2E= 0 IDoP0=0 IntGTp=1.
 FoFCou: FMM=F IPFlag=           0 FMFlag=      100000 FMFlg1=           0
         NFxFlg=           0 DoJE=F BraDBF=F KetDBF=F FulRan=T
         wScrn=  0.000000 ICntrl=         0 IOpCl=  0 I1Cent=           0 NGrid=           0
         NMat0=    1 NMatS0=      1 NMatT0=    0 NMatD0=    1 NMtDS0=    0 NMtDT0=    0
 Symmetry not used in FoFCou.
 E= -233.300454093039    
 DIIS: error= 2.71D-02 at cycle   1 NSaved=   1.
 NSaved= 1 IEnMin= 1 EnMin= -233.300454093039     IErMin= 1 ErrMin= 2.71D-02
 ErrMax= 2.71D-02  0.00D+00 EMaxC= 1.00D-01 BMatC= 1.96D-01 BMatP= 1.96D-01
 IDIUse=3 WtCom= 7.29D-01 WtEn= 2.71D-01
 Coeff-Com:  0.100D+01
 Coeff-En:   0.100D+01
 Coeff:      0.100D+01
 Gap=     0.181 Goal=   None    Shift=    0.000
 GapD=    0.181 DampG=1.000 DampE=0.500 DampFc=0.5000 IDamp=-1.
 Damping current iteration by 5.00D-01
 RMSDP=2.73D-03 MaxDP=7.31D-02              OVMax= 1.98D-01

 Cycle   2  Pass 0  IDiag  1:
 RMSU=  1.36D-03    CP:  9.86D-01
 E= -233.381216141529     Delta-E=       -0.080762048489 Rises=F Damp=T
 DIIS: error= 9.53D-03 at cycle   2 NSaved=   2.
 NSaved= 2 IEnMin= 2 EnMin= -233.381216141529     IErMin= 2 ErrMin= 9.53D-03
 ErrMax= 9.53D-03  0.00D+00 EMaxC= 1.00D-01 BMatC= 1.35D-02 BMatP= 1.96D-01
 IDIUse=3 WtCom= 9.05D-01 WtEn= 9.53D-02
 Coeff-Com:  0.780D-01 0.922D+00
 Coeff-En:   0.180D+00 0.820D+00
 Coeff:      0.878D-01 0.912D+00
 Gap=     0.191 Goal=   None    Shift=    0.000
 RMSDP=7.93D-04 MaxDP=2.01D-02 DE=-8.08D-02 OVMax= 1.15D-01

 Cycle   3  Pass 0  IDiag  1:
 RMSU=  5.99D-04    CP:  9.90D-01  6.18D-01
 E= -233.496773718754     Delta-E=       -0.115557577225 Rises=F Damp=F
 DIIS: error= 7.42D-03 at cycle   3 NSaved=   3.
 NSaved= 3 IEnMin= 3 EnMin= -233.496773718754     IErMin= 3 ErrMin= 7.42D-03
 ErrMax= 7.42D-03  0.00D+00 EMaxC= 1.00D-01 BMatC= 4.29D-03 BMatP= 1.35D-02
 IDIUse=3 WtCom= 9.26D-01 WtEn= 7.42D-02
 Coeff-Com: -0.322D-01 0.334D+00 0.698D+00
 Coeff-En:   0.000D+00 0.000D+00 0.100D+01
 Coeff:     -0.298D-01 0.309D+00 0.720D+00
 Gap=     0.185 Goal=   None    Shift=    0.000
 RMSDP=2.17D-04 MaxDP=5.34D-03 DE=-1.16D-01 OVMax= 1.49D-02

 Cycle   4  Pass 0  IDiag  1:
 RMSU=  1.35D-04    CP:  9.89D-01  6.99D-01  7.85D-01
 E= -233.500704939280     Delta-E=       -0.003931220526 Rises=F Damp=F
 DIIS: error= 8.85D-04 at cycle   4 NSaved=   4.
 NSaved= 4 IEnMin= 4 EnMin= -233.500704939280     IErMin= 4 ErrMin= 8.85D-04
 ErrMax= 8.85D-04  0.00D+00 EMaxC= 1.00D-01 BMatC= 1.81D-04 BMatP= 4.29D-03
 IDIUse=3 WtCom= 9.91D-01 WtEn= 8.85D-03
 Coeff-Com: -0.123D-01 0.346D-01 0.208D+00 0.770D+00
 Coeff-En:   0.000D+00 0.000D+00 0.000D+00 0.100D+01
 Coeff:     -0.122D-01 0.343D-01 0.206D+00 0.772D+00
 Gap=     0.185 Goal=   None    Shift=    0.000
 RMSDP=4.69D-05 MaxDP=1.25D-03 DE=-3.93D-03 OVMax= 5.86D-03

 Cycle   5  Pass 0  IDiag  1:
 RMSU=  2.98D-05    CP:  9.89D-01  6.97D-01  8.26D-01  8.05D-01
 E= -233.500815663654     Delta-E=       -0.000110724375 Rises=F Damp=F
 DIIS: error= 5.51D-04 at cycle   5 NSaved=   5.
 NSaved= 5 IEnMin= 5 EnMin= -233.500815663654     IErMin= 5 ErrMin= 5.51D-04
 ErrMax= 5.51D-04  0.00D+00 EMaxC= 1.00D-01 BMatC= 5.78D-05 BMatP= 1.81D-04
 IDIUse=3 WtCom= 9.94D-01 WtEn= 5.51D-03
 Coeff-Com: -0.683D-02 0.133D-01 0.113D+00 0.492D+00 0.389D+00
 Coeff-En:   0.000D+00 0.000D+00 0.000D+00 0.213D+00 0.787D+00
 Coeff:     -0.680D-02 0.132D-01 0.112D+00 0.490D+00 0.391D+00
 Gap=     0.185 Goal=   None    Shift=    0.000
 RMSDP=1.85D-05 MaxDP=7.31D-04 DE=-1.11D-04 OVMax= 3.37D-03

 Cycle   6  Pass 0  IDiag  1:
 RMSU=  7.67D-06    CP:  9.89D-01  6.95D-01  8.29D-01  8.33D-01  4.55D-01
 E= -233.500876228828     Delta-E=       -0.000060565174 Rises=F Damp=F
 DIIS: error= 8.11D-05 at cycle   6 NSaved=   6.
 NSaved= 6 IEnMin= 6 EnMin= -233.500876228828     IErMin= 6 ErrMin= 8.11D-05
 ErrMax= 8.11D-05  0.00D+00 EMaxC= 1.00D-01 BMatC= 1.69D-06 BMatP= 5.78D-05
 IDIUse=1 WtCom= 1.00D+00 WtEn= 0.00D+00
 Coeff-Com: -0.188D-02 0.261D-02 0.335D-01 0.163D+00 0.187D+00 0.616D+00
 Coeff:     -0.188D-02 0.261D-02 0.335D-01 0.163D+00 0.187D+00 0.616D+00
 Gap=     0.186 Goal=   None    Shift=    0.000
 RMSDP=3.37D-06 MaxDP=1.32D-04 DE=-6.06D-05 OVMax= 5.74D-04

 Initial convergence to 1.0D-05 achieved.  Increase integral accuracy.
 Cycle   7  Pass 1  IDiag  1:
 E= -233.500873955411     Delta-E=        0.000002273417 Rises=F Damp=F
 DIIS: error= 3.53D-05 at cycle   1 NSaved=   1.
 NSaved= 1 IEnMin= 1 EnMin= -233.500873955411     IErMin= 1 ErrMin= 3.53D-05
 ErrMax= 3.53D-05  0.00D+00 EMaxC= 1.00D-01 BMatC= 4.01D-07 BMatP= 4.01D-07
 IDIUse=1 WtCom= 1.00D+00 WtEn= 0.00D+00
 Coeff-Com:  0.100D+01
 Coeff:      0.100D+01
 Gap=     0.186 Goal=   None    Shift=    0.000
 RMSDP=3.37D-06 MaxDP=1.32D-04 DE= 2.27D-06 OVMax= 2.98D-04

 Cycle   8  Pass 1  IDiag  1:
 RMSU=  6.72D-06    CP:  1.00D+00
 E= -233.500873700710     Delta-E=        0.000000254701 Rises=F Damp=F
 DIIS: error= 4.45D-05 at cycle   2 NSaved=   2.
 NSaved= 2 IEnMin= 1 EnMin= -233.500873955411     IErMin= 1 ErrMin= 3.53D-05
 ErrMax= 4.45D-05  0.00D+00 EMaxC= 1.00D-01 BMatC= 5.84D-07 BMatP= 4.01D-07
 IDIUse=1 WtCom= 1.00D+00 WtEn= 0.00D+00
 Coeff-Com:  0.552D+00 0.448D+00
 Coeff:      0.552D+00 0.448D+00
 Gap=     0.186 Goal=   None    Shift=    0.000
 RMSDP=1.58D-06 MaxDP=6.24D-05 DE= 2.55D-07 OVMax= 2.76D-04

 Cycle   9  Pass 1  IDiag  1:
 RMSU=  1.50D-06    CP:  1.00D+00  9.27D-01
 E= -233.500874219044     Delta-E=       -0.000000518335 Rises=F Damp=F
 DIIS: error= 1.18D-05 at cycle   3 NSaved=   3.
 NSaved= 3 IEnMin= 3 EnMin= -233.500874219044     IErMin= 3 ErrMin= 1.18D-05
 ErrMax= 1.18D-05  0.00D+00 EMaxC= 1.00D-01 BMatC= 3.09D-08 BMatP= 4.01D-07
 IDIUse=1 WtCom= 1.00D+00 WtEn= 0.00D+00
 Coeff-Com:  0.149D+00 0.215D+00 0.636D+00
 Coeff:      0.149D+00 0.215D+00 0.636D+00
 Gap=     0.186 Goal=   None    Shift=    0.000
 RMSDP=5.65D-07 MaxDP=2.33D-05 DE=-5.18D-07 OVMax= 1.08D-04

 Cycle  10  Pass 1  IDiag  1:
 RMSU=  4.78D-07    CP:  1.00D+00  9.41D-01  8.09D-01
 E= -233.500874238273     Delta-E=       -0.000000019228 Rises=F Damp=F
 DIIS: error= 7.58D-06 at cycle   4 NSaved=   4.
 NSaved= 4 IEnMin= 4 EnMin= -233.500874238273     IErMin= 4 ErrMin= 7.58D-06
 ErrMax= 7.58D-06  0.00D+00 EMaxC= 1.00D-01 BMatC= 1.18D-08 BMatP= 3.09D-08
 IDIUse=1 WtCom= 1.00D+00 WtEn= 0.00D+00
 Coeff-Com: -0.143D-02 0.621D-01 0.433D+00 0.507D+00
 Coeff:     -0.143D-02 0.621D-01 0.433D+00 0.507D+00
 Gap=     0.186 Goal=   None    Shift=    0.000
 RMSDP=2.47D-07 MaxDP=8.50D-06 DE=-1.92D-08 OVMax= 3.93D-05

 Cycle  11  Pass 1  IDiag  1:
 RMSU=  6.03D-08    CP:  1.00D+00  9.45D-01  8.54D-01  5.22D-01
 E= -233.500874250779     Delta-E=       -0.000000012507 Rises=F Damp=F
 DIIS: error= 5.45D-07 at cycle   5 NSaved=   5.
 NSaved= 5 IEnMin= 5 EnMin= -233.500874250779     IErMin= 5 ErrMin= 5.45D-07
 ErrMax= 5.45D-07  0.00D+00 EMaxC= 1.00D-01 BMatC= 3.25D-11 BMatP= 1.18D-08
 IDIUse=1 WtCom= 1.00D+00 WtEn= 0.00D+00
 Coeff-Com: -0.209D-02 0.230D-01 0.167D+00 0.204D+00 0.608D+00
 Coeff:     -0.209D-02 0.230D-01 0.167D+00 0.204D+00 0.608D+00
 Gap=     0.186 Goal=   None    Shift=    0.000
 RMSDP=1.92D-08 MaxDP=5.05D-07 DE=-1.25D-08 OVMax= 1.34D-06

 Cycle  12  Pass 1  IDiag  1:
 RMSU=  1.64D-08    CP:  1.00D+00  9.46D-01  8.54D-01  5.24D-01  8.56D-01
 E= -233.500874250800     Delta-E=       -0.000000000021 Rises=F Damp=F
 DIIS: error= 1.51D-07 at cycle   6 NSaved=   6.
 NSaved= 6 IEnMin= 6 EnMin= -233.500874250800     IErMin= 6 ErrMin= 1.51D-07
 ErrMax= 1.51D-07  0.00D+00 EMaxC= 1.00D-01 BMatC= 2.47D-12 BMatP= 3.25D-11
 IDIUse=1 WtCom= 1.00D+00 WtEn= 0.00D+00
 Coeff-Com: -0.777D-03 0.666D-02 0.481D-01 0.609D-01 0.272D+00 0.613D+00
 Coeff:     -0.777D-03 0.666D-02 0.481D-01 0.609D-01 0.272D+00 0.613D+00
 Gap=     0.186 Goal=   None    Shift=    0.000
 RMSDP=5.54D-09 MaxDP=1.08D-07 DE=-2.10D-11 OVMax= 4.18D-07

 SCF Done:  E(RB3LYP) =  -233.500874251     A.U. after   12 cycles
            NFock= 12  Conv=0.55D-08     -V/T= 2.0080
 KE= 2.316368355845D+02 PE=-9.784927288627D+02 EE= 2.942779088066D+02
 Leave Link  502 at Sun Apr  3 19:48:10 2022, MaxMem=  1073741824 cpu:             364.9 elap:              45.7
 (Enter /home/saurabh/g16/l801.exe)
 DoSCS=F DFT=T ScalE2(SS,OS)=  1.000000  1.000000
 Range of M.O.s used for correlation:     1   292
 NBasis=   292 NAE=    22 NBE=    22 NFC=     0 NFV=     0
 NROrb=    292 NOA=    22 NOB=    22 NVA=   270 NVB=   270

 **** Warning!!: The largest alpha MO coefficient is  0.17007433D+02

 Leave Link  801 at Sun Apr  3 19:48:10 2022, MaxMem=  1073741824 cpu:               0.2 elap:               0.1
 (Enter /home/saurabh/g16/l1101.exe)
 Using compressed storage, NAtomX=    14.
 Will process     15 centers per pass.
 Leave Link 1101 at Sun Apr  3 19:48:11 2022, MaxMem=  1073741824 cpu:               2.1 elap:               0.3
 (Enter /home/saurabh/g16/l1102.exe)
 Symmetrizing basis deriv contribution to polar:
 IMax=3 JMax=2 DiffMx= 0.00D+00
 Leave Link 1102 at Sun Apr  3 19:48:11 2022, MaxMem=  1073741824 cpu:               0.6 elap:               0.1
 (Enter /home/saurabh/g16/l1110.exe)
 Forming Gx(P) for the SCF density, NAtomX=    14.
 Integral derivatives from FoFJK, PRISM(SPDF).
 Do as many integral derivatives as possible in FoFJK.
 G2DrvN: MDV=    1073740246.
 G2DrvN: will do    15 centers at a time, making    1 passes.
 Calling FoFCou, ICntrl=  3107 FMM=F I1Cent=   0 AccDes= 0.00D+00.
 FoFJK:  IHMeth= 1 ICntrl=    3107 DoSepK=F KAlg= 0 I1Cent=           0 FoldK=F
 IRaf=         0 NMat=       1 IRICut=       1 DoRegI=T DoRafI=F ISym2E= 0 IDoP0=0 IntGTp=1.
 FoFCou: FMM=F IPFlag=           0 FMFlag=      100000 FMFlg1=           0
         NFxFlg=           0 DoJE=F BraDBF=F KetDBF=F FulRan=T
         wScrn=  0.000000 ICntrl=      3107 IOpCl=  0 I1Cent=           0 NGrid=           0
         NMat0=    1 NMatS0=      1 NMatT0=    0 NMatD0=    1 NMtDS0=    0 NMtDT0=    0
 Symmetry not used in FoFCou.
 End of G2Drv F.D. properties file   721 does not exist.
 End of G2Drv F.D. properties file   722 does not exist.
 End of G2Drv F.D. properties file   788 does not exist.
 Leave Link 1110 at Sun Apr  3 19:49:38 2022, MaxMem=  1073741824 cpu:             693.4 elap:              86.7
 (Enter /home/saurabh/g16/l1002.exe)
 Minotr:  Closed shell wavefunction.
          IDoAtm=11111111111111
          Direct CPHF calculation.
          Differentiating once with respect to nuclear coordinates.
          Requested convergence is 1.0D-08 RMS, and 1.0D-07 maximum.
          Secondary convergence is 1.0D-12 RMS, and 1.0D-12 maximum.
          NewPWx=T KeepS1=F KeepF1=F KeepIn=T MapXYZ=F SortEE=F KeepMc=T.
         4131 words used for storage of precomputed grid.
 Keep R1 ints in memory in canonical form, NReq=933140494.
 FoFCou: FMM=F IPFlag=           0 FMFlag=           0 FMFlg1=           0
         NFxFlg=           0 DoJE=F BraDBF=F KetDBF=F FulRan=T
         wScrn=  0.000000 ICntrl=       600 IOpCl=  0 I1Cent=           0 NGrid=           0
         NMat0=    1 NMatS0=  42778 NMatT0=    0 NMatD0=    1 NMtDS0=    0 NMtDT0=    0
 Symmetry not used in FoFCou.
 Two-electron integral symmetry not used.
          MDV=    1073741824 using IRadAn=       1.
          Solving linear equations simultaneously, MaxMat=       0.
          There are    45 degrees of freedom in the 1st order CPHF.  IDoFFX=6 NUNeed=     0.
     39 vectors produced by pass  0 Test12= 1.32D-14 2.22D-09 XBig12= 8.55D-02 1.56D-01.
 AX will form    39 AO Fock derivatives at one time.
     39 vectors produced by pass  1 Test12= 1.32D-14 2.22D-09 XBig12= 1.52D-02 4.54D-02.
     39 vectors produced by pass  2 Test12= 1.32D-14 2.22D-09 XBig12= 1.87D-04 3.55D-03.
     39 vectors produced by pass  3 Test12= 1.32D-14 2.22D-09 XBig12= 6.79D-07 1.43D-04.
     39 vectors produced by pass  4 Test12= 1.32D-14 2.22D-09 XBig12= 1.13D-09 5.70D-06.
     31 vectors produced by pass  5 Test12= 1.32D-14 2.22D-09 XBig12= 2.52D-12 1.88D-07.
      9 vectors produced by pass  6 Test12= 1.32D-14 2.22D-09 XBig12= 4.05D-15 8.78D-09.
 InvSVY:  IOpt=1 It=  1 EMax= 1.44D-15
 Solved reduced A of dimension   235 with    39 vectors.
 End of Minotr F.D. properties file   721 does not exist.
 End of Minotr F.D. properties file   722 does not exist.
 End of Minotr F.D. properties file   788 does not exist.
 Leave Link 1002 at Sun Apr  3 19:51:27 2022, MaxMem=  1073741824 cpu:             868.3 elap:             108.8
 (Enter /home/saurabh/g16/l601.exe)
 Copying SCF densities to generalized density rwf, IOpCl= 0 IROHF=0.

 **********************************************************************

            Population analysis using the SCF Density.

 **********************************************************************

 Orbital symmetries:
       Occupied  (A) (A) (A) (A) (A) (A) (A) (A) (A) (A) (A) (A)
                 (A) (A) (A) (A) (A) (A) (A) (A) (A) (A)
       Virtual   (A) (A) (A) (A) (A) (A) (A) (A) (A) (A) (A) (A)
                 (A) (A) (A) (A) (A) (A) (A) (A) (A) (A) (A) (A)
                 (A) (A) (A) (A) (A) (A) (A) (A) (A) (A) (A) (A)
                 (A) (A) (A) (A) (A) (A) (A) (A) (A) (A) (A) (A)
                 (A) (A) (A) (A) (A) (A) (A) (A) (A) (A) (A) (A)
                 (A) (A) (A) (A) (A) (A) (A) (A) (A) (A) (A) (A)
                 (A) (A) (A) (A) (A) (A) (A) (A) (A) (A) (A) (A)
                 (A) (A) (A) (A) (A) (A) (A) (A) (A) (A) (A) (A)
                 (A) (A) (A) (A) (A) (A) (A) (A) (A) (A) (A) (A)
                 (A) (A) (A) (A) (A) (A) (A) (A) (A) (A) (A) (A)
                 (A) (A) (A) (A) (A) (A) (A) (A) (A) (A) (A) (A)
                 (A) (A) (A) (A) (A) (A) (A) (A) (A) (A) (A) (A)
                 (A) (A) (A) (A) (A) (A) (A) (A) (A) (A) (A) (A)
                 (A) (A) (A) (A) (A) (A) (A) (A) (A) (A) (A) (A)
                 (A) (A) (A) (A) (A) (A) (A) (A) (A) (A) (A) (A)
                 (A) (A) (A) (A) (A) (A) (A) (A) (A) (A) (A) (A)
                 (A) (A) (A) (A) (A) (A) (A) (A) (A) (A) (A) (A)
                 (A) (A) (A) (A) (A) (A) (A) (A) (A) (A) (A) (A)
                 (A) (A) (A) (A) (A) (A) (A) (A) (A) (A) (A) (A)
                 (A) (A) (A) (A) (A) (A) (A) (A) (A) (A) (A) (A)
                 (A) (A) (A) (A) (A) (A) (A) (A) (A) (A) (A) (A)
                 (A) (A) (A) (A) (A) (A) (A) (A) (A) (A) (A) (A)
                 (A) (A) (A) (A) (A) (A)
 The electronic state is 1-A.
 Alpha  occ. eigenvalues --  -10.17958 -10.17935 -10.17597 -10.17597 -10.17431
 Alpha  occ. eigenvalues --  -10.17402  -0.84096  -0.74095  -0.73930  -0.61642
 Alpha  occ. eigenvalues --   -0.58498  -0.50823  -0.49756  -0.43886  -0.41817
 Alpha  occ. eigenvalues --   -0.41702  -0.39736  -0.37025  -0.33683  -0.32046
 Alpha  occ. eigenvalues --   -0.30560  -0.21963
 Alpha virt. eigenvalues --   -0.03411   0.03666   0.05356   0.06994   0.07909
 Alpha virt. eigenvalues --    0.08574   0.09941   0.10129   0.11985   0.13267
 Alpha virt. eigenvalues --    0.17450   0.20520   0.21439   0.24881   0.25396
 Alpha virt. eigenvalues --    0.26380   0.28374   0.29798   0.31190   0.31968
 Alpha virt. eigenvalues --    0.34329   0.34571   0.35267   0.36551   0.39476
 Alpha virt. eigenvalues --    0.40005   0.40698   0.42782   0.43058   0.44008
 Alpha virt. eigenvalues --    0.45387   0.45804   0.46919   0.47927   0.48062
 Alpha virt. eigenvalues --    0.48452   0.50306   0.51030   0.52964   0.56454
 Alpha virt. eigenvalues --    0.58428   0.59534   0.59921   0.64190   0.67535
 Alpha virt. eigenvalues --    0.67933   0.70752   0.70911   0.75787   0.79357
 Alpha virt. eigenvalues --    0.81187   0.84982   0.85162   0.87245   0.90049
 Alpha virt. eigenvalues --    0.91653   0.93341   0.95943   0.98202   1.00125
 Alpha virt. eigenvalues --    1.01092   1.02207   1.03428   1.04427   1.07695
 Alpha virt. eigenvalues --    1.08950   1.10221   1.12558   1.13645   1.13841
 Alpha virt. eigenvalues --    1.16408   1.17303   1.18063   1.20592   1.20966
 Alpha virt. eigenvalues --    1.21237   1.25556   1.28299   1.31441   1.31820
 Alpha virt. eigenvalues --    1.33077   1.33308   1.34433   1.38782   1.39272
 Alpha virt. eigenvalues --    1.39283   1.39967   1.40746   1.43811   1.46188
 Alpha virt. eigenvalues --    1.48308   1.48891   1.51327   1.53118   1.53198
 Alpha virt. eigenvalues --    1.58488   1.59255   1.74735   1.74833   1.88581
 Alpha virt. eigenvalues --    1.96717   2.00682   2.06611   2.09009   2.11226
 Alpha virt. eigenvalues --    2.11849   2.19732   2.21745   2.22634   2.32325
 Alpha virt. eigenvalues --    2.32595   2.41164   2.41346   2.46174   2.47853
 Alpha virt. eigenvalues --    2.47975   2.49412   2.49846   2.52089   2.52881
 Alpha virt. eigenvalues --    2.56747   2.59399   2.62250   2.63967   2.67287
 Alpha virt. eigenvalues --    2.67451   2.67780   2.68681   2.71064   2.72873
 Alpha virt. eigenvalues --    2.75053   2.75879   2.79353   2.79545   2.82360
 Alpha virt. eigenvalues --    2.82768   2.85190   2.90125   2.93904   2.94797
 Alpha virt. eigenvalues --    2.96161   2.98223   2.99241   3.02659   3.02712
 Alpha virt. eigenvalues --    3.03069   3.05350   3.05467   3.07002   3.08393
 Alpha virt. eigenvalues --    3.11085   3.11551   3.12769   3.14545   3.14607
 Alpha virt. eigenvalues --    3.17756   3.20287   3.21553   3.22655   3.24486
 Alpha virt. eigenvalues --    3.26753   3.27793   3.30024   3.32274   3.33800
 Alpha virt. eigenvalues --    3.34455   3.35974   3.38395   3.40503   3.42631
 Alpha virt. eigenvalues --    3.43108   3.44904   3.45476   3.47140   3.53307
 Alpha virt. eigenvalues --    3.54205   3.54703   3.59971   3.61480   3.63996
 Alpha virt. eigenvalues --    3.66946   3.68971   3.69480   3.72716   3.74698
 Alpha virt. eigenvalues --    3.75037   3.76388   3.79872   3.80447   3.82819
 Alpha virt. eigenvalues --    3.84571   3.86363   3.87855   3.89774   3.90262
 Alpha virt. eigenvalues --    3.92577   3.96470   3.96522   3.99579   3.99955
 Alpha virt. eigenvalues --    4.00221   4.01146   4.04826   4.06437   4.09283
 Alpha virt. eigenvalues --    4.10544   4.11772   4.13675   4.14955   4.15366
 Alpha virt. eigenvalues --    4.18632   4.21084   4.25000   4.25195   4.26716
 Alpha virt. eigenvalues --    4.27725   4.32089   4.40455   4.40945   4.43520
 Alpha virt. eigenvalues --    4.43556   4.44276   4.50888   4.56107   4.57700
 Alpha virt. eigenvalues --    4.57957   4.60108   4.63921   4.65603   4.69773
 Alpha virt. eigenvalues --    4.70790   4.71855   4.76675   4.82639   4.83665
 Alpha virt. eigenvalues --    4.87337   4.88738   4.92291   4.92801   4.94993
 Alpha virt. eigenvalues --    4.95011   5.02126   5.08094   5.10304   5.10451
 Alpha virt. eigenvalues --    5.17667   5.18686   5.22644   5.23256   5.29262
 Alpha virt. eigenvalues --    5.33083   5.38260   5.40128   5.45130   5.54125
 Alpha virt. eigenvalues --    5.61153   5.68342   5.71667   5.76445   5.90264
 Alpha virt. eigenvalues --    5.96434   6.03104   6.09624   6.35465   9.52329
 Alpha virt. eigenvalues --   11.09278  12.29545  12.66608  13.29797  14.05661
          Condensed to atoms (all electrons):
               1          2          3          4          5          6
     1  C    4.839244   0.351368  -0.056680  -0.015669  -0.039479   0.357411
     2  C    0.351368   4.990048   0.617232  -0.057421  -0.034873  -0.039479
     3  C   -0.056680   0.617232   4.897621   0.398010  -0.057422  -0.015668
     4  C   -0.015669  -0.057421   0.398010   4.897620   0.617231  -0.056680
     5  C   -0.039479  -0.034873  -0.057422   0.617231   4.990047   0.351368
     6  C    0.357411  -0.039479  -0.015668  -0.056680   0.351368   4.839243
     7  H   -0.031880   0.007142   0.000043   0.006015  -0.035891   0.409235
     8  H   -0.045216   0.008048   0.007053  -0.009100  -0.043495   0.384070
     9  H    0.005277  -0.000423   0.006972  -0.046310   0.417594  -0.040968
    10  H    0.007898  -0.049102   0.422459  -0.043067   0.006128  -0.000927
    11  H   -0.040968   0.417594  -0.046310   0.006972  -0.000423   0.005277
    12  H    0.409236  -0.035892   0.006015   0.000043   0.007142  -0.031880
    13  H    0.384067  -0.043494  -0.009101   0.007054   0.008047  -0.045215
    14  H   -0.000928   0.006128  -0.043067   0.422459  -0.049103   0.007898
               7          8          9         10         11         12
     1  C   -0.031880  -0.045216   0.005277   0.007898  -0.040968   0.409236
     2  C    0.007142   0.008048  -0.000423  -0.049102   0.417594  -0.035892
     3  C    0.000043   0.007053   0.006972   0.422459  -0.046310   0.006015
     4  C    0.006015  -0.009100  -0.046310  -0.043067   0.006972   0.000043
     5  C   -0.035891  -0.043495   0.417594   0.006128  -0.000423   0.007142
     6  C    0.409235   0.384070  -0.040968  -0.000927   0.005277  -0.031880
     7  H    0.611999  -0.031631  -0.006778   0.000082  -0.000408  -0.004143
     8  H   -0.031631   0.635763   0.003197  -0.000017   0.000904  -0.005674
     9  H   -0.006778   0.003197   0.556086  -0.000388   0.000105  -0.000408
    10  H    0.000082  -0.000017  -0.000388   0.563906  -0.009665  -0.000370
    11  H   -0.000408   0.000904   0.000105  -0.009665   0.556084  -0.006778
    12  H   -0.004143  -0.005674  -0.000408  -0.000370  -0.006778   0.611998
    13  H   -0.005674   0.012955   0.000904  -0.000223   0.003198  -0.031632
    14  H   -0.000370  -0.000223  -0.009665  -0.003997  -0.000388   0.000082
              13         14
     1  C    0.384067  -0.000928
     2  C   -0.043494   0.006128
     3  C   -0.009101  -0.043067
     4  C    0.007054   0.422459
     5  C    0.008047  -0.049103
     6  C   -0.045215   0.007898
     7  H   -0.005674  -0.000370
     8  H    0.012955  -0.000223
     9  H    0.000904  -0.009665
    10  H   -0.000223  -0.003997
    11  H    0.003198  -0.000388
    12  H   -0.031632   0.000082
    13  H    0.635769  -0.000017
    14  H   -0.000017   0.563906
 Mulliken charges:
               1
     1  C   -0.123681
     2  C   -0.136876
     3  C   -0.127157
     4  C   -0.127159
     5  C   -0.136872
     6  C   -0.123684
     7  H    0.082260
     8  H    0.083365
     9  H    0.114805
    10  H    0.107284
    11  H    0.114807
    12  H    0.082261
    13  H    0.083363
    14  H    0.107284
 Sum of Mulliken charges =  -0.00000
 Mulliken charges with hydrogens summed into heavy atoms:
               1
     1  C    0.041942
     2  C   -0.022070
     3  C   -0.019873
     4  C   -0.019875
     5  C   -0.022066
     6  C    0.041941
 APT charges:
               1
     1  C   -0.700576
     2  C   -0.497337
     3  C   -0.528424
     4  C   -0.528427
     5  C   -0.497339
     6  C   -0.700580
     7  H    0.439549
     8  H    0.270024
     9  H    0.506219
    10  H    0.510550
    11  H    0.506216
    12  H    0.439555
    13  H    0.270017
    14  H    0.510552
 Sum of APT charges =  -0.00000
 APT charges with hydrogens summed into heavy atoms:
               1
     1  C    0.008996
     2  C    0.008879
     3  C   -0.017874
     4  C   -0.017875
     5  C    0.008880
     6  C    0.008994
 Electronic spatial extent (au):  <R**2>=            504.0017
 Charge=             -0.0000 electrons
 Dipole moment (field-independent basis, Debye):
    X=             -0.3641    Y=              0.0000    Z=              0.0001  Tot=              0.3641
 Quadrupole moment (field-independent basis, Debye-Ang):
   XX=            -35.1875   YY=            -35.4608   ZZ=            -39.6424
   XY=              0.0001   XZ=              0.0001   YZ=             -0.8301
 Traceless Quadrupole moment (field-independent basis, Debye-Ang):
   XX=              1.5761   YY=              1.3028   ZZ=             -2.8788
   XY=              0.0001   XZ=              0.0001   YZ=             -0.8301
 Octapole moment (field-independent basis, Debye-Ang**2):
  XXX=              3.7676  YYY=              0.0003  ZZZ=              0.0002  XYY=             -0.6088
  XXY=              0.0001  XXZ=              0.0002  XZZ=             -2.3470  YZZ=             -0.0002
  YYZ=              0.0005  XYZ=             -0.8904
 Hexadecapole moment (field-independent basis, Debye-Ang**3):
 XXXX=           -307.2945 YYYY=           -297.8336 ZZZZ=            -73.7274 XXXY=              0.0003
 XXXZ=              0.0007 YYYX=              0.0003 YYYZ=             -7.6512 ZZZX=             -0.0001
 ZZZY=              1.5282 XXYY=           -101.8115 XXZZ=            -69.4565 YYZZ=            -70.5679
 XXYZ=             -3.7643 YYXZ=              0.0003 ZZXY=             -0.0000
 N-N= 2.190771102208D+02 E-N=-9.784927613700D+02  KE= 2.316368355845D+02
  Exact polarizability:       0.000       0.000       0.000       0.000       0.000       0.000
 Approx polarizability:     117.274      -0.000     117.054       0.000      -2.533      72.710
 No NMR shielding tensors so no spin-rotation constants.
 Leave Link  601 at Sun Apr  3 19:51:27 2022, MaxMem=  1073741824 cpu:               2.3 elap:               0.4
 (Enter /home/saurabh/g16/l701.exe)
 ... and contract with generalized density number  0.
 Compute integral second derivatives.
 Leave Link  701 at Sun Apr  3 19:51:28 2022, MaxMem=  1073741824 cpu:               2.2 elap:               0.4
 (Enter /home/saurabh/g16/l702.exe)
 L702 exits ... SP integral derivatives will be done elsewhere.
 Leave Link  702 at Sun Apr  3 19:51:28 2022, MaxMem=  1073741824 cpu:               0.2 elap:               0.1
 (Enter /home/saurabh/g16/l703.exe)
 Integral derivatives from FoFJK, PRISM(SPDF).
 Compute integral second derivatives, UseDBF=F ICtDFT=           0.
 Calling FoFJK, ICntrl=    100127 FMM=F ISym2X=0 I1Cent= 0 IOpClX= 0 NMat=1 NMatS=1 NMatT=0.
 FoFJK:  IHMeth= 1 ICntrl=  100127 DoSepK=F KAlg= 0 I1Cent=           0 FoldK=F
 IRaf=         0 NMat=       1 IRICut=       1 DoRegI=T DoRafI=F ISym2E= 0 IDoP0=0 IntGTp=1.
 FoFCou: FMM=F IPFlag=           0 FMFlag=      100000 FMFlg1=         800
         NFxFlg=           0 DoJE=F BraDBF=F KetDBF=F FulRan=T
         wScrn=  0.000000 ICntrl=    100127 IOpCl=  0 I1Cent=           0 NGrid=           0
         NMat0=    1 NMatS0=      1 NMatT0=    0 NMatD0=    1 NMtDS0=    0 NMtDT0=    0
 Symmetry not used in FoFCou.
 Leave Link  703 at Sun Apr  3 19:54:08 2022, MaxMem=  1073741824 cpu:            1278.7 elap:             159.8
 (Enter /home/saurabh/g16/l716.exe)
 Dipole        =-1.43237252D-01 5.37193452D-06 3.30933597D-05
 Polarizability= 0.00000000D+00 0.00000000D+00 0.00000000D+00
                 0.00000000D+00 0.00000000D+00 0.00000000D+00
 ***** Axes restored to original set *****
 -------------------------------------------------------------------
 Center     Atomic                   Forces (Hartrees/Bohr)
 Number     Number              X              Y              Z
 -------------------------------------------------------------------
      1        6          -0.001663107   -0.006670510   -0.001304695
      2        6          -0.000403953    0.007719925    0.005102846
      3        6           0.011266699   -0.003382374    0.000225525
      4        6          -0.004700601   -0.010384841   -0.002915121
      5        6          -0.006307677    0.006362517   -0.002358771
      6        6           0.006282145   -0.003023481   -0.000582279
      7        1          -0.010049447    0.006380557   -0.004934527
      8        1           0.002729616   -0.002909831    0.008211135
      9        1           0.000464298    0.000531133   -0.004104150
     10        1           0.003026783    0.000218519    0.000260805
     11        1          -0.000095400   -0.001310087    0.003954496
     12        1           0.002355824    0.009753045    0.008084745
     13        1          -0.000762945   -0.001210563   -0.009017542
     14        1          -0.002142235   -0.002074009   -0.000622467
 -------------------------------------------------------------------
 Cartesian Forces:  Max     0.011266699 RMS     0.005114084
 FormGI is forming the generalized inverse of G from B-inverse, IUseBI=4.
 Leave Link  716 at Sun Apr  3 19:54:08 2022, MaxMem=  1073741824 cpu:               1.4 elap:               0.2
 (Enter /home/saurabh/g16/l103.exe)

 GradGradGradGradGradGradGradGradGradGradGradGradGradGradGradGradGradGrad
 Berny optimization.
 Red2BG is reusing G-inverse.
 Internal  Forces:  Max     0.013913057 RMS     0.003683603
 Search for a local minimum.
 Step number   1 out of a maximum of  100
 All quantities printed in internal units (Hartrees-Bohrs-Radians)
 RMS Force = .36836D-02 SwitMx=.10000D-02 MixMth= 1
 Mixed Optimization -- RFO/linear search
 Second derivative matrix not updated -- analytic derivatives used.
 ITU=  0
     Eigenvalues ---    0.00488   0.00730   0.01202   0.01651   0.01931
     Eigenvalues ---    0.02520   0.02653   0.03574   0.03866   0.04500
     Eigenvalues ---    0.05846   0.06930   0.07418   0.08296   0.09739
     Eigenvalues ---    0.10480   0.11198   0.11894   0.11958   0.17647
     Eigenvalues ---    0.17872   0.19365   0.24606   0.26298   0.26527
     Eigenvalues ---    0.28087   0.29127   0.29362   0.29996   0.30758
     Eigenvalues ---    0.34829   0.34846   0.34965   0.35052   0.51809
     Eigenvalues ---    0.53531
 RFO step:  Lambda=-5.74879639D-03 EMin= 4.87816112D-03
 Linear search not attempted -- first point.
 Iteration  1 RMS(Cart)=  0.04886711 RMS(Int)=  0.00148883
 Iteration  2 RMS(Cart)=  0.00159793 RMS(Int)=  0.00035616
 Iteration  3 RMS(Cart)=  0.00000077 RMS(Int)=  0.00035616
 ITry= 1 IFail=0 DXMaxC= 1.40D-01 DCOld= 1.00D+10 DXMaxT= 3.00D-01 DXLimC= 3.00D+00 Rises=F
 Variable       Old X    -DE/DX   Delta X   Delta X   Delta X     New X
                                 (Linear)    (Quad)   (Total)
    R1        2.86301  -0.00307   0.00000  -0.01164  -0.01189   2.85113
    R2        2.88908  -0.00208   0.00000  -0.00044  -0.00067   2.88841
    R3        2.09848  -0.01271   0.00000  -0.04005  -0.04005   2.05842
    R4        2.10202  -0.00783   0.00000  -0.02467  -0.02467   2.07735
    R5        2.54630  -0.00893   0.00000  -0.01776  -0.01758   2.52872
    R6        2.05125  -0.00205   0.00000  -0.00545  -0.00545   2.04580
    R7        2.80882  -0.01391   0.00000  -0.04694  -0.04653   2.76229
    R8        2.05067  -0.00202   0.00000  -0.00461  -0.00461   2.04605
    R9        2.54630  -0.00893   0.00000  -0.01776  -0.01758   2.52872
   R10        2.05067  -0.00202   0.00000  -0.00461  -0.00461   2.04605
   R11        2.86302  -0.00307   0.00000  -0.01164  -0.01189   2.85113
   R12        2.05125  -0.00205   0.00000  -0.00545  -0.00545   2.04580
   R13        2.09848  -0.01271   0.00000  -0.04006  -0.04006   2.05842
   R14        2.10201  -0.00783   0.00000  -0.02466  -0.02466   2.07735
    A1        1.89895  -0.00166   0.00000   0.02156   0.02063   1.91958
    A2        1.93592   0.00235   0.00000   0.01384   0.01466   1.95058
    A3        1.89282  -0.00090   0.00000  -0.00600  -0.00670   1.88612
    A4        1.96928  -0.00084   0.00000  -0.02808  -0.02801   1.94127
    A5        1.87440   0.00267   0.00000   0.02663   0.02683   1.90122
    A6        1.89007  -0.00161   0.00000  -0.02733  -0.02727   1.86280
    A7        2.08608  -0.00022   0.00000  -0.00076  -0.00168   2.08440
    A8        2.09707  -0.00102   0.00000  -0.01113  -0.01073   2.08634
    A9        2.09961   0.00124   0.00000   0.01143   0.01181   2.11142
   A10        2.08725   0.00191   0.00000   0.01301   0.01274   2.09998
   A11        2.09997   0.00086   0.00000   0.00771   0.00774   2.10771
   A12        2.09595  -0.00277   0.00000  -0.02059  -0.02056   2.07539
   A13        2.08725   0.00191   0.00000   0.01301   0.01274   2.09998
   A14        2.09595  -0.00277   0.00000  -0.02060  -0.02056   2.07539
   A15        2.09997   0.00086   0.00000   0.00771   0.00774   2.10771
   A16        2.08608  -0.00022   0.00000  -0.00076  -0.00168   2.08440
   A17        2.09961   0.00124   0.00000   0.01143   0.01181   2.11142
   A18        2.09707  -0.00102   0.00000  -0.01113  -0.01073   2.08634
   A19        1.89894  -0.00166   0.00000   0.02157   0.02064   1.91958
   A20        1.96926  -0.00084   0.00000  -0.02806  -0.02799   1.94127
   A21        1.87441   0.00267   0.00000   0.02663   0.02683   1.90123
   A22        1.93591   0.00235   0.00000   0.01385   0.01467   1.95058
   A23        1.89284  -0.00090   0.00000  -0.00602  -0.00672   1.88613
   A24        1.89008  -0.00161   0.00000  -0.02734  -0.02728   1.86280
    D1       -0.69959   0.00074   0.00000   0.07063   0.07052  -0.62907
    D2        2.47322   0.00071   0.00000   0.08738   0.08741   2.56063
    D3       -2.87564   0.00137   0.00000   0.08172   0.08142  -2.79422
    D4        0.29717   0.00135   0.00000   0.09847   0.09831   0.39549
    D5        1.33407   0.00251   0.00000   0.11068   0.11033   1.44439
    D6       -1.77630   0.00249   0.00000   0.12742   0.12722  -1.64909
    D7        0.95765  -0.00163   0.00000  -0.07327  -0.07360   0.88405
    D8        3.11389  -0.00040   0.00000  -0.05901  -0.05931   3.05458
    D9       -1.08780  -0.00114   0.00000  -0.09201  -0.09233  -1.18013
   D10        3.11392  -0.00040   0.00000  -0.05904  -0.05933   3.05459
   D11       -1.01302   0.00083   0.00000  -0.04478  -0.04504  -1.05806
   D12        1.06847   0.00009   0.00000  -0.07778  -0.07806   0.99041
   D13       -1.08778  -0.00114   0.00000  -0.09203  -0.09234  -1.18012
   D14        1.06846   0.00009   0.00000  -0.07777  -0.07805   0.99041
   D15       -3.13323  -0.00066   0.00000  -0.11077  -0.11107   3.03888
   D16        0.08682  -0.00122   0.00000  -0.04777  -0.04773   0.03909
   D17       -3.06144  -0.00036   0.00000  -0.02544  -0.02507  -3.08651
   D18       -3.08604  -0.00123   0.00000  -0.06496  -0.06529   3.13186
   D19        0.04888  -0.00037   0.00000  -0.04262  -0.04263   0.00626
   D20        0.25333   0.00221   0.00000   0.03701   0.03714   0.29047
   D21       -2.88165   0.00134   0.00000   0.01464   0.01481  -2.86684
   D22       -2.88161   0.00134   0.00000   0.01462   0.01479  -2.86682
   D23        0.26659   0.00047   0.00000  -0.00775  -0.00754   0.25905
   D24        0.08683  -0.00122   0.00000  -0.04779  -0.04775   0.03908
   D25       -3.08614  -0.00123   0.00000  -0.06490  -0.06523   3.13182
   D26       -3.06139  -0.00036   0.00000  -0.02548  -0.02511  -3.08651
   D27        0.04882  -0.00037   0.00000  -0.04258  -0.04259   0.00624
   D28       -0.69960   0.00074   0.00000   0.07065   0.07054  -0.62906
   D29       -2.87561   0.00137   0.00000   0.08171   0.08141  -2.79420
   D30        1.33408   0.00252   0.00000   0.11069   0.11033   1.44442
   D31        2.47333   0.00071   0.00000   0.08731   0.08735   2.56067
   D32        0.29732   0.00134   0.00000   0.09838   0.09822   0.39554
   D33       -1.77618   0.00249   0.00000   0.12735   0.12714  -1.64904
         Item               Value     Threshold  Converged?
 Maximum Force            0.013913     0.000450     NO 
 RMS     Force            0.003684     0.000300     NO 
 Maximum Displacement     0.140014     0.001800     NO 
 RMS     Displacement     0.048964     0.001200     NO 
 Predicted change in Energy=-3.465475D-03
 Lowest energy point so far.  Saving SCF results.
 GradGradGradGradGradGradGradGradGradGradGradGradGradGradGradGradGradGrad

 Leave Link  103 at Sun Apr  3 19:54:08 2022, MaxMem=  1073741824 cpu:               0.6 elap:               0.1
 (Enter /home/saurabh/g16/l202.exe)
                          Input orientation:                          
 ---------------------------------------------------------------------
 Center     Atomic      Atomic             Coordinates (Angstroms)
 Number     Number       Type             X           Y           Z
 ---------------------------------------------------------------------
      1          6           0       -0.187065   -0.006761   -0.388367
      2          6           0       -1.203922    1.030040   -0.797484
      3          6           0       -1.087529    2.281812   -0.339071
      4          6           0        0.041856    2.654401    0.510842
      5          6           0        1.127343    1.874291    0.572249
      6          6           0        1.197165    0.632658   -0.282036
      7          1           0        1.931478   -0.077235    0.096575
      8          1           0        1.531571    0.928372   -1.286604
      9          1           0        1.973435    2.144572    1.191181
     10          1           0       -1.832544    3.030407   -0.577501
     11          1           0       -2.040706    0.740290   -1.420252
     12          1           0       -0.178157   -0.855197   -1.071438
     13          1           0       -0.476206   -0.397362    0.597666
     14          1           0       -0.010008    3.576635    1.075720
 ---------------------------------------------------------------------
                    Distance matrix (angstroms):
                    1          2          3          4          5
     1  C    0.000000
     2  C    1.508751   0.000000
     3  C    2.459844   1.338142   0.000000
     4  C    2.818291   2.429451   1.461741   0.000000
     5  C    2.487731   2.832617   2.429451   1.338142   0.000000
     6  C    1.528482   2.487733   2.818295   2.459846   1.508751
     7  H    2.174479   3.443273   3.856072   3.347256   2.163643
     8  H    2.152908   2.780736   3.096660   2.903316   2.124499
     9  H    3.433798   3.910572   3.424910   2.110399   1.082591
    10  H    3.459446   2.108323   1.082724   2.199829   3.379269
    11  H    2.249190   1.082591   2.110400   3.424910   3.910569
    12  H    1.089270   2.163645   3.347259   3.856073   3.443274
    13  H    1.099287   2.124498   2.903302   3.096640   2.780722
    14  H    3.875000   3.379271   2.199830   1.082724   2.108323
                    6          7          8          9         10
     6  C    0.000000
     7  H    1.089270   0.000000
     8  H    1.099287   1.756233   0.000000
     9  H    2.249189   2.477166   2.795319   0.000000
    10  H    3.875002   4.927442   4.029721   4.289338   0.000000
    11  H    3.433792   4.329821   3.579720   4.990483   2.449122
    12  H    2.174484   2.533779   2.480038   4.329828   4.251928
    13  H    2.152902   2.480023   3.056012   3.579725   3.869143
    14  H    3.459446   4.251924   3.869152   2.449119   2.520544
                   11         12         13         14
    11  H    0.000000
    12  H    2.477163   0.000000
    13  H    2.795336   1.756233   0.000000
    14  H    4.289343   4.927443   4.029705   0.000000
 Stoichiometry    C6H8
 Framework group  C1[X(C6H8)]
 Deg. of freedom    36
 Full point group                 C1      NOp   1
 RotChk:  IX=2 Diff= 1.80D-02
 Largest Abelian subgroup         C1      NOp   1
 Largest concise Abelian subgroup C1      NOp   1
                         Standard orientation:                         
 ---------------------------------------------------------------------
 Center     Atomic      Atomic             Coordinates (Angstroms)
 Number     Number       Type             X           Y           Z
 ---------------------------------------------------------------------
      1          6           0       -1.179177   -0.705610   -0.293651
      2          6           0        0.102474   -1.414663    0.068212
      3          6           0        1.245399   -0.720727    0.121118
      4          6           0        1.245354    0.720802   -0.121123
      5          6           0        0.102387    1.414668   -0.068209
      6          6           0       -1.179223    0.705537    0.293649
      7          1           0       -2.055803    1.266517   -0.027938
      8          1           0       -1.232603    0.635816    1.389423
      9          1           0        0.091398    2.483967   -0.236975
     10          1           0        2.185262   -1.216613    0.328595
     11          1           0        0.091545   -2.483956    0.237013
     12          1           0       -2.055726   -1.266646    0.027921
     13          1           0       -1.232549   -0.635882   -1.389425
     14          1           0        2.185187    1.216749   -0.328590
 ---------------------------------------------------------------------
 Rotational constants (GHZ):           5.1217770           5.1164349           2.7475773
 Leave Link  202 at Sun Apr  3 19:54:08 2022, MaxMem=  1073741824 cpu:               0.1 elap:               0.0
 (Enter /home/saurabh/g16/l301.exe)
 Standard basis: CC-pVTZ (5D, 7F)
 Ernie: Thresh=  0.10000D-02 Tol=  0.10000D-05 Strict=F.
 Ernie:  18 primitive shells out of 220 were deleted.
 There are   330 symmetry adapted cartesian basis functions of A   symmetry.
 There are   292 symmetry adapted basis functions of A   symmetry.
   292 basis functions,   448 primitive gaussians,   330 cartesian basis functions
    22 alpha electrons       22 beta electrons
       nuclear repulsion energy       220.1580995913 Hartrees.
 IExCor=  402 DFT=T Ex+Corr=B3LYP ExCW=0 ScaHFX=  0.200000
 ScaDFX=  0.800000  0.720000  1.000000  0.810000 ScalE2=  1.000000  1.000000
 IRadAn=      5 IRanWt=     -1 IRanGd=            0 ICorTp=0 IEmpDi=  4
 NAtoms=   14 NActive=   14 NUniq=   14 SFac= 1.00D+00 NAtFMM=   60 NAOKFM=F Big=F
 Integral buffers will be    131072 words long.
 Raffenetti 2 integral format.
 Two-electron integral symmetry is turned on.
 Leave Link  301 at Sun Apr  3 19:54:08 2022, MaxMem=  1073741824 cpu:               0.4 elap:               0.1
 (Enter /home/saurabh/g16/l302.exe)
 NPDir=0 NMtPBC=     1 NCelOv=     1 NCel=       1 NClECP=     1 NCelD=      1
         NCelK=      1 NCelE2=     1 NClLst=     1 CellRange=     0.0.
 One-electron integrals computed using PRISM.
 One-electron integral symmetry used in STVInt
 NBasis=   292 RedAO= T EigKep=  1.12D-04  NBF=   292
 NBsUse=   292 1.00D-06 EigRej= -1.00D+00 NBFU=   292
 Precomputing XC quadrature grid using
 IXCGrd= 4 IRadAn=           5 IRanWt=          -1 IRanGd=           0 AccXCQ= 0.00D+00.
 Generated NRdTot=       0 NPtTot=           0 NUsed=           0 NTot=          32
 NSgBfM=   330   330   330   330   330 MxSgAt=    14 MxSgA2=    14.
 Leave Link  302 at Sun Apr  3 19:54:08 2022, MaxMem=  1073741824 cpu:               2.0 elap:               0.3
 (Enter /home/saurabh/g16/l303.exe)
 DipDrv:  MaxL=1.
 Leave Link  303 at Sun Apr  3 19:54:09 2022, MaxMem=  1073741824 cpu:               0.3 elap:               0.1
 (Enter /home/saurabh/g16/l401.exe)
 Initial guess from the checkpoint file:  "Mol_05.chk"
 B after Tr=     0.000000   -0.000000   -0.000000
         Rot=    0.999984    0.005583   -0.000000   -0.000005 Ang=   0.64 deg.
 Guess basis will be translated and rotated to current coordinates.
 JPrj=2 DoOrth=T DoCkMO=T.
 Generating alternative initial guess.
 ExpMin= 1.03D-01 ExpMax= 8.24D+03 ExpMxC= 2.81D+02 IAcc=3 IRadAn=         5 AccDes= 0.00D+00
 Harris functional with IExCor=  402 and IRadAn=       5 diagonalized for initial guess.
 HarFok:  IExCor=  402 AccDes= 0.00D+00 IRadAn=         5 IDoV= 1 UseB2=F ITyADJ=14
 ICtDFT=  3500011 ScaDFX=  1.000000  1.000000  1.000000  1.000000
 FoFCou: FMM=F IPFlag=           0 FMFlag=      100000 FMFlg1=           0
         NFxFlg=           0 DoJE=T BraDBF=F KetDBF=T FulRan=T
         wScrn=  0.000000 ICntrl=       500 IOpCl=  0 I1Cent=   200000004 NGrid=           0
         NMat0=    1 NMatS0=      1 NMatT0=    0 NMatD0=    1 NMtDS0=    0 NMtDT0=    0
 Petite list used in FoFCou.
 Harris En= -233.566178879755    
 Leave Link  401 at Sun Apr  3 19:54:10 2022, MaxMem=  1073741824 cpu:              13.1 elap:               1.7
 (Enter /home/saurabh/g16/l502.exe)
 Integral symmetry usage will be decided dynamically.
 Closed shell SCF:
 Using DIIS extrapolation, IDIIS=  1040.
 NGot=  1073741824 LenX=  1073518082 LenY=  1073408741
 Requested convergence on RMS density matrix=1.00D-08 within1000 cycles.
 Requested convergence on MAX density matrix=1.00D-06.
 Requested convergence on             energy=1.00D-06.
 No special actions if energy rises.
 Fock matrices will be formed incrementally for  20 cycles.
 Integral accuracy reduced to 1.0D-05 until final iterations.

 Cycle   1  Pass 0  IDiag  1:
 FoFJK:  IHMeth= 1 ICntrl=       0 DoSepK=F KAlg= 0 I1Cent=           0 FoldK=F
 IRaf= 990000000 NMat=       1 IRICut=       1 DoRegI=T DoRafI=F ISym2E= 0 IDoP0=0 IntGTp=1.
 FoFCou: FMM=F IPFlag=           0 FMFlag=      100000 FMFlg1=           0
         NFxFlg=           0 DoJE=F BraDBF=F KetDBF=F FulRan=T
         wScrn=  0.000000 ICntrl=         0 IOpCl=  0 I1Cent=           0 NGrid=           0
         NMat0=    1 NMatS0=      1 NMatT0=    0 NMatD0=    1 NMtDS0=    0 NMtDT0=    0
 Symmetry not used in FoFCou.
 E= -233.501119930366    
 DIIS: error= 2.06D-03 at cycle   1 NSaved=   1.
 NSaved= 1 IEnMin= 1 EnMin= -233.501119930366     IErMin= 1 ErrMin= 2.06D-03
 ErrMax= 2.06D-03  0.00D+00 EMaxC= 1.00D-01 BMatC= 2.88D-03 BMatP= 2.88D-03
 IDIUse=3 WtCom= 9.79D-01 WtEn= 2.06D-02
 Coeff-Com:  0.100D+01
 Coeff-En:   0.100D+01
 Coeff:      0.100D+01
 Gap=     0.776 Goal=   None    Shift=    0.000
 GapD=    0.776 DampG=2.000 DampE=1.000 DampFc=2.0000 IDamp=-1.
 RMSDP=2.18D-04 MaxDP=3.96D-03              OVMax= 1.66D-02

 Cycle   2  Pass 0  IDiag  1:
 RMSU=  2.18D-04    CP:  1.00D+00
 E= -233.504190201727     Delta-E=       -0.003070271361 Rises=F Damp=F
 DIIS: error= 6.24D-04 at cycle   2 NSaved=   2.
 NSaved= 2 IEnMin= 2 EnMin= -233.504190201727     IErMin= 2 ErrMin= 6.24D-04
 ErrMax= 6.24D-04  0.00D+00 EMaxC= 1.00D-01 BMatC= 9.43D-05 BMatP= 2.88D-03
 IDIUse=3 WtCom= 9.94D-01 WtEn= 6.24D-03
 Coeff-Com:  0.122D-01 0.988D+00
 Coeff-En:   0.000D+00 0.100D+01
 Coeff:      0.121D-01 0.988D+00
 Gap=     0.187 Goal=   None    Shift=    0.000
 RMSDP=5.12D-05 MaxDP=1.27D-03 DE=-3.07D-03 OVMax= 4.64D-03

 Cycle   3  Pass 0  IDiag  1:
 RMSU=  5.11D-05    CP:  9.99D-01  1.02D+00
 E= -233.504175854338     Delta-E=        0.000014347389 Rises=F Damp=F
 DIIS: error= 8.71D-04 at cycle   3 NSaved=   3.
 NSaved= 3 IEnMin= 2 EnMin= -233.504190201727     IErMin= 2 ErrMin= 6.24D-04
 ErrMax= 8.71D-04  0.00D+00 EMaxC= 1.00D-01 BMatC= 1.26D-04 BMatP= 9.43D-05
 IDIUse=3 WtCom= 2.53D-01 WtEn= 7.47D-01
 Coeff-Com: -0.237D-01 0.550D+00 0.474D+00
 Coeff-En:   0.000D+00 0.532D+00 0.468D+00
 Coeff:     -0.601D-02 0.537D+00 0.469D+00
 Gap=     0.187 Goal=   None    Shift=    0.000
 RMSDP=3.01D-05 MaxDP=7.97D-04 DE= 1.43D-05 OVMax= 3.08D-03

 Cycle   4  Pass 0  IDiag  1:
 RMSU=  1.22D-05    CP:  1.00D+00  1.05D+00  4.73D-01
 E= -233.504301065077     Delta-E=       -0.000125210739 Rises=F Damp=F
 DIIS: error= 1.25D-04 at cycle   4 NSaved=   4.
 NSaved= 4 IEnMin= 4 EnMin= -233.504301065077     IErMin= 4 ErrMin= 1.25D-04
 ErrMax= 1.25D-04  0.00D+00 EMaxC= 1.00D-01 BMatC= 3.32D-06 BMatP= 9.43D-05
 IDIUse=3 WtCom= 9.99D-01 WtEn= 1.25D-03
 Coeff-Com: -0.102D-01 0.164D+00 0.204D+00 0.641D+00
 Coeff-En:   0.000D+00 0.000D+00 0.000D+00 0.100D+01
 Coeff:     -0.102D-01 0.164D+00 0.204D+00 0.642D+00
 Gap=     0.187 Goal=   None    Shift=    0.000
 RMSDP=6.24D-06 MaxDP=2.26D-04 DE=-1.25D-04 OVMax= 1.09D-03

 Initial convergence to 1.0D-05 achieved.  Increase integral accuracy.
 Cycle   5  Pass 1  IDiag  1:
 E= -233.504296273592     Delta-E=        0.000004791485 Rises=F Damp=F
 DIIS: error= 7.05D-05 at cycle   1 NSaved=   1.
 NSaved= 1 IEnMin= 1 EnMin= -233.504296273592     IErMin= 1 ErrMin= 7.05D-05
 ErrMax= 7.05D-05  0.00D+00 EMaxC= 1.00D-01 BMatC= 1.41D-06 BMatP= 1.41D-06
 IDIUse=1 WtCom= 1.00D+00 WtEn= 0.00D+00
 Coeff-Com:  0.100D+01
 Coeff:      0.100D+01
 Gap=     0.187 Goal=   None    Shift=    0.000
 RMSDP=6.24D-06 MaxDP=2.26D-04 DE= 4.79D-06 OVMax= 1.33D-03

 Cycle   6  Pass 1  IDiag  1:
 RMSU=  9.47D-06    CP:  1.00D+00
 E= -233.504292494636     Delta-E=        0.000003778956 Rises=F Damp=F
 DIIS: error= 1.54D-04 at cycle   2 NSaved=   2.
 NSaved= 2 IEnMin= 1 EnMin= -233.504296273592     IErMin= 1 ErrMin= 7.05D-05
 ErrMax= 1.54D-04  0.00D+00 EMaxC= 1.00D-01 BMatC= 5.00D-06 BMatP= 1.41D-06
 IDIUse=3 WtCom= 4.46D-01 WtEn= 5.54D-01
 Coeff-Com:  0.656D+00 0.344D+00
 Coeff-En:   0.744D+00 0.256D+00
 Coeff:      0.705D+00 0.295D+00
 Gap=     0.187 Goal=   None    Shift=    0.000
 RMSDP=4.06D-06 MaxDP=1.56D-04 DE= 3.78D-06 OVMax= 7.96D-04

 Cycle   7  Pass 1  IDiag  1:
 RMSU=  2.88D-06    CP:  1.00D+00  6.98D-01
 E= -233.504297581205     Delta-E=       -0.000005086569 Rises=F Damp=F
 DIIS: error= 1.76D-05 at cycle   3 NSaved=   3.
 NSaved= 3 IEnMin= 3 EnMin= -233.504297581205     IErMin= 3 ErrMin= 1.76D-05
 ErrMax= 1.76D-05  0.00D+00 EMaxC= 1.00D-01 BMatC= 7.35D-08 BMatP= 1.41D-06
 IDIUse=1 WtCom= 1.00D+00 WtEn= 0.00D+00
 Coeff-Com:  0.140D+00-0.287D-01 0.888D+00
 Coeff:      0.140D+00-0.287D-01 0.888D+00
 Gap=     0.187 Goal=   None    Shift=    0.000
 RMSDP=7.49D-07 MaxDP=2.05D-05 DE=-5.09D-06 OVMax= 8.53D-05

 Cycle   8  Pass 1  IDiag  1:
 RMSU=  5.00D-07    CP:  1.00D+00  6.55D-01  1.13D+00
 E= -233.504297649167     Delta-E=       -0.000000067962 Rises=F Damp=F
 DIIS: error= 7.69D-06 at cycle   4 NSaved=   4.
 NSaved= 4 IEnMin= 4 EnMin= -233.504297649167     IErMin= 4 ErrMin= 7.69D-06
 ErrMax= 7.69D-06  0.00D+00 EMaxC= 1.00D-01 BMatC= 8.11D-09 BMatP= 7.35D-08
 IDIUse=1 WtCom= 1.00D+00 WtEn= 0.00D+00
 Coeff-Com: -0.509D-02-0.618D-01 0.518D+00 0.549D+00
 Coeff:     -0.509D-02-0.618D-01 0.518D+00 0.549D+00
 Gap=     0.187 Goal=   None    Shift=    0.000
 RMSDP=2.42D-07 MaxDP=5.57D-06 DE=-6.80D-08 OVMax= 1.79D-05

 Cycle   9  Pass 1  IDiag  1:
 RMSU=  7.08D-08    CP:  1.00D+00  6.61D-01  1.15D+00  5.68D-01
 E= -233.504297657464     Delta-E=       -0.000000008297 Rises=F Damp=F
 DIIS: error= 2.37D-07 at cycle   5 NSaved=   5.
 NSaved= 5 IEnMin= 5 EnMin= -233.504297657464     IErMin= 5 ErrMin= 2.37D-07
 ErrMax= 2.37D-07  0.00D+00 EMaxC= 1.00D-01 BMatC= 1.33D-11 BMatP= 8.11D-09
 IDIUse=1 WtCom= 1.00D+00 WtEn= 0.00D+00
 Coeff-Com: -0.249D-02-0.150D-01 0.122D+00 0.135D+00 0.761D+00
 Coeff:     -0.249D-02-0.150D-01 0.122D+00 0.135D+00 0.761D+00
 Gap=     0.187 Goal=   None    Shift=    0.000
 RMSDP=1.51D-08 MaxDP=5.62D-07 DE=-8.30D-09 OVMax= 1.24D-06

 Cycle  10  Pass 1  IDiag  1:
 RMSU=  1.49D-08    CP:  1.00D+00  6.61D-01  1.15D+00  5.69D-01  1.01D+00
 E= -233.504297657478     Delta-E=       -0.000000000014 Rises=F Damp=F
 DIIS: error= 8.00D-08 at cycle   6 NSaved=   6.
 NSaved= 6 IEnMin= 6 EnMin= -233.504297657478     IErMin= 6 ErrMin= 8.00D-08
 ErrMax= 8.00D-08  0.00D+00 EMaxC= 1.00D-01 BMatC= 2.19D-12 BMatP= 1.33D-11
 IDIUse=1 WtCom= 1.00D+00 WtEn= 0.00D+00
 Coeff-Com: -0.340D-03 0.748D-03-0.703D-02-0.538D-02 0.262D+00 0.750D+00
 Coeff:     -0.340D-03 0.748D-03-0.703D-02-0.538D-02 0.262D+00 0.750D+00
 Gap=     0.187 Goal=   None    Shift=    0.000
 RMSDP=4.89D-09 MaxDP=1.05D-07 DE=-1.44D-11 OVMax= 4.98D-07

 SCF Done:  E(RB3LYP) =  -233.504297657     A.U. after   10 cycles
            NFock= 10  Conv=0.49D-08     -V/T= 2.0071
 KE= 2.318641642607D+02 PE=-9.808521452911D+02 EE= 2.953255837815D+02
 Leave Link  502 at Sun Apr  3 19:54:50 2022, MaxMem=  1073741824 cpu:             321.8 elap:              40.2
 (Enter /home/saurabh/g16/l701.exe)
 ... and contract with generalized density number  0.
 Compute integral first derivatives.
 Leave Link  701 at Sun Apr  3 19:54:51 2022, MaxMem=  1073741824 cpu:               1.4 elap:               0.2
 (Enter /home/saurabh/g16/l702.exe)
 L702 exits ... SP integral derivatives will be done elsewhere.
 Leave Link  702 at Sun Apr  3 19:54:51 2022, MaxMem=  1073741824 cpu:               0.2 elap:               0.0
 (Enter /home/saurabh/g16/l703.exe)
 Integral derivatives from FoFJK, PRISM(SPDF).
 Compute integral first derivatives, UseDBF=F ICtDFT=           0.
 Calling FoFJK, ICntrl=      2127 FMM=F ISym2X=0 I1Cent= 0 IOpClX= 0 NMat=1 NMatS=1 NMatT=0.
 FoFJK:  IHMeth= 1 ICntrl=    2127 DoSepK=F KAlg= 0 I1Cent=           0 FoldK=F
 IRaf=         0 NMat=       1 IRICut=       1 DoRegI=T DoRafI=F ISym2E= 0 IDoP0=0 IntGTp=1.
 FoFCou: FMM=F IPFlag=           0 FMFlag=      100000 FMFlg1=         800
         NFxFlg=           0 DoJE=F BraDBF=F KetDBF=F FulRan=T
         wScrn=  0.000000 ICntrl=      2127 IOpCl=  0 I1Cent=           0 NGrid=           0
         NMat0=    1 NMatS0=      1 NMatT0=    0 NMatD0=    1 NMtDS0=    0 NMtDT0=    0
 Symmetry not used in FoFCou.
 Leave Link  703 at Sun Apr  3 19:55:08 2022, MaxMem=  1073741824 cpu:             135.2 elap:              16.9
 (Enter /home/saurabh/g16/l716.exe)
 Dipole        =-1.63234430D-01-1.14471186D-06 9.93606799D-06
 ***** Axes restored to original set *****
 -------------------------------------------------------------------
 Center     Atomic                   Forces (Hartrees/Bohr)
 Number     Number              X              Y              Z
 -------------------------------------------------------------------
      1        6          -0.000232950    0.001042735    0.000190506
      2        6          -0.000085689    0.000088843    0.000159308
      3        6           0.000071592    0.000336141   -0.001308653
      4        6          -0.000106552   -0.000262806    0.001323027
      5        6          -0.000034935    0.000166308   -0.000110817
      6        6          -0.000664880    0.000838888    0.000177786
      7        1          -0.000062521   -0.000415849    0.001056537
      8        1           0.001144023   -0.000874063   -0.000018374
      9        1           0.000531042    0.000641246   -0.001015061
     10        1           0.000133044    0.000110383   -0.000164595
     11        1          -0.000674579   -0.000341787    0.001074423
     12        1           0.000198107    0.000132305   -0.001112207
     13        1          -0.000071489   -0.001375267   -0.000421086
     14        1          -0.000144212   -0.000087078    0.000169208
 -------------------------------------------------------------------
 Cartesian Forces:  Max     0.001375267 RMS     0.000624807
 Leave Link  716 at Sun Apr  3 19:55:08 2022, MaxMem=  1073741824 cpu:               0.2 elap:               0.0
 (Enter /home/saurabh/g16/l103.exe)

 GradGradGradGradGradGradGradGradGradGradGradGradGradGradGradGradGradGrad
 Berny optimization.
 Using GEDIIS/GDIIS optimizer.
 FormGI is forming the generalized inverse of G from B-inverse, IUseBI=4.
 Internal  Forces:  Max     0.000702975 RMS     0.000343818
 Search for a local minimum.
 Step number   2 out of a maximum of  100
 All quantities printed in internal units (Hartrees-Bohrs-Radians)
 RMS Force = .34382D-03 SwitMx=.10000D-02 MixMth= 2
 Mixed Optimization -- En-DIIS/RFO-DIIS
 Update second derivatives using D2CorX and points    1    2
 DE= -3.42D-03 DEPred=-3.47D-03 R= 9.88D-01
 TightC=F SS=  1.41D+00  RLast= 4.53D-01 DXNew= 5.0454D-01 1.3604D+00
 Trust test= 9.88D-01 RLast= 4.53D-01 DXMaxT set to 5.05D-01
 ITU=  1  0
 Use linear search instead of GDIIS.
     Eigenvalues ---    0.00476   0.00730   0.01199   0.01655   0.01931
     Eigenvalues ---    0.02520   0.02660   0.03574   0.03861   0.04499
     Eigenvalues ---    0.05841   0.06935   0.07415   0.08313   0.09737
     Eigenvalues ---    0.10467   0.11197   0.11891   0.11960   0.17630
     Eigenvalues ---    0.17850   0.19357   0.24653   0.26293   0.26533
     Eigenvalues ---    0.28184   0.29127   0.29411   0.29996   0.31794
     Eigenvalues ---    0.34829   0.34848   0.34977   0.35052   0.51807
     Eigenvalues ---    0.53793
 RFO step:  Lambda=-8.46215418D-04 EMin= 4.75773307D-03
 Quartic linear search produced a step of  0.21713.
 Iteration  1 RMS(Cart)=  0.04944325 RMS(Int)=  0.00136634
 Iteration  2 RMS(Cart)=  0.00152644 RMS(Int)=  0.00030269
 Iteration  3 RMS(Cart)=  0.00000052 RMS(Int)=  0.00030269
 ITry= 1 IFail=0 DXMaxC= 1.57D-01 DCOld= 1.00D+10 DXMaxT= 5.05D-01 DXLimC= 3.00D+00 Rises=F
 Variable       Old X    -DE/DX   Delta X   Delta X   Delta X     New X
                                 (Linear)    (Quad)   (Total)
    R1        2.85113   0.00014  -0.00258  -0.00071  -0.00346   2.84767
    R2        2.88841   0.00046  -0.00014   0.00378   0.00337   2.89178
    R3        2.05842   0.00060  -0.00870   0.01158   0.00288   2.06130
    R4        2.07735   0.00013  -0.00536   0.00539   0.00004   2.07739
    R5        2.52872   0.00020  -0.00382   0.00182  -0.00184   2.52688
    R6        2.04580  -0.00001  -0.00118   0.00135   0.00017   2.04597
    R7        2.76229   0.00067  -0.01010   0.01203   0.00225   2.76454
    R8        2.04605   0.00002  -0.00100   0.00089  -0.00011   2.04595
    R9        2.52872   0.00020  -0.00382   0.00182  -0.00184   2.52688
   R10        2.04605   0.00002  -0.00100   0.00089  -0.00011   2.04595
   R11        2.85113   0.00014  -0.00258  -0.00071  -0.00346   2.84767
   R12        2.04580  -0.00001  -0.00118   0.00135   0.00017   2.04597
   R13        2.05842   0.00060  -0.00870   0.01158   0.00288   2.06130
   R14        2.07735   0.00013  -0.00535   0.00539   0.00003   2.07739
    A1        1.91958   0.00018   0.00448   0.01642   0.01968   1.93926
    A2        1.95058  -0.00001   0.00318  -0.01318  -0.00936   1.94122
    A3        1.88612  -0.00004  -0.00145   0.00719   0.00549   1.89162
[...]
 ! D9    D(2,1,6,8)            -77.6957         -DE/DX =    0.0                 !
 ! D10   D(12,1,6,5)           166.0928         -DE/DX =    0.0                 !
 ! D11   D(12,1,6,7)           -70.2679         -DE/DX =    0.0                 !
 ! D12   D(12,1,6,8)            45.9435         -DE/DX =    0.0                 !
 ! D13   D(13,1,6,5)           -77.6957         -DE/DX =    0.0                 !
 ! D14   D(13,1,6,7)            45.9435         -DE/DX =    0.0                 !
 ! D15   D(13,1,6,8)           162.1549         -DE/DX =    0.0                 !
 ! D16   D(1,2,3,4)              1.5985         -DE/DX =    0.0                 !
 ! D17   D(1,2,3,10)          -177.0741         -DE/DX =    0.0                 !
 ! D18   D(11,2,3,4)           177.7471         -DE/DX =    0.0                 !
 ! D19   D(11,2,3,10)           -0.9256         -DE/DX =    0.0                 !
 ! D20   D(2,3,4,5)             14.3638         -DE/DX =    0.0                 !
 ! D21   D(2,3,4,14)          -166.9381         -DE/DX =    0.0                 !
 ! D22   D(10,3,4,5)          -166.9381         -DE/DX =    0.0                 !
 ! D23   D(10,3,4,14)           11.76           -DE/DX =    0.0                 !
 ! D24   D(3,4,5,6)              1.5985         -DE/DX =    0.0                 !
 ! D25   D(3,4,5,9)            177.7471         -DE/DX =    0.0                 !
 ! D26   D(14,4,5,6)          -177.0741         -DE/DX =    0.0                 !
 ! D27   D(14,4,5,9)            -0.9256         -DE/DX =    0.0                 !
 ! D28   D(4,5,6,1)            -30.1406         -DE/DX =    0.0                 !
 ! D29   D(4,5,6,7)           -153.3731         -DE/DX =    0.0                 !
 ! D30   D(4,5,6,8)             90.7439         -DE/DX =    0.0                 !
 ! D31   D(9,5,6,1)            153.6358         -DE/DX =    0.0                 !
 ! D32   D(9,5,6,7)             30.4033         -DE/DX =    0.0                 !
 ! D33   D(9,5,6,8)            -85.4797         -DE/DX =    0.0                 !
 --------------------------------------------------------------------------------
 GradGradGradGradGradGradGradGradGradGradGradGradGradGradGradGradGradGrad

 Leave Link  103 at Sun Apr  3 20:04:59 2022, MaxMem=  1073741824 cpu:               0.1 elap:               0.0
 (Enter /home/saurabh/g16/l9999.exe)

 ----------------------------------------------------------------------

 Electric dipole moment (input orientation):
 (Debye = 10**-18 statcoulomb cm , SI units = C m)
                  (au)            (Debye)         (10**-30 SI)
   Tot        0.179189D+00      0.455453D+00      0.151923D+01
   x          0.759659D-01      0.193086D+00      0.644066D+00
   y         -0.159278D+00     -0.404843D+00     -0.135041D+01
   z         -0.311201D-01     -0.790993D-01     -0.263847D+00

 Dipole polarizability, Alpha (input orientation).
 (esu units = cm**3 , SI units = C**2 m**2 J**-1)
 Alpha(0;0):
               (au)            (10**-24 esu)      (10**-40 SI)
   iso        0.658476D+02      0.975761D+01      0.108568D+02
   aniso      0.311272D+02      0.461257D+01      0.513218D+01
   xx         0.725251D+02      0.107471D+02      0.119578D+02
   yx        -0.355489D+01     -0.526780D+00     -0.586122D+00
   yy         0.725739D+02      0.107543D+02      0.119658D+02
   zx         0.956085D+01      0.141677D+01      0.157637D+01
   zy         0.917454D+01      0.135953D+01      0.151268D+01
   zz         0.524438D+02      0.777136D+01      0.864681D+01

 ----------------------------------------------------------------------

 Dipole orientation:
     6         -0.64779476         -0.61094838         -0.00143416
     6         -1.95213233         -1.19045004         -2.46574217
     6         -0.63710406         -1.26778399         -4.62094825
     6          2.09628973         -0.85772473         -4.62094833
     6          3.41131813         -0.93505863         -2.46574234
     6          2.10698072         -1.51456037         -0.00143426
     1          3.12719858         -0.67646385          1.58209827
     1          2.16637247         -3.56806318          0.30199777
     1          5.44407856         -0.69976259         -2.47218743
     1         -1.58078636         -1.59530671         -6.40656411
     1         -3.98489277         -1.42574601         -2.47218715
     1         -1.66801251         -1.44904500          1.58209839
     1         -0.70718654          1.44255441          0.30199799
     1          3.03997191         -0.53020201         -6.40656426

 Electric dipole moment (dipole orientation):
 (Debye = 10**-18 statcoulomb cm , SI units = C m)
                  (au)            (Debye)         (10**-30 SI)
   Tot        0.179189D+00      0.455453D+00      0.151923D+01
   x          0.000000D+00      0.000000D+00      0.000000D+00
   y          0.000000D+00      0.000000D+00      0.000000D+00
   z          0.179189D+00      0.455453D+00      0.151923D+01

 Dipole polarizability, Alpha (dipole orientation).
 (esu units = cm**3 , SI units = C**2 m**2 J**-1)
 Alpha(0;0):
               (au)            (10**-24 esu)      (10**-40 SI)
   iso        0.658476D+02      0.975761D+01      0.108568D+02
   aniso      0.311272D+02      0.461257D+01      0.513218D+01
   xx         0.763505D+02      0.113140D+02      0.125885D+02
   yx         0.102079D+01      0.151265D+00      0.168305D+00
   yy         0.451303D+02      0.668762D+01      0.744099D+01
   zx         0.000000D+00      0.000000D+00      0.000000D+00
   zy         0.000000D+00      0.000000D+00      0.000000D+00
   zz         0.760619D+02      0.112712D+02      0.125409D+02

 ----------------------------------------------------------------------
 Unable to Open any file for archive entry.
 1\1\GINC-HEL02\Freq\RB3LYP\CC-pVTZ\C6H8\SAURABH\03-Apr-2022\0\\#P Geom
 =AllCheck Guess=TCheck SCRF=Check GenChk RB3LYP/CC-pVTZ Freq\\Mol_05\\
 0,1\C,-0.186823056,-0.003732922,-0.4325705409\C,-1.2257379212,1.034022
 1164,-0.7712928791\C,-1.1067796668,2.2845826163,-0.3145835589\C,0.0484
 996247,2.6780851238,0.4915111544\C,1.1344608241,1.9011322691,0.5520798
 24\C,1.2012375564,0.6205857888,-0.2395981552\H,1.8712954978,-0.0958679
 712,0.2379672831\H,1.6448261631,0.8430778084,-1.2200784703\H,2.0040036
 639,2.2088484167,1.1193815637\H,-1.8746233972,3.0207977699,-0.51624526
 71\H,-2.0981725484,0.7323691281,-1.3374099497\H,-0.1463778406,-0.77698
 9783,-1.201199451\H,-0.4942670502,-0.5116791459,0.4921369917\H,0.01516
 89756,3.6216908297,1.0213805076\\Version=EM64L-G16RevC.01\State=1-A\HF
 =-233.5050989\RMSD=8.284e-10\RMSF=2.584e-06\ZeroPoint=0.1220152\Therma
 l=0.1271902\ETot=-233.3779087\HTot=-233.3769645\GTot=-233.4113164\Dipo
 le=0.0759659,-0.1592776,-0.0311201\DipoleDeriv=-0.0123831,0.0360615,-0
 .0782839,0.0348608,0.0722793,-0.0109107,-0.0433052,0.027203,0.203915,-
 0.052419,-0.0712028,0.0945809,-0.0387638,0.1006425,0.0422223,0.0420395
 ,-0.0469998,-0.1853245,0.106885,-0.0184958,0.1362066,-0.1614795,-0.074
 1525,-0.0456298,0.1299885,0.0112109,-0.0802225,-0.0656014,-0.0000268,0
 .0539496,0.1278813,0.0386962,0.1564529,0.1373268,0.1364125,-0.0205848,
 -0.0090901,-0.0762948,0.0456518,-0.0774165,0.001882,0.1234298,-0.06209
 33,0.1362048,-0.1298929,0.0649749,-0.0295667,-0.050056,-0.0448504,0.03
 69353,-0.1038867,-0.0006648,-0.101761,0.161901,-0.036135,0.078207,-0.0
 439209,0.1050504,-0.0462581,0.0368566,-0.0790267,0.0653912,0.0263937,0
 .0153178,-0.036299,0.0575219,0.0091014,0.0029774,0.0403565,0.1514826,-
 0.0199913,-0.118029,-0.0466369,-0.0255875,-0.090036,-0.0302408,0.03223
 97,-0.065053,-0.0982,-0.0803356,0.0448937,-0.0272238,0.0994879,-0.0581
 152,0.0987802,-0.0231591,0.0025999,-0.0701559,-0.0055916,0.0963992,-0.
 0606907,-0.0174123,-0.1027256,-0.0082687,0.0308122,-0.0353765,-0.11754
 39,-0.0310551,0.060375,0.0476908,0.0179408,0.002179,-0.0006463,-0.0667
 94,-0.0885019,-0.0049722,-0.1371906,-0.0368961,0.0142609,0.0278726,0.0
 60006,-0.0349127,-0.0346403,0.0540867,0.0550242,0.1568721,-0.0793543,0
 .0610505,0.0153159,-0.0269581,0.0209046,-0.0714607,-0.1066462,-0.03989
 96,-0.1103697,0.0564265\Polar=72.525101,-3.5548876,72.5739329,9.560852
 2,9.1745366,52.4437628\Quadrupole=0.4840737,0.7993877,-1.2834614,-0.56
 82179,1.0100597,0.9790136\PG=C01 [X(C6H8)]\NImag=0\\0.44637890,0.00111
 136,0.53216870,-0.02145154,0.03961024,0.54318859,-0.13957702,0.0515758
 0,-0.02177054,0.49801961,0.05739442,-0.13740247,0.01236950,0.02426559,
 0.72187108,-0.02821636,0.01099622,-0.08184106,0.21030303,0.17781367,0.
 31262396,0.00736660,0.02218364,0.00438715,-0.10597550,-0.01564115,-0.0
 2737213,0.50099772,0.00729210,-0.03240328,-0.00423906,-0.03002541,-0.4
 5133331,-0.13493448,-0.10160181,0.76667622,0.00131259,0.00731373,0.008
 08055,-0.03472591,-0.13418131,-0.11420322,0.17872361,0.14959032,0.2797
 7947,-0.00419497,0.00295380,0.00393112,-0.00120487,-0.02959098,-0.0199
 4909,-0.17290731,-0.00433371,-0.06591783,0.61593183,0.00116609,0.00164
 865,0.00113507,-0.02816016,-0.00892325,-0.01962462,-0.02697402,-0.1119
 4113,-0.03941428,-0.18917347,0.62863200,0.00421661,0.00370428,-0.00451
 679,-0.01410760,-0.01944220,-0.00738273,-0.07698387,-0.02548694,-0.119
 14366,0.12697520,0.19524526,0.30288958,0.00174232,-0.02641537,-0.02064
 556,-0.00024876,0.00921384,0.00367491,-0.04115092,0.00409057,-0.018574
 59,-0.36009390,0.20025373,-0.02696225,0.72372106,-0.00727403,-0.012292
 61,-0.01108686,-0.00040079,-0.00707426,-0.00733264,0.00726548,0.021788
 37,0.00913602,0.18457763,-0.23681659,-0.01421082,-0.15951508,0.5003202
 8,-0.00541529,-0.00934616,-0.00290595,-0.00364055,0.00406695,-0.001095
 83,-0.02165967,0.00506100,0.00185170,-0.02770419,-0.01030420,-0.074601
 54,0.16913883,0.14554820,0.30847331,-0.15933919,-0.03653462,-0.0053063
 7,-0.02732027,-0.00405053,-0.00869251,0.00241185,-0.00265289,0.0038879
 2,-0.00009946,0.02613693,0.01663037,-0.08660526,0.00393774,-0.00837414
 ,0.50302667,-0.03552306,-0.09756391,-0.00657156,0.01889477,0.01371029,
 0.00392622,-0.00386629,-0.00508897,0.00151255,0.01289563,-0.01961918,-
 0.01458531,0.00721301,-0.16517598,-0.05793236,-0.05243828,0.50769186,-
 0.00764407,-0.00125570,-0.07692075,-0.01293149,-0.00361876,0.00015374,
 0.00123398,0.00267983,-0.00438599,0.00510957,-0.00706087,0.00276250,-0
 .00180266,-0.05309717,-0.10703930,0.00621092,-0.04510899,0.51101766,-0
 .02022437,0.01984814,-0.01228895,-0.00413980,-0.00506120,-0.00104322,-
 0.00004004,-0.00007816,0.00008843,0.00127869,-0.00050033,-0.00028439,-
 0.00121467,0.00098905,0.00158059,-0.14046390,0.10157356,-0.07000252,0.
 15523731,-0.01067269,0.01051855,-0.00620469,-0.00240937,-0.00166180,-0
 .00033666,-0.00107953,0.00007242,0.00029580,-0.00157075,-0.00403543,-0
 .00339148,0.01817046,-0.01901721,0.01331143,0.10218400,-0.15848864,0.0
 7560401,-0.11039669,0.17432032,-0.00074960,0.00214439,-0.00214462,0.00
 016031,-0.00098771,0.00074058,0.00000307,0.00012860,0.00062447,-0.0014
 2012,-0.00245833,-0.00193656,0.01371791,-0.01545549,0.00805781,-0.0721
 6128,0.07746328,-0.09727174,0.07687644,-0.08127701,0.10526146,-0.01264
 551,-0.00926242,0.02715400,0.00177219,-0.00009049,0.00004483,-0.000126
 78,0.00049004,-0.00142290,0.00211751,0.00040677,0.00065925,-0.00106267
 ,0.00395431,0.00396079,-0.08349238,-0.02098435,0.08025157,0.00800307,0
 .00369720,-0.01742075,0.09025233,-0.00634655,-0.00467198,0.01212530,0.
 00028095,0.00039673,0.00093753,-0.00115708,0.00035164,-0.00219804,0.00
 053067,-0.00216837,-0.00139066,0.01353063,0.00417127,-0.02641813,-0.01
 719211,-0.05466809,0.04109212,-0.00846910,-0.00486490,0.01988835,0.023
 97786,0.06306168,-0.00110679,-0.00024017,0.00389439,0.00137666,-0.0012
 9997,-0.00048126,0.00169029,0.00203913,0.00036389,-0.00415250,-0.00040
 296,-0.00086263,0.00822438,-0.00515211,-0.01672602,0.08412802,0.048499
 03,-0.23584102,0.00504850,0.00417558,-0.01424314,-0.09378753,-0.046223
 44,0.26016985,0.00136291,0.00066826,0.00017095,0.00016847,0.00046998,0
 .00069749,-0.00054223,0.00627583,-0.00215745,-0.01709771,-0.00949651,-
 0.01621791,-0.23112929,-0.05708475,-0.12053263,0.00489297,0.00157629,0
 .00136452,0.00073214,-0.00035311,-0.00005888,-0.00056192,-0.00078927,0
 .00000018,0.24354201,0.00282805,-0.00321282,-0.00379100,0.00048391,-0.
 00001477,0.00088447,0.00383187,0.00071273,-0.00446226,0.01835142,0.008
 70510,0.00941530,-0.06203744,-0.07259192,-0.05113939,-0.02034531,-0.00
 539106,-0.01163075,-0.00006341,0.00118376,0.00109100,-0.00012725,-0.00
 055967,-0.00088809,0.06064862,0.07238793,0.00002066,-0.00195346,-0.001
 01177,0.00080614,-0.00066363,-0.00087510,-0.00239434,-0.00352407,0.008
 02995,-0.00235664,-0.00169126,0.00443929,-0.12196068,-0.05110245,-0.11
 965761,-0.01260722,-0.00103676,-0.00211304,0.00043095,-0.00029517,0.00
 073425,0.00075893,0.00035236,-0.00048907,0.13461013,0.05649588,0.11559
 715,0.00324863,-0.00016578,-0.00460900,0.00573200,-0.00334175,-0.00039
 383,-0.19103235,0.13636548,-0.04520237,-0.01384314,0.01761448,-0.00271
 656,-0.00190959,-0.00248877,-0.00342790,0.00050018,-0.00061148,-0.0000
 9650,0.00009681,0.00009942,0.00005717,-0.00006929,0.00003463,0.0000464
 5,-0.00106148,0.00055773,0.00026441,0.19874454,-0.00100056,-0.00206322
 ,-0.00569446,0.02404192,-0.01831879,0.00687460,0.13461121,-0.18022953,
 0.02931118,-0.00839313,0.00883393,-0.00252936,-0.00145711,-0.00017901,
 -0.00126544,-0.00033733,-0.00007046,-0.00003195,0.00011892,0.00007483,
 0.00006385,0.00001606,0.00001243,-0.00000638,-0.00058053,0.00012099,0.
 00008305,-0.14681909,0.19183483,-0.00499876,-0.00350286,0.00807168,0.0
 0809261,-0.00862591,0.00677993,-0.04591421,0.02950089,-0.05435762,-0.0
 1054438,0.01265857,0.00032359,-0.00292412,-0.00234451,-0.00163559,-0.0
 0013041,0.00055349,-0.00033102,-0.00005383,0.00002726,-0.00004036,0.00
 008155,0.00008220,0.00008862,-0.00086950,0.00039200,0.00042295,0.05217
 461,-0.02968481,0.04553789,-0.01262769,-0.00620073,-0.00878798,-0.2303
 8672,-0.06185017,-0.12614929,0.00140581,0.00259023,-0.00217716,0.00392
 040,0.00040599,-0.00427224,0.00066860,0.00003019,0.00095286,-0.0002192
 6,0.00448446,-0.00157479,-0.00092241,-0.00052746,-0.00015049,-0.000418
 78,-0.00020080,-0.00000628,-0.00025111,-0.00046067,0.00056411,-0.00075
 724,-0.00144346,0.00325435,0.24003972,0.01715220,0.00931738,0.00934382
 ,-0.05676079,-0.07692830,-0.04216239,-0.02622195,-0.00452437,-0.017657
 28,0.00263751,-0.00409415,-0.00337200,0.00021152,-0.00072015,0.0000310
 5,0.00223077,-0.00300648,0.00147296,0.00135722,0.00062640,0.00005025,-
 0.00012129,0.00005571,-0.00009624,-0.00026199,0.00003286,0.00031855,-0
 .00076309,0.00055199,0.00193630,0.06291549,0.07827865,-0.00214204,-0.0
 0474413,0.00069919,-0.12542090,-0.04253303,-0.11606380,-0.01110324,-0.
 00419693,-0.00083475,-0.00294804,-0.00379160,0.00837419,-0.00015516,0.
 00110252,-0.00066984,-0.00094392,-0.00013538,0.00036406,-0.00061005,-0
 .00043028,0.00012922,0.00067435,0.00027883,0.00023512,0.00041518,0.000
 71221,-0.00113665,0.00349249,0.00182373,-0.00486826,0.13824264,0.05095
 917,0.11320872,-0.04782158,0.00783503,0.00774538,-0.00067132,0.0167498
 5,0.01862530,-0.00361938,0.00266160,-0.00177578,-0.00046491,-0.0007605
 1,0.00021836,-0.00646316,-0.00040621,0.00001427,0.00037933,-0.02409697
 ,-0.02166645,0.00016486,0.00062581,-0.00015979,0.00213082,0.00026537,0
 .00011951,0.00026681,-0.00132935,-0.00121930,0.00071382,0.00119485,-0.
 00074220,0.00091106,-0.00049088,-0.00013198,0.05486508,0.00765414,-0.1
 7101553,-0.12825815,0.00109357,-0.01864641,-0.01589718,0.00388069,-0.0
 0056247,0.00170938,0.00023143,0.00062215,-0.00014875,-0.00317379,0.000
 39469,-0.00024513,-0.00020945,-0.00985691,-0.00852639,-0.00035056,0.00
 005395,-0.00003829,0.00052310,0.00030724,0.00051837,0.00022899,-0.0005
 5470,-0.00048421,-0.00052784,-0.00123989,0.00037781,-0.00027155,0.0011
 2251,0.00069803,-0.00856540,0.18855206,0.00770562,-0.13116598,-0.17738
 717,-0.00131789,0.00914680,0.00714366,-0.00140097,0.00041331,-0.000511
 45,0.00035199,0.00004147,0.00049961,-0.00059684,0.00068847,0.00100746,
 0.00074460,-0.00068315,-0.00237287,-0.00032150,-0.00009921,-0.00026068
 ,-0.00011492,0.00029862,0.00138983,-0.00000860,-0.00016813,0.00012111,
 0.00012103,0.00047728,-0.00024243,0.00071797,-0.00051639,0.00061658,-0
 .00770142,0.14055389,0.19140194,-0.06340549,-0.02788484,0.05147877,0.0
 0765732,0.01135634,-0.01857855,-0.00045756,0.00192673,-0.00009641,-0.0
 0015883,-0.00026465,-0.00273793,0.00112784,0.00093398,0.00083722,-0.01
 151724,-0.01269522,0.02647894,0.00155066,0.00070967,0.00036914,-0.0058
 2446,-0.00371835,-0.00128325,-0.00020729,-0.00049693,0.00058937,-0.000
 90306,-0.00043925,0.00173379,-0.00098938,-0.00056151,0.00069385,-0.000
 58860,-0.00052532,0.00176405,0.07369058,-0.03373586,-0.09381743,0.0909
 4405,-0.00209018,-0.01693078,0.01974939,0.00315048,0.00047217,0.001332
 31,-0.00030202,0.00028206,0.00023642,0.00050323,0.00061534,-0.00026149
 ,-0.00488889,-0.00549070,0.01197446,0.00084711,0.00124676,-0.00045632,
 -0.00256814,-0.00019121,-0.00031883,-0.00015683,-0.00017861,0.00025734
 ,0.00081431,0.00024507,-0.00160907,0.00047750,-0.00042604,0.00033701,0
 .00628350,0.01082690,-0.01900026,0.03171812,0.10341155,0.05813950,0.08
 856274,-0.21677857,-0.00303381,0.00793077,-0.00434397,-0.00218214,-0.0
 0294508,-0.00092810,0.00277038,0.00011119,0.00046551,-0.00019104,0.002
 12079,-0.00005552,-0.00013830,-0.00183361,0.00358484,0.00075035,-0.000
 38244,0.00103046,-0.00079744,-0.00086623,0.00168531,-0.00006367,-0.000
 00368,0.00025795,-0.00015029,0.00001539,0.00016752,-0.00047688,0.00065
 721,-0.00019524,0.00671521,0.00979042,-0.02134328,-0.06136110,-0.10315
 735,0.23638173,-0.00026355,0.00028774,-0.00000744,-0.00382533,0.000176
 24,-0.00295057,0.00367010,-0.02300061,-0.01196216,-0.05318333,0.009345
 66,-0.00441705,0.00261841,0.02548124,0.01426979,-0.00215405,0.00357793
 ,-0.00493101,-0.00005835,0.00152305,0.00093688,-0.00007413,-0.00074685
 ,-0.00029763,-0.00011428,-0.00184125,0.00249348,0.00054018,0.00048752,
 0.00084050,-0.00037298,-0.00132322,-0.00006318,0.00019718,0.00001198,0
 .00005689,0.00002551,-0.00005233,0.00001924,0.05299463,-0.00004562,0.0
 0078998,0.00031780,-0.00078983,0.00125604,-0.00089412,0.00161845,-0.00
 399049,-0.00228812,0.01118595,-0.26112580,-0.12404375,-0.00058819,-0.0
 1342220,-0.01110632,0.00415997,0.00301820,-0.00249283,0.00018544,-0.00
 002902,-0.00015658,0.00008859,-0.00123247,-0.00060392,-0.00114498,-0.0
 0063982,0.00324383,-0.00076823,0.00042683,0.00023863,0.00005097,-0.000
 28602,-0.00008014,0.00003331,-0.00000360,0.00001329,-0.00005877,-0.000
 06509,-0.00000010,-0.01392709,0.27530345,0.00032947,-0.00012313,-0.000
 42773,-0.00379006,0.00002484,-0.00115490,0.00297247,-0.01408653,-0.004
 36524,-0.00414547,-0.12444345,-0.11131037,-0.00094312,0.00118607,0.004
 99694,-0.00324768,-0.00406746,0.00839293,-0.00017082,-0.00099712,-0.00
 068114,-0.00004172,0.00204119,0.00081612,0.00265021,0.00309243,-0.0043
 1941,0.00044029,0.00056332,0.00008310,-0.00013683,-0.00096502,0.000141
 46,-0.00004111,-0.00004981,-0.00006230,0.00011210,-0.00002765,0.000071
 35,0.00601226,0.13785232,0.10781919\\-0.00000205,-0.00000240,0.0000018
 6,0.00000362,0.00000403,-0.00000275,0.00000681,0.00000332,0.00000318,-
 0.00000733,-0.00000223,-0.00000297,-0.00000496,-0.00000124,0.00000330,
 0.00000285,0.00000072,-0.00000218,-0.00000069,0.00000109,0.00000226,0.
 00000148,-0.00000244,-0.00000086,-0.00000091,-0.00000094,0.00000178,0.
 00000087,0.00000075,-0.00000064,0.00000103,0.00000069,-0.00000183,-0.0
 0000072,0.00000185,-0.00000169,0.00000101,-0.00000280,-0.00000016,-0.0
 0000103,-0.00000042,0.00000071\\\@
 The archive entry for this job was punched.


     "IF I COULD JUST GET IT ON PAPER"
 LIFE AND INK, THEY RUN OUT AT THE SAME TIME,
 OR SO SAID MY OLD FRIEND THE SQUID.
     -- JIMMY BUFFETT, 1981
 Job cpu time:       0 days  0 hours 49 minutes 59.6 seconds.
 Elapsed time:       0 days  0 hours  6 minutes 15.6 seconds.
 File lengths (MBytes):  RWF=    101 Int=      0 D2E=      0 Chk=      8 Scr=      1
 Normal termination of Gaussian 16 at Sun Apr  3 20:04:59 2022.
