 Entering Gaussian System, Link 0=g16
 Input=Mol_02.com
 Output=Mol_02.log
 Initial command:
 /home/saurabh/g16/l1.exe "/scratch/saurabh/PBS_8053881.helios/Gau-33336.inp" -scrdir="/scratch/saurabh/PBS_8053881.helios/"
 Entering Link 1 = /home/saurabh/g16/l1.exe PID=     33359.
  
 Copyright (c) 1988-2019, Gaussian, Inc.  All Rights Reserved.
  
 This is part of the Gaussian(R) 16 program.  It is based on
 the Gaussian(R) 09 system (copyright 2009, Gaussian, Inc.),
 the Gaussian(R) 03 system (copyright 2003, Gaussian, Inc.),
 the Gaussian(R) 98 system (copyright 1998, Gaussian, Inc.),
 the Gaussian(R) 94 system (copyright 1995, Gaussian, Inc.),
 the Gaussian 92(TM) system (copyright 1992, Gaussian, Inc.),
 the Gaussian 90(TM) system (copyright 1990, Gaussian, Inc.),
 the Gaussian 88(TM) system (copyright 1988, Gaussian, Inc.),
 the Gaussian 86(TM) system (copyright 1986, Carnegie Mellon
 University), and the Gaussian 82(TM) system (copyright 1983,
 Carnegie Mellon University). Gaussian is a federally registered
 trademark of Gaussian, Inc.
  
 This software contains proprietary and confidential information,
 including trade secrets, belonging to Gaussian, Inc.
  
 This software is provided under written license and may be
 used, copied, transmitted, or stored only in accord with that
 written license.
  
 The following legend is applicable only to US Government
 contracts under FAR:
  
                    RESTRICTED RIGHTS LEGEND
  
 Use, reproduction and disclosure by the US Government is
 subject to restrictions as set forth in subparagraphs (a)
 and (c) of the Commercial Computer Software - Restricted
 Rights clause in FAR 52.227-19.
  
 Gaussian, Inc.
 340 Quinnipiac St., Bldg. 40, Wallingford CT 06492
  
  
 ---------------------------------------------------------------
 Warning -- This program may not be used in any manner that
 competes with the business of Gaussian, Inc. or will provide
 assistance to any competitor of Gaussian, Inc.  The licensee
 of this program is prohibited from giving any competitor of
 Gaussian, Inc. access to this program.  By using this program,
 the user acknowledges that Gaussian, Inc. is engaged in the
 business of creating and licensing software in the field of
 computational chemistry and represents and warrants to the
 licensee that it is not a competitor of Gaussian, Inc. and that
 it will not use this program in any manner prohibited above.
 ---------------------------------------------------------------
  

 Cite this work as:
 Gaussian 16, Revision C.01,
 M. J. Frisch, G. W. Trucks, H. B. Schlegel, G. E. Scuseria, 
 M. A. Robb, J. R. Cheeseman, G. Scalmani, V. Barone, 
 G. A. Petersson, H. Nakatsuji, X. Li, M. Caricato, A. V. Marenich, 
 J. Bloino, B. G. Janesko, R. Gomperts, B. Mennucci, H. P. Hratchian, 
 J. V. Ortiz, A. F. Izmaylov, J. L. Sonnenberg, D. Williams-Young, 
 F. Ding, F. Lipparini, F. Egidi, J. Goings, B. Peng, A. Petrone, 
 T. Henderson, D. Ranasinghe, V. G. Zakrzewski, J. Gao, N. Rega, 
 G. Zheng, W. Liang, M. Hada, M. Ehara, K. Toyota, R. Fukuda, 
 J. Hasegawa, M. Ishida, T. Nakajima, Y. Honda, O. Kitao, H. Nakai, 
 T. Vreven, K. Throssell, J. A. Montgomery, Jr., J. E. Peralta, 
 F. Ogliaro, M. J. Bearpark, J. J. Heyd, E. N. Brothers, K. N. Kudin, 
 V. N. Staroverov, T. A. Keith, R. Kobayashi, J. Normand, 
 K. Raghavachari, A. P. Rendell, J. C. Burant, S. S. Iyengar, 
 J. Tomasi, M. Cossi, J. M. Millam, M. Klene, C. Adamo, R. Cammi, 
 J. W. Ochterski, R. L. Martin, K. Morokuma, O. Farkas, 
 J. B. Foresman, and D. J. Fox, Gaussian, Inc., Wallingford CT, 2019.
 
 ******************************************
 Gaussian 16:  EM64L-G16RevC.01  3-Jul-2019
                 3-Apr-2022 
 ******************************************
 %mem=8gb
 %nproc=8
 Will use up to    8 processors via shared memory.
 %chk=Mol_02.chk
 ----------------------------------------------------------------------
 #p B3LYP/cc-PVTZ scf(verytight, maxcycles=1000) opt(calcfc, maxcyc=100
 0) freq(hpmodes) int(grid=ultrafine)
 ----------------------------------------------------------------------
 1/6=1000,10=4,18=20,19=15,26=4,38=1/1,3;
 2/9=110,12=2,17=6,18=5,40=1/2;
 3/5=16,6=1,11=2,25=1,30=1,71=2,74=-5,75=-5,140=1/1,2,3;
 4//1;
 5/5=2,7=1000,17=3,38=5/2;
 8/6=4,10=90,11=11/1;
 11/6=1,8=1,9=11,15=111,16=1/1,2,10;
 10/6=1,13=1/2;
 6/7=2,8=2,9=2,10=2,28=1/1;
 7/10=1,25=1/1,2,3,16;
 1/6=1000,10=4,18=20,19=15,26=4/3(2);
 2/9=110/2;
 99//99;
 2/9=110/2;
 3/5=16,6=1,11=2,25=1,30=1,71=1,74=-5,75=-5/1,2,3;
 4/5=5,16=3,69=1/1;
 5/5=2,7=1000,17=3,38=5/2;
 7//1,2,3,16;
 1/6=1000,18=20,19=15,26=4/3(-5);
 2/9=110/2;
 6/7=2,8=2,9=2,10=2,19=2,28=1/1;
 99/9=1/99;
 Leave Link    1 at Sun Apr  3 19:48:08 2022, MaxMem=  1073741824 cpu:               0.5 elap:               0.1
 (Enter /home/saurabh/g16/l101.exe)
 ------
 Mol_02
 ------
 Symbolic Z-matrix:
 Charge =  0 Multiplicity = 2
 C                    -0.01788   0.0971   -0.3294 
 C                    -1.21937   1.0064   -0.45274 
 C                    -1.1174    2.3492   -0.431 
 C                     0.19995   3.06566  -0.22588 
 C                     1.30201   2.11813   0.29955 
 C                     1.31394   0.83959  -0.52464 
 H                     2.15113   0.17211  -0.22781 
 H                     1.44976   1.11167  -1.59487 
 H                     1.09394   1.84327   1.35788 
 H                     2.2874    2.63061   0.26932 
 H                    -2.01396   2.94539  -0.57238 
 H                    -2.20155   0.55529  -0.55525 
 H                    -0.06591  -0.70385  -1.09754 
 H                    -0.06654  -0.37937   0.6732 
 O                     0.5683    3.64249  -1.45657 
 H                     0.03727   3.85134   0.54983 
 O                     1.36789   4.65528  -1.177 
 
 ITRead=  0  0  0  0  0  0  0  0  0  0  0  0  0  0  0  0  0
 MicOpt= -1 -1 -1 -1 -1 -1 -1 -1 -1 -1 -1 -1 -1 -1 -1 -1 -1
 NAtoms=     17 NQM=       17 NQMF=       0 NMMI=      0 NMMIF=      0
                NMic=       0 NMicF=      0.
                    Isotopes and Nuclear Properties:
 (Nuclear quadrupole moments (NQMom) in fm**2, nuclear magnetic moments (NMagM)
  in nuclear magnetons)

  Atom         1           2           3           4           5           6           7           8           9          10
 IAtWgt=          12          12          12          12          12          12           1           1           1           1
 AtmWgt=  12.0000000  12.0000000  12.0000000  12.0000000  12.0000000  12.0000000   1.0078250   1.0078250   1.0078250   1.0078250
 NucSpn=           0           0           0           0           0           0           1           1           1           1
 AtZEff=  -0.0000000  -0.0000000  -0.0000000  -0.0000000  -0.0000000  -0.0000000  -0.0000000  -0.0000000  -0.0000000  -0.0000000
 NQMom=    0.0000000   0.0000000   0.0000000   0.0000000   0.0000000   0.0000000   0.0000000   0.0000000   0.0000000   0.0000000
 NMagM=    0.0000000   0.0000000   0.0000000   0.0000000   0.0000000   0.0000000   2.7928460   2.7928460   2.7928460   2.7928460
 AtZNuc=   6.0000000   6.0000000   6.0000000   6.0000000   6.0000000   6.0000000   1.0000000   1.0000000   1.0000000   1.0000000

  Atom        11          12          13          14          15          16          17
 IAtWgt=           1           1           1           1          16           1          16
 AtmWgt=   1.0078250   1.0078250   1.0078250   1.0078250  15.9949146   1.0078250  15.9949146
 NucSpn=           1           1           1           1           0           1           0
 AtZEff=  -0.0000000  -0.0000000  -0.0000000  -0.0000000  -0.0000000  -0.0000000  -0.0000000
 NQMom=    0.0000000   0.0000000   0.0000000   0.0000000   0.0000000   0.0000000   0.0000000
 NMagM=    2.7928460   2.7928460   2.7928460   2.7928460   0.0000000   2.7928460   0.0000000
 AtZNuc=   1.0000000   1.0000000   1.0000000   1.0000000   8.0000000   1.0000000   8.0000000
 Leave Link  101 at Sun Apr  3 19:48:09 2022, MaxMem=  1073741824 cpu:               2.2 elap:               0.3
 (Enter /home/saurabh/g16/l103.exe)

 GradGradGradGradGradGradGradGradGradGradGradGradGradGradGradGradGradGrad
 Berny optimization.
 Initialization pass.
                           ----------------------------
                           !    Initial Parameters    !
                           ! (Angstroms and Degrees)  !
 --------------------------                            --------------------------
 ! Name  Definition              Value          Derivative Info.                !
 --------------------------------------------------------------------------------
 ! R1    R(1,2)                  1.5118         calculate D2E/DX2 analytically  !
 ! R2    R(1,6)                  1.5373         calculate D2E/DX2 analytically  !
 ! R3    R(1,13)                 1.1108         calculate D2E/DX2 analytically  !
 ! R4    R(1,14)                 1.1111         calculate D2E/DX2 analytically  !
 ! R5    R(2,3)                  1.3468         calculate D2E/DX2 analytically  !
 ! R6    R(2,12)                 1.0857         calculate D2E/DX2 analytically  !
 ! R7    R(3,4)                  1.5135         calculate D2E/DX2 analytically  !
 ! R8    R(3,11)                 1.0859         calculate D2E/DX2 analytically  !
 ! R9    R(4,5)                  1.5455         calculate D2E/DX2 analytically  !
 ! R10   R(4,15)                 1.4082         calculate D2E/DX2 analytically  !
 ! R11   R(4,16)                 1.116          calculate D2E/DX2 analytically  !
 ! R12   R(5,6)                  1.5212         calculate D2E/DX2 analytically  !
 ! R13   R(5,9)                  1.1131         calculate D2E/DX2 analytically  !
 ! R14   R(5,10)                 1.1111         calculate D2E/DX2 analytically  !
 ! R15   R(6,7)                  1.1111         calculate D2E/DX2 analytically  !
 ! R16   R(6,8)                  1.1126         calculate D2E/DX2 analytically  !
 ! R17   R(15,17)                1.3203         calculate D2E/DX2 analytically  !
 ! A1    A(2,1,6)              112.8087         calculate D2E/DX2 analytically  !
 ! A2    A(2,1,13)             110.0537         calculate D2E/DX2 analytically  !
 ! A3    A(2,1,14)             107.2607         calculate D2E/DX2 analytically  !
 ! A4    A(6,1,13)             107.3322         calculate D2E/DX2 analytically  !
 ! A5    A(6,1,14)             111.0795         calculate D2E/DX2 analytically  !
 ! A6    A(13,1,14)            108.2334         calculate D2E/DX2 analytically  !
 ! A7    A(1,2,3)              122.5592         calculate D2E/DX2 analytically  !
 ! A8    A(1,2,12)             118.4745         calculate D2E/DX2 analytically  !
 ! A9    A(3,2,12)             118.9647         calculate D2E/DX2 analytically  !
 ! A10   A(2,3,4)              122.6852         calculate D2E/DX2 analytically  !
 ! A11   A(2,3,11)             118.8655         calculate D2E/DX2 analytically  !
 ! A12   A(4,3,11)             118.4481         calculate D2E/DX2 analytically  !
 ! A13   A(3,4,5)              112.1181         calculate D2E/DX2 analytically  !
 ! A14   A(3,4,15)             107.6453         calculate D2E/DX2 analytically  !
 ! A15   A(3,4,16)             107.4922         calculate D2E/DX2 analytically  !
 ! A16   A(5,4,15)             111.2077         calculate D2E/DX2 analytically  !
 ! A17   A(5,4,16)             107.4138         calculate D2E/DX2 analytically  !
 ! A18   A(15,4,16)            110.9288         calculate D2E/DX2 analytically  !
 ! A19   A(4,5,6)              109.6752         calculate D2E/DX2 analytically  !
 ! A20   A(4,5,9)              109.96           calculate D2E/DX2 analytically  !
 ! A21   A(4,5,10)             109.8994         calculate D2E/DX2 analytically  !
 ! A22   A(6,5,9)              108.0037         calculate D2E/DX2 analytically  !
 ! A23   A(6,5,10)             111.467          calculate D2E/DX2 analytically  !
 ! A24   A(9,5,10)             107.7918         calculate D2E/DX2 analytically  !
 ! A25   A(1,6,5)              109.2897         calculate D2E/DX2 analytically  !
 ! A26   A(1,6,7)              109.1904         calculate D2E/DX2 analytically  !
 ! A27   A(1,6,8)              110.2458         calculate D2E/DX2 analytically  !
 ! A28   A(5,6,7)              111.4731         calculate D2E/DX2 analytically  !
 ! A29   A(5,6,8)              108.4569         calculate D2E/DX2 analytically  !
 ! A30   A(7,6,8)              108.174          calculate D2E/DX2 analytically  !
 ! A31   A(4,15,17)            106.7124         calculate D2E/DX2 analytically  !
 ! D1    D(6,1,2,3)            -14.0418         calculate D2E/DX2 analytically  !
 ! D2    D(6,1,2,12)           166.424          calculate D2E/DX2 analytically  !
 ! D3    D(13,1,2,3)          -133.88           calculate D2E/DX2 analytically  !
 ! D4    D(13,1,2,12)           46.5858         calculate D2E/DX2 analytically  !
 ! D5    D(14,1,2,3)           108.5901         calculate D2E/DX2 analytically  !
 ! D6    D(14,1,2,12)          -70.9441         calculate D2E/DX2 analytically  !
 ! D7    D(2,1,6,5)             46.7998         calculate D2E/DX2 analytically  !
 ! D8    D(2,1,6,7)            168.9724         calculate D2E/DX2 analytically  !
 ! D9    D(2,1,6,8)            -72.3176         calculate D2E/DX2 analytically  !
 ! D10   D(13,1,6,5)           168.1941         calculate D2E/DX2 analytically  !
 ! D11   D(13,1,6,7)           -69.6332         calculate D2E/DX2 analytically  !
 ! D12   D(13,1,6,8)            49.0768         calculate D2E/DX2 analytically  !
 ! D13   D(14,1,6,5)           -73.6695         calculate D2E/DX2 analytically  !
 ! D14   D(14,1,6,7)            48.5032         calculate D2E/DX2 analytically  !
 ! D15   D(14,1,6,8)           167.2132         calculate D2E/DX2 analytically  !
 ! D16   D(1,2,3,4)             -2.5176         calculate D2E/DX2 analytically  !
 ! D17   D(1,2,3,11)           177.083          calculate D2E/DX2 analytically  !
 ! D18   D(12,2,3,4)           177.0144         calculate D2E/DX2 analytically  !
 ! D19   D(12,2,3,11)           -3.385          calculate D2E/DX2 analytically  !
 ! D20   D(2,3,4,5)            -14.427          calculate D2E/DX2 analytically  !
 ! D21   D(2,3,4,15)           108.1916         calculate D2E/DX2 analytically  !
 ! D22   D(2,3,4,16)          -132.2532         calculate D2E/DX2 analytically  !
 ! D23   D(11,3,4,5)           165.9708         calculate D2E/DX2 analytically  !
 ! D24   D(11,3,4,15)          -71.4106         calculate D2E/DX2 analytically  !
 ! D25   D(11,3,4,16)           48.1446         calculate D2E/DX2 analytically  !
 ! D26   D(3,4,5,6)             47.3315         calculate D2E/DX2 analytically  !
 ! D27   D(3,4,5,9)            -71.2939         calculate D2E/DX2 analytically  !
 ! D28   D(3,4,5,10)           170.2038         calculate D2E/DX2 analytically  !
 ! D29   D(15,4,5,6)           -73.2443         calculate D2E/DX2 analytically  !
 ! D30   D(15,4,5,9)           168.1304         calculate D2E/DX2 analytically  !
 ! D31   D(15,4,5,10)           49.628          calculate D2E/DX2 analytically  !
 ! D32   D(16,4,5,6)           165.2043         calculate D2E/DX2 analytically  !
 ! D33   D(16,4,5,9)            46.579          calculate D2E/DX2 analytically  !
 ! D34   D(16,4,5,10)          -71.9234         calculate D2E/DX2 analytically  !
 ! D35   D(3,4,15,17)          155.6853         calculate D2E/DX2 analytically  !
 ! D36   D(5,4,15,17)          -81.1371         calculate D2E/DX2 analytically  !
 ! D37   D(16,4,15,17)          38.3405         calculate D2E/DX2 analytically  !
 ! D38   D(4,5,6,1)            -63.9924         calculate D2E/DX2 analytically  !
 ! D39   D(4,5,6,7)            175.2163         calculate D2E/DX2 analytically  !
 ! D40   D(4,5,6,8)             56.2278         calculate D2E/DX2 analytically  !
 ! D41   D(9,5,6,1)             55.8357         calculate D2E/DX2 analytically  !
 ! D42   D(9,5,6,7)            -64.9556         calculate D2E/DX2 analytically  !
 ! D43   D(9,5,6,8)            176.0559         calculate D2E/DX2 analytically  !
 ! D44   D(10,5,6,1)           174.0677         calculate D2E/DX2 analytically  !
 ! D45   D(10,5,6,7)            53.2764         calculate D2E/DX2 analytically  !
 ! D46   D(10,5,6,8)           -65.7121         calculate D2E/DX2 analytically  !
 --------------------------------------------------------------------------------
 Trust Radius=3.00D-01 FncErr=1.00D-07 GrdErr=1.00D-06 EigMax=2.50D+02 EigMin=1.00D-04
 Number of steps in this run=    102 maximum allowed number of steps=    102.
 GradGradGradGradGradGradGradGradGradGradGradGradGradGradGradGradGradGrad

 Leave Link  103 at Sun Apr  3 19:48:09 2022, MaxMem=  1073741824 cpu:               0.2 elap:               0.1
 (Enter /home/saurabh/g16/l202.exe)
                          Input orientation:                          
 ---------------------------------------------------------------------
 Center     Atomic      Atomic             Coordinates (Angstroms)
 Number     Number       Type             X           Y           Z
 ---------------------------------------------------------------------
      1          6           0       -0.017876    0.097095   -0.329405
      2          6           0       -1.219369    1.006397   -0.452745
      3          6           0       -1.117405    2.349204   -0.431004
      4          6           0        0.199955    3.065660   -0.225878
      5          6           0        1.302013    2.118125    0.299554
      6          6           0        1.313938    0.839587   -0.524642
      7          1           0        2.151134    0.172114   -0.227811
      8          1           0        1.449761    1.111669   -1.594871
      9          1           0        1.093940    1.843268    1.357878
     10          1           0        2.287400    2.630613    0.269319
     11          1           0       -2.013964    2.945387   -0.572377
     12          1           0       -2.201555    0.555295   -0.555250
     13          1           0       -0.065913   -0.703847   -1.097540
     14          1           0       -0.066543   -0.379374    0.673204
     15          8           0        0.568299    3.642494   -1.456575
     16          1           0        0.037272    3.851339    0.549826
     17          8           0        1.367895    4.655283   -1.177002
 ---------------------------------------------------------------------
                    Distance matrix (angstroms):
                    1          2          3          4          5
     1  C    0.000000
     2  C    1.511829   0.000000
     3  C    2.508242   1.346849   0.000000
     4  C    2.978346   2.511278   1.513546   0.000000
     5  C    2.494445   2.856442   2.537852   1.545455   0.000000
     6  C    1.537251   2.539811   2.863413   2.507114   1.521217
     7  H    2.172684   3.479500   3.932474   3.489945   2.187712
     8  H    2.187401   2.905132   3.078379   2.693369   2.150263
     9  H    2.670614   3.054523   2.888964   2.191286   1.113054
    10  H    3.477281   3.931525   3.487455   2.189045   1.111102
    11  H    3.486570   2.098899   1.085928   2.244095   3.527085
    12  H    2.242634   1.085674   2.099745   3.489652   3.930409
    13  H    1.110787   2.161285   3.297123   3.878100   3.433165
    14  H    1.111133   2.125354   3.125495   3.570382   2.872292
    15  O    3.766160   3.339527   2.359236   1.408201   2.438447
    16  H    3.856220   3.267720   2.133475   1.116008   2.160147
    17  O    4.838994   4.531320   3.471488   2.189891   2.936278
                    6          7          8          9         10
     6  C    0.000000
     7  H    1.111093   0.000000
     8  H    1.112595   1.800984   0.000000
     9  H    2.144680   2.534723   3.062772   0.000000
    10  H    2.187642   2.511956   2.546377   1.797003   0.000000
    11  H    3.938477   5.015757   4.050359   3.820945   4.394232
    12  H    3.527102   4.381774   3.836987   4.022340   5.013739
    13  H    2.148113   2.537525   2.416755   3.723188   4.304069
    14  H    2.196913   2.456432   3.109108   2.599161   3.842420
    15  O    3.046434   4.007339   2.683500   3.381517   2.637787
    16  H    3.443110   4.313911   3.755082   2.408702   2.575254
    17  O    3.871437   4.649004   3.569106   3.795800   2.652664
                   11         12         13         14         15
    11  H    0.000000
    12  H    2.397504   0.000000
    13  H    4.169845   2.537810   0.000000
    14  H    4.049439   2.634574   1.800227   0.000000
    15  O    2.817064   4.244441   4.407018   4.595041   0.000000
    16  H    2.507521   4.134906   4.845016   4.233785   2.085965
    17  O    3.837484   5.471513   5.548188   5.552355   1.320324
                   16         17
    16  H    0.000000
    17  O    2.323536   0.000000
 Stoichiometry    C6H9O2(2)
 Framework group  C1[X(C6H9O2)]
 Deg. of freedom    45
 Full point group                 C1      NOp   1
 Largest Abelian subgroup         C1      NOp   1
 Largest concise Abelian subgroup C1      NOp   1
                         Standard orientation:                         
 ---------------------------------------------------------------------
 Center     Atomic      Atomic             Coordinates (Angstroms)
 Number     Number       Type             X           Y           Z
 ---------------------------------------------------------------------
      1          6           0       -2.128522   -0.290495   -0.225776
      2          6           0       -1.624150    1.126923   -0.076903
      3          6           0       -0.341579    1.412597    0.218739
      4          6           0        0.694571    0.341294    0.482415
      5          6           0        0.051638   -1.043095    0.724357
      6          6           0       -0.991542   -1.317835   -0.348207
      7          1           0       -1.412613   -2.341659   -0.253283
      8          1           0       -0.502972   -1.234522   -1.344312
      9          1           0       -0.459503   -1.057094    1.713007
     10          1           0        0.837845   -1.828113    0.737489
     11          1           0       -0.033308    2.452846    0.264456
     12          1           0       -2.328100    1.943161   -0.206899
     13          1           0       -2.753691   -0.378302   -1.139724
     14          1           0       -2.769299   -0.506736    0.655848
     15          8           0        1.568099    0.311336   -0.621706
     16          1           0        1.239596    0.623896    1.414379
     17          8           0        2.709344   -0.192561   -0.189383
 ---------------------------------------------------------------------
 Rotational constants (GHZ):           3.9632431           1.6065355           1.3070632
 Leave Link  202 at Sun Apr  3 19:48:09 2022, MaxMem=  1073741824 cpu:               0.2 elap:               0.1
 (Enter /home/saurabh/g16/l301.exe)
 Standard basis: CC-pVTZ (5D, 7F)
 Ernie: Thresh=  0.10000D-02 Tol=  0.10000D-05 Strict=F.
 Ernie:  24 primitive shells out of 280 were deleted.
 There are   415 symmetry adapted cartesian basis functions of A   symmetry.
 There are   366 symmetry adapted basis functions of A   symmetry.
   366 basis functions,   569 primitive gaussians,   415 cartesian basis functions
    31 alpha electrons       30 beta electrons
       nuclear repulsion energy       380.1984126517 Hartrees.
 IExCor=  402 DFT=T Ex+Corr=B3LYP ExCW=0 ScaHFX=  0.200000
 ScaDFX=  0.800000  0.720000  1.000000  0.810000 ScalE2=  1.000000  1.000000
 IRadAn=      5 IRanWt=     -1 IRanGd=            0 ICorTp=0 IEmpDi=  4
 NAtoms=   17 NActive=   17 NUniq=   17 SFac= 1.00D+00 NAtFMM=   60 NAOKFM=F Big=F
 Integral buffers will be    131072 words long.
 Raffenetti 2 integral format.
 Two-electron integral symmetry is turned on.
 Leave Link  301 at Sun Apr  3 19:48:10 2022, MaxMem=  1073741824 cpu:               0.9 elap:               0.2
 (Enter /home/saurabh/g16/l302.exe)
 NPDir=0 NMtPBC=     1 NCelOv=     1 NCel=       1 NClECP=     1 NCelD=      1
         NCelK=      1 NCelE2=     1 NClLst=     1 CellRange=     0.0.
 One-electron integrals computed using PRISM.
 One-electron integral symmetry used in STVInt
 NBasis=   366 RedAO= T EigKep=  1.52D-04  NBF=   366
 NBsUse=   366 1.00D-06 EigRej= -1.00D+00 NBFU=   366
 Precomputing XC quadrature grid using
 IXCGrd= 4 IRadAn=           5 IRanWt=          -1 IRanGd=           0 AccXCQ= 0.00D+00.
 Generated NRdTot=       0 NPtTot=           0 NUsed=           0 NTot=          32
 NSgBfM=   415   415   415   415   415 MxSgAt=    17 MxSgA2=    17.
 Leave Link  302 at Sun Apr  3 19:48:10 2022, MaxMem=  1073741824 cpu:               3.9 elap:               0.5
 (Enter /home/saurabh/g16/l303.exe)
 DipDrv:  MaxL=1.
 Leave Link  303 at Sun Apr  3 19:48:11 2022, MaxMem=  1073741824 cpu:               0.7 elap:               0.2
 (Enter /home/saurabh/g16/l401.exe)
 ExpMin= 1.03D-01 ExpMax= 1.53D+04 ExpMxC= 5.22D+02 IAcc=3 IRadAn=         5 AccDes= 0.00D+00
 Harris functional with IExCor=  402 and IRadAn=       5 diagonalized for initial guess.
 HarFok:  IExCor=  402 AccDes= 0.00D+00 IRadAn=         5 IDoV= 1 UseB2=F ITyADJ=14
 ICtDFT=  3500011 ScaDFX=  1.000000  1.000000  1.000000  1.000000
 FoFCou: FMM=F IPFlag=           0 FMFlag=      100000 FMFlg1=           0
         NFxFlg=           0 DoJE=T BraDBF=F KetDBF=T FulRan=T
         wScrn=  0.000000 ICntrl=       500 IOpCl=  0 I1Cent=   200000004 NGrid=           0
         NMat0=    1 NMatS0=      1 NMatT0=    0 NMatD0=    1 NMtDS0=    0 NMtDT0=    0
 Petite list used in FoFCou.
 Harris En= -384.506763891043    
 JPrj=0 DoOrth=F DoCkMO=F.
 Initial guess <Sx>= 0.0000 <Sy>= 0.0000 <Sz>= 0.5000 <S**2>= 0.7500 S= 0.5000
 Leave Link  401 at Sun Apr  3 19:48:14 2022, MaxMem=  1073741824 cpu:              23.4 elap:               3.0
 (Enter /home/saurabh/g16/l502.exe)
 Integral symmetry usage will be decided dynamically.
 UHF open shell SCF:
 Using DIIS extrapolation, IDIIS=  1040.
 NGot=  1073741824 LenX=  1073389980 LenY=  1073217314
 Requested convergence on RMS density matrix=1.00D-08 within1000 cycles.
 Requested convergence on MAX density matrix=1.00D-06.
 Requested convergence on             energy=1.00D-06.
 No special actions if energy rises.
 Fock matrices will be formed incrementally for  20 cycles.
 Integral accuracy reduced to 1.0D-05 until final iterations.

 Cycle   1  Pass 0  IDiag  1:
 FoFJK:  IHMeth= 1 ICntrl=       0 DoSepK=F KAlg= 0 I1Cent=           0 FoldK=F
 IRaf= 970000000 NMat=       1 IRICut=       1 DoRegI=T DoRafI=F ISym2E= 0 IDoP0=0 IntGTp=1.
 FoFCou: FMM=F IPFlag=           0 FMFlag=      100000 FMFlg1=           0
         NFxFlg=           0 DoJE=F BraDBF=F KetDBF=F FulRan=T
         wScrn=  0.000000 ICntrl=         0 IOpCl=  1 I1Cent=           0 NGrid=           0
         NMat0=    1 NMatS0=      1 NMatT0=    0 NMatD0=    1 NMtDS0=    0 NMtDT0=    0
 Symmetry not used in FoFCou.
 E= -384.272072710562    
 DIIS: error= 2.20D-02 at cycle   1 NSaved=   1.
 NSaved= 1 IEnMin= 1 EnMin= -384.272072710562     IErMin= 1 ErrMin= 2.20D-02
 ErrMax= 2.20D-02  0.00D+00 EMaxC= 1.00D-01 BMatC= 9.49D-01 BMatP= 9.49D-01
 IDIUse=3 WtCom= 7.80D-01 WtEn= 2.20D-01
 Coeff-Com:  0.100D+01
 Coeff-En:   0.100D+01
 Coeff:      0.100D+01
 Gap=     0.363 Goal=   None    Shift=    0.000
 Gap=     0.110 Goal=   None    Shift=    0.000
 GapD=    0.110 DampG=1.000 DampE=0.500 DampFc=0.5000 IDamp=-1.
 Damping current iteration by 5.00D-01
 RMSDP=2.05D-03 MaxDP=6.73D-02              OVMax= 1.79D-01

 Cycle   2  Pass 0  IDiag  1:
 RMSU=  1.02D-03    CP:  9.95D-01
 E= -384.351649280063     Delta-E=       -0.079576569501 Rises=F Damp=T
 DIIS: error= 6.11D-03 at cycle   2 NSaved=   2.
 NSaved= 2 IEnMin= 2 EnMin= -384.351649280063     IErMin= 2 ErrMin= 6.11D-03
 ErrMax= 6.11D-03  0.00D+00 EMaxC= 1.00D-01 BMatC= 1.26D-01 BMatP= 9.49D-01
 IDIUse=3 WtCom= 9.39D-01 WtEn= 6.11D-02
 Coeff-Com:  0.146D+00 0.854D+00
 Coeff-En:   0.242D+00 0.758D+00
 Coeff:      0.152D+00 0.848D+00
 Gap=     0.295 Goal=   None    Shift=    0.000
 Gap=     0.145 Goal=   None    Shift=    0.000
 RMSDP=5.99D-04 MaxDP=2.28D-02 DE=-7.96D-02 OVMax= 1.39D-01

 Cycle   3  Pass 0  IDiag  1:
 RMSU=  5.41D-04    CP:  9.97D-01  7.49D-01
 E= -384.473173485569     Delta-E=       -0.121524205506 Rises=F Damp=F
 DIIS: error= 6.27D-03 at cycle   3 NSaved=   3.
 NSaved= 3 IEnMin= 3 EnMin= -384.473173485569     IErMin= 2 ErrMin= 6.11D-03
 ErrMax= 6.27D-03  0.00D+00 EMaxC= 1.00D-01 BMatC= 1.10D-01 BMatP= 1.26D-01
 IDIUse=3 WtCom= 9.37D-01 WtEn= 6.27D-02
 Coeff-Com: -0.608D-03 0.481D+00 0.519D+00
 Coeff-En:   0.000D+00 0.000D+00 0.100D+01
 Coeff:     -0.570D-03 0.451D+00 0.550D+00
 Gap=     0.261 Goal=   None    Shift=    0.000
 Gap=     0.145 Goal=   None    Shift=    0.000
 RMSDP=3.66D-04 MaxDP=2.67D-02 DE=-1.22D-01 OVMax= 7.81D-02

 Cycle   4  Pass 0  IDiag  1:
 RMSU=  2.94D-04    CP:  9.98D-01  8.08D-01  6.14D-01
 E= -384.483152456357     Delta-E=       -0.009978970788 Rises=F Damp=F
 DIIS: error= 4.41D-03 at cycle   4 NSaved=   4.
 NSaved= 4 IEnMin= 4 EnMin= -384.483152456357     IErMin= 4 ErrMin= 4.41D-03
 ErrMax= 4.41D-03  0.00D+00 EMaxC= 1.00D-01 BMatC= 5.11D-02 BMatP= 1.10D-01
 IDIUse=3 WtCom= 9.56D-01 WtEn= 4.41D-02
 Coeff-Com: -0.185D-01 0.170D+00 0.416D+00 0.433D+00
 Coeff-En:   0.000D+00 0.000D+00 0.356D+00 0.644D+00
 Coeff:     -0.177D-01 0.162D+00 0.413D+00 0.442D+00
 Gap=     0.269 Goal=   None    Shift=    0.000
 Gap=     0.149 Goal=   None    Shift=    0.000
 RMSDP=2.01D-04 MaxDP=9.94D-03 DE=-9.98D-03 OVMax= 2.88D-02

 Cycle   5  Pass 0  IDiag  1:
 RMSU=  1.05D-04    CP:  9.97D-01  8.02D-01  6.84D-01  4.33D-01
 E= -384.492164237167     Delta-E=       -0.009011780810 Rises=F Damp=F
 DIIS: error= 8.86D-04 at cycle   5 NSaved=   5.
 NSaved= 5 IEnMin= 5 EnMin= -384.492164237167     IErMin= 5 ErrMin= 8.86D-04
 ErrMax= 8.86D-04  0.00D+00 EMaxC= 1.00D-01 BMatC= 9.45D-04 BMatP= 5.11D-02
 IDIUse=3 WtCom= 9.91D-01 WtEn= 8.86D-03
 Coeff-Com: -0.677D-02 0.832D-02 0.122D+00 0.174D+00 0.702D+00
 Coeff-En:   0.000D+00 0.000D+00 0.000D+00 0.000D+00 0.100D+01
 Coeff:     -0.671D-02 0.825D-02 0.121D+00 0.172D+00 0.705D+00
 Gap=     0.257 Goal=   None    Shift=    0.000
 Gap=     0.149 Goal=   None    Shift=    0.000
 RMSDP=4.48D-05 MaxDP=2.30D-03 DE=-9.01D-03 OVMax= 8.41D-03

 Cycle   6  Pass 0  IDiag  1:
 RMSU=  2.80D-05    CP:  9.97D-01  8.06D-01  7.18D-01  5.02D-01  8.00D-01
 E= -384.492363170980     Delta-E=       -0.000198933813 Rises=F Damp=F
 DIIS: error= 4.10D-04 at cycle   6 NSaved=   6.
 NSaved= 6 IEnMin= 6 EnMin= -384.492363170980     IErMin= 6 ErrMin= 4.10D-04
 ErrMax= 4.10D-04  0.00D+00 EMaxC= 1.00D-01 BMatC= 1.99D-04 BMatP= 9.45D-04
 IDIUse=3 WtCom= 9.96D-01 WtEn= 4.10D-03
 Coeff-Com: -0.760D-03-0.990D-02 0.294D-01 0.377D-01 0.341D+00 0.602D+00
 Coeff-En:   0.000D+00 0.000D+00 0.000D+00 0.000D+00 0.000D+00 0.100D+01
 Coeff:     -0.757D-03-0.986D-02 0.293D-01 0.375D-01 0.340D+00 0.604D+00
 Gap=     0.257 Goal=   None    Shift=    0.000
 Gap=     0.149 Goal=   None    Shift=    0.000
 RMSDP=1.87D-05 MaxDP=1.04D-03 DE=-1.99D-04 OVMax= 1.57D-03

 Cycle   7  Pass 0  IDiag  1:
 RMSU=  1.29D-05    CP:  9.97D-01  8.02D-01  7.21D-01  4.89D-01  9.09D-01
                    CP:  8.48D-01
 E= -384.492402049214     Delta-E=       -0.000038878234 Rises=F Damp=F
 DIIS: error= 1.44D-04 at cycle   7 NSaved=   7.
 NSaved= 7 IEnMin= 7 EnMin= -384.492402049214     IErMin= 7 ErrMin= 1.44D-04
 ErrMax= 1.44D-04  0.00D+00 EMaxC= 1.00D-01 BMatC= 2.73D-05 BMatP= 1.99D-04
 IDIUse=3 WtCom= 9.99D-01 WtEn= 1.44D-03
 Coeff-Com:  0.189D-02-0.530D-02-0.148D-01-0.369D-01-0.578D-01 0.137D+00
 Coeff-Com:  0.976D+00
 Coeff-En:   0.000D+00 0.000D+00 0.000D+00 0.000D+00 0.000D+00 0.000D+00
 Coeff-En:   0.100D+01
 Coeff:      0.189D-02-0.529D-02-0.148D-01-0.369D-01-0.578D-01 0.137D+00
 Coeff:      0.976D+00
 Gap=     0.257 Goal=   None    Shift=    0.000
 Gap=     0.150 Goal=   None    Shift=    0.000
 RMSDP=8.95D-06 MaxDP=5.16D-04 DE=-3.89D-05 OVMax= 2.07D-03

 Initial convergence to 1.0D-05 achieved.  Increase integral accuracy.
 Cycle   8  Pass 1  IDiag  1:
 E= -384.492403860295     Delta-E=       -0.000001811081 Rises=F Damp=F
 DIIS: error= 5.66D-05 at cycle   1 NSaved=   1.
 NSaved= 1 IEnMin= 1 EnMin= -384.492403860295     IErMin= 1 ErrMin= 5.66D-05
 ErrMax= 5.66D-05  0.00D+00 EMaxC= 1.00D-01 BMatC= 9.76D-06 BMatP= 9.76D-06
 IDIUse=1 WtCom= 1.00D+00 WtEn= 0.00D+00
 Coeff-Com:  0.100D+01
 Coeff:      0.100D+01
 Gap=     0.257 Goal=   None    Shift=    0.000
 Gap=     0.150 Goal=   None    Shift=    0.000
 RMSDP=8.95D-06 MaxDP=5.16D-04 DE=-1.81D-06 OVMax= 1.33D-03

 Cycle   9  Pass 1  IDiag  1:
 RMSU=  1.19D-05    CP:  1.00D+00
 E= -384.492400347523     Delta-E=        0.000003512772 Rises=F Damp=F
 DIIS: error= 8.76D-05 at cycle   2 NSaved=   2.
 NSaved= 2 IEnMin= 1 EnMin= -384.492403860295     IErMin= 1 ErrMin= 5.66D-05
 ErrMax= 8.76D-05  0.00D+00 EMaxC= 1.00D-01 BMatC= 2.79D-05 BMatP= 9.76D-06
 IDIUse=1 WtCom= 1.00D+00 WtEn= 0.00D+00
 Coeff-Com:  0.639D+00 0.361D+00
 Coeff:      0.639D+00 0.361D+00
 Gap=     0.257 Goal=   None    Shift=    0.000
 Gap=     0.150 Goal=   None    Shift=    0.000
 RMSDP=4.41D-06 MaxDP=2.70D-04 DE= 3.51D-06 OVMax= 8.60D-04

 Cycle  10  Pass 1  IDiag  1:
 RMSU=  3.87D-06    CP:  1.00D+00  8.24D-01
 E= -384.492406009337     Delta-E=       -0.000005661814 Rises=F Damp=F
 DIIS: error= 2.97D-05 at cycle   3 NSaved=   3.
 NSaved= 3 IEnMin= 3 EnMin= -384.492406009337     IErMin= 3 ErrMin= 2.97D-05
 ErrMax= 2.97D-05  0.00D+00 EMaxC= 1.00D-01 BMatC= 1.29D-06 BMatP= 9.76D-06
 IDIUse=1 WtCom= 1.00D+00 WtEn= 0.00D+00
 Coeff-Com:  0.156D+00 0.192D+00 0.653D+00
 Coeff:      0.156D+00 0.192D+00 0.653D+00
 Gap=     0.257 Goal=   None    Shift=    0.000
 Gap=     0.150 Goal=   None    Shift=    0.000
 RMSDP=1.40D-06 MaxDP=7.63D-05 DE=-5.66D-06 OVMax= 1.61D-04

 Cycle  11  Pass 1  IDiag  1:
 RMSU=  1.24D-06    CP:  1.00D+00  8.64D-01  8.90D-01
 E= -384.492406161355     Delta-E=       -0.000000152018 Rises=F Damp=F
 DIIS: error= 1.57D-05 at cycle   4 NSaved=   4.
 NSaved= 4 IEnMin= 4 EnMin= -384.492406161355     IErMin= 4 ErrMin= 1.57D-05
 ErrMax= 1.57D-05  0.00D+00 EMaxC= 1.00D-01 BMatC= 4.48D-07 BMatP= 1.29D-06
 IDIUse=1 WtCom= 1.00D+00 WtEn= 0.00D+00
 Coeff-Com: -0.506D-01 0.634D-01 0.432D+00 0.555D+00
 Coeff:     -0.506D-01 0.634D-01 0.432D+00 0.555D+00
 Gap=     0.257 Goal=   None    Shift=    0.000
 Gap=     0.150 Goal=   None    Shift=    0.000
 RMSDP=7.36D-07 MaxDP=6.13D-05 DE=-1.52D-07 OVMax= 1.97D-04

 Cycle  12  Pass 1  IDiag  1:
 RMSU=  6.85D-07    CP:  1.00D+00  8.78D-01  8.89D-01  8.27D-01
 E= -384.492406277828     Delta-E=       -0.000000116473 Rises=F Damp=F
 DIIS: error= 8.12D-06 at cycle   5 NSaved=   5.
 NSaved= 5 IEnMin= 5 EnMin= -384.492406277828     IErMin= 5 ErrMin= 8.12D-06
 ErrMax= 8.12D-06  0.00D+00 EMaxC= 1.00D-01 BMatC= 1.18D-07 BMatP= 4.48D-07
 IDIUse=1 WtCom= 1.00D+00 WtEn= 0.00D+00
 Coeff-Com: -0.578D-01 0.446D-02 0.277D-01 0.341D+00 0.685D+00
 Coeff:     -0.578D-01 0.446D-02 0.277D-01 0.341D+00 0.685D+00
 Gap=     0.257 Goal=   None    Shift=    0.000
 Gap=     0.150 Goal=   None    Shift=    0.000
 RMSDP=4.66D-07 MaxDP=2.07D-05 DE=-1.16D-07 OVMax= 6.53D-05

 Cycle  13  Pass 1  IDiag  1:
 RMSU=  3.34D-07    CP:  1.00D+00  8.89D-01  8.84D-01  1.06D+00  1.09D+00
 E= -384.492406305723     Delta-E=       -0.000000027896 Rises=F Damp=F
 DIIS: error= 3.12D-06 at cycle   6 NSaved=   6.
 NSaved= 6 IEnMin= 6 EnMin= -384.492406305723     IErMin= 6 ErrMin= 3.12D-06
 ErrMax= 3.12D-06  0.00D+00 EMaxC= 1.00D-01 BMatC= 1.72D-08 BMatP= 1.18D-07
 IDIUse=1 WtCom= 1.00D+00 WtEn= 0.00D+00
 Coeff-Com: -0.102D-01-0.148D-01-0.173D+00 0.540D-02 0.350D+00 0.842D+00
 Coeff:     -0.102D-01-0.148D-01-0.173D+00 0.540D-02 0.350D+00 0.842D+00
 Gap=     0.257 Goal=   None    Shift=    0.000
 Gap=     0.150 Goal=   None    Shift=    0.000
 RMSDP=2.74D-07 MaxDP=1.62D-05 DE=-2.79D-08 OVMax= 5.58D-05

 Cycle  14  Pass 1  IDiag  1:
 RMSU=  8.04D-08    CP:  1.00D+00  8.95D-01  8.75D-01  1.20D+00  1.35D+00
                    CP:  9.54D-01
 E= -384.492406312253     Delta-E=       -0.000000006530 Rises=F Damp=F
 DIIS: error= 6.68D-07 at cycle   7 NSaved=   7.
 NSaved= 7 IEnMin= 7 EnMin= -384.492406312253     IErMin= 7 ErrMin= 6.68D-07
 ErrMax= 6.68D-07  0.00D+00 EMaxC= 1.00D-01 BMatC= 1.34D-09 BMatP= 1.72D-08
 IDIUse=1 WtCom= 1.00D+00 WtEn= 0.00D+00
 Coeff-Com:  0.602D-03-0.721D-02-0.844D-01-0.284D-01 0.921D-01 0.387D+00
 Coeff-Com:  0.640D+00
 Coeff:      0.602D-03-0.721D-02-0.844D-01-0.284D-01 0.921D-01 0.387D+00
 Coeff:      0.640D+00
 Gap=     0.257 Goal=   None    Shift=    0.000
 Gap=     0.150 Goal=   None    Shift=    0.000
 RMSDP=6.47D-08 MaxDP=3.20D-06 DE=-6.53D-09 OVMax= 7.87D-06

 Cycle  15  Pass 1  IDiag  1:
 RMSU=  3.47D-08    CP:  1.00D+00  8.96D-01  8.72D-01  1.23D+00  1.38D+00
                    CP:  9.90D-01  7.72D-01
 E= -384.492406312637     Delta-E=       -0.000000000384 Rises=F Damp=F
 DIIS: error= 2.33D-07 at cycle   8 NSaved=   8.
 NSaved= 8 IEnMin= 8 EnMin= -384.492406312637     IErMin= 8 ErrMin= 2.33D-07
 ErrMax= 2.33D-07  0.00D+00 EMaxC= 1.00D-01 BMatC= 1.26D-10 BMatP= 1.34D-09
 IDIUse=1 WtCom= 1.00D+00 WtEn= 0.00D+00
 Coeff-Com:  0.866D-03-0.231D-02-0.247D-01-0.130D-01 0.191D-01 0.116D+00
 Coeff-Com:  0.277D+00 0.628D+00
 Coeff:      0.866D-03-0.231D-02-0.247D-01-0.130D-01 0.191D-01 0.116D+00
 Coeff:      0.277D+00 0.628D+00
 Gap=     0.257 Goal=   None    Shift=    0.000
 Gap=     0.150 Goal=   None    Shift=    0.000
 RMSDP=1.99D-08 MaxDP=9.21D-07 DE=-3.84D-10 OVMax= 4.16D-06

 Cycle  16  Pass 1  IDiag  1:
 RMSU=  1.68D-08    CP:  1.00D+00  8.96D-01  8.73D-01  1.23D+00  1.38D+00
                    CP:  1.01D+00  8.49D-01  9.75D-01
 E= -384.492406312694     Delta-E=       -0.000000000057 Rises=F Damp=F
 DIIS: error= 1.54D-07 at cycle   9 NSaved=   9.
 NSaved= 9 IEnMin= 9 EnMin= -384.492406312694     IErMin= 9 ErrMin= 1.54D-07
 ErrMax= 1.54D-07  0.00D+00 EMaxC= 1.00D-01 BMatC= 2.83D-11 BMatP= 1.26D-10
 IDIUse=1 WtCom= 1.00D+00 WtEn= 0.00D+00
 Coeff-Com: -0.140D-03 0.252D-02 0.332D-01 0.897D-02-0.347D-01-0.151D+00
 Coeff-Com: -0.229D+00 0.666D-01 0.130D+01
 Coeff:     -0.140D-03 0.252D-02 0.332D-01 0.897D-02-0.347D-01-0.151D+00
 Coeff:     -0.229D+00 0.666D-01 0.130D+01
 Gap=     0.257 Goal=   None    Shift=    0.000
 Gap=     0.150 Goal=   None    Shift=    0.000
 RMSDP=2.20D-08 MaxDP=1.62D-06 DE=-5.73D-11 OVMax= 7.13D-06

 Cycle  17  Pass 1  IDiag  1:
 RMSU=  9.02D-09    CP:  1.00D+00  8.96D-01  8.73D-01  1.23D+00  1.38D+00
                    CP:  1.01D+00  9.48D-01  1.42D+00  1.59D+00
 E= -384.492406312741     Delta-E=       -0.000000000046 Rises=F Damp=F
 DIIS: error= 6.38D-08 at cycle  10 NSaved=  10.
 NSaved=10 IEnMin=10 EnMin= -384.492406312741     IErMin=10 ErrMin= 6.38D-08
 ErrMax= 6.38D-08  0.00D+00 EMaxC= 1.00D-01 BMatC= 6.03D-12 BMatP= 2.83D-11
 IDIUse=1 WtCom= 1.00D+00 WtEn= 0.00D+00
 Coeff-Com: -0.181D-03 0.126D-02 0.158D-01 0.514D-02-0.152D-01-0.724D-01
 Coeff-Com: -0.124D+00-0.699D-01 0.480D+00 0.780D+00
 Coeff:     -0.181D-03 0.126D-02 0.158D-01 0.514D-02-0.152D-01-0.724D-01
 Coeff:     -0.124D+00-0.699D-01 0.480D+00 0.780D+00
 Gap=     0.257 Goal=   None    Shift=    0.000
 Gap=     0.150 Goal=   None    Shift=    0.000
 RMSDP=8.41D-09 MaxDP=5.85D-07 DE=-4.65D-11 OVMax= 3.01D-06

 SCF Done:  E(UB3LYP) =  -384.492406313     A.U. after   17 cycles
            NFock= 17  Conv=0.84D-08     -V/T= 2.0070
 <Sx>= 0.0000 <Sy>= 0.0000 <Sz>= 0.5000 <S**2>= 0.7538 S= 0.5019
 <L.S>= 0.000000000000E+00
 KE= 3.818233950140D+02 PE=-1.657301706393D+03 EE= 5.107874924146D+02
 Annihilation of the first spin contaminant:
 S**2 before annihilation     0.7538,   after     0.7500
 Leave Link  502 at Sun Apr  3 19:51:44 2022, MaxMem=  1073741824 cpu:            1680.8 elap:             210.0
 (Enter /home/saurabh/g16/l801.exe)
 DoSCS=F DFT=T ScalE2(SS,OS)=  1.000000  1.000000
 Range of M.O.s used for correlation:     1   366
 NBasis=   366 NAE=    31 NBE=    30 NFC=     0 NFV=     0
 NROrb=    366 NOA=    31 NOB=    30 NVA=   335 NVB=   336

 **** Warning!!: The largest alpha MO coefficient is  0.12805047D+02


 **** Warning!!: The largest beta MO coefficient is  0.13039229D+02

 Leave Link  801 at Sun Apr  3 19:51:44 2022, MaxMem=  1073741824 cpu:               0.2 elap:               0.1
 (Enter /home/saurabh/g16/l1101.exe)
 Using compressed storage, NAtomX=    17.
 Will process     18 centers per pass.
 Leave Link 1101 at Sun Apr  3 19:51:44 2022, MaxMem=  1073741824 cpu:               3.3 elap:               0.4
 (Enter /home/saurabh/g16/l1102.exe)
 Symmetrizing basis deriv contribution to polar:
 IMax=3 JMax=2 DiffMx= 0.00D+00
 Leave Link 1102 at Sun Apr  3 19:51:44 2022, MaxMem=  1073741824 cpu:               0.3 elap:               0.1
 (Enter /home/saurabh/g16/l1110.exe)
 Forming Gx(P) for the SCF density, NAtomX=    17.
 Integral derivatives from FoFJK, PRISM(SPDF).
 Do as many integral derivatives as possible in FoFJK.
 G2DrvN: MDV=    1073739937.
 G2DrvN: will do    18 centers at a time, making    1 passes.
 Calling FoFCou, ICntrl=  3107 FMM=F I1Cent=   0 AccDes= 0.00D+00.
 FoFJK:  IHMeth= 1 ICntrl=    3107 DoSepK=F KAlg= 0 I1Cent=           0 FoldK=F
 IRaf=         0 NMat=       1 IRICut=       1 DoRegI=T DoRafI=F ISym2E= 0 IDoP0=0 IntGTp=1.
 FoFCou: FMM=F IPFlag=           0 FMFlag=      100000 FMFlg1=           0
         NFxFlg=           0 DoJE=F BraDBF=F KetDBF=F FulRan=T
         wScrn=  0.000000 ICntrl=      3107 IOpCl=  1 I1Cent=           0 NGrid=           0
         NMat0=    1 NMatS0=      1 NMatT0=    0 NMatD0=    1 NMtDS0=    0 NMtDT0=    0
 Symmetry not used in FoFCou.
 End of G2Drv F.D. properties file   721 does not exist.
 End of G2Drv F.D. properties file   722 does not exist.
 End of G2Drv F.D. properties file   788 does not exist.
 Leave Link 1110 at Sun Apr  3 19:57:28 2022, MaxMem=  1073741824 cpu:            2752.3 elap:             343.8
 (Enter /home/saurabh/g16/l1002.exe)
 Minotr:  UHF open shell wavefunction.
          IDoAtm=11111111111111111
          Direct CPHF calculation.
          Differentiating once with respect to nuclear coordinates.
          Requested convergence is 1.0D-08 RMS, and 1.0D-07 maximum.
          Secondary convergence is 1.0D-12 RMS, and 1.0D-12 maximum.
          NewPWx=T KeepS1=F KeepF1=F KeepIn=T MapXYZ=F SortEE=F KeepMc=T.
         5039 words used for storage of precomputed grid.
 Two-electron integrals replicated using symmetry.
          MDV=    1073741824 using IRadAn=       1.
          Solving linear equations simultaneously, MaxMat=     384.
 FoF2E skips out because all densities are zero.
 CalDSu exits because no D1Ps are significant.
 FoFJK:  IHMeth= 1 ICntrl=       0 DoSepK=F KAlg= 0 I1Cent=           0 FoldK=F
 IRaf= 960000000 NMat=      51 IRICut=     127 DoRegI=T DoRafI=T ISym2E= 2 IDoP0=3 IntGTp=3.
 FoFCou: FMM=F IPFlag=           0 FMFlag=      100000 FMFlg1=           0
         NFxFlg=           0 DoJE=F BraDBF=F KetDBF=F FulRan=T
         wScrn=  0.000000 ICntrl=         0 IOpCl=  1 I1Cent=           0 NGrid=           0
         NMat0=   51 NMatS0=     51 NMatT0=    0 NMatD0=   51 NMtDS0=    0 NMtDT0=    0
 Integrals replicated using symmetry in FoFCou.
 Raff kept on since  93.39% of shell-pairs survive, threshold=   0.20 IRatSp=93.
          There are    54 degrees of freedom in the 1st order CPHF.  IDoFFX=6 NUNeed=     0.
     48 vectors produced by pass  0 Test12= 3.79D-14 1.85D-09 XBig12= 2.24D-01 1.11D-01.
 AX will form    48 AO Fock derivatives at one time.
     48 vectors produced by pass  1 Test12= 3.79D-14 1.85D-09 XBig12= 2.99D-02 5.51D-02.
     48 vectors produced by pass  2 Test12= 3.79D-14 1.85D-09 XBig12= 5.14D-04 4.09D-03.
     48 vectors produced by pass  3 Test12= 3.79D-14 1.85D-09 XBig12= 4.28D-06 2.50D-04.
     48 vectors produced by pass  4 Test12= 3.79D-14 1.85D-09 XBig12= 2.22D-08 1.77D-05.
     48 vectors produced by pass  5 Test12= 3.79D-14 1.85D-09 XBig12= 1.32D-10 1.13D-06.
     31 vectors produced by pass  6 Test12= 3.79D-14 1.85D-09 XBig12= 8.12D-13 7.31D-08.
      9 vectors produced by pass  7 Test12= 3.79D-14 1.85D-09 XBig12= 3.15D-15 4.71D-09.
 InvSVY:  IOpt=1 It=  1 EMax= 5.55D-16
 Solved reduced A of dimension   328 with    54 vectors.
 End of Minotr F.D. properties file   721 does not exist.
 End of Minotr F.D. properties file   722 does not exist.
 End of Minotr F.D. properties file   788 does not exist.
 Leave Link 1002 at Sun Apr  3 20:08:39 2022, MaxMem=  1073741824 cpu:            5370.9 elap:             670.9
 (Enter /home/saurabh/g16/l601.exe)
 Copying SCF densities to generalized density rwf, IOpCl= 1 IROHF=0.

 **********************************************************************

            Population analysis using the SCF Density.

 **********************************************************************

 Orbital symmetries:
 Alpha Orbitals:
       Occupied  (A) (A) (A) (A) (A) (A) (A) (A) (A) (A) (A) (A)
                 (A) (A) (A) (A) (A) (A) (A) (A) (A) (A) (A) (A)
                 (A) (A) (A) (A) (A) (A) (A)
       Virtual   (A) (A) (A) (A) (A) (A) (A) (A) (A) (A) (A) (A)
                 (A) (A) (A) (A) (A) (A) (A) (A) (A) (A) (A) (A)
                 (A) (A) (A) (A) (A) (A) (A) (A) (A) (A) (A) (A)
                 (A) (A) (A) (A) (A) (A) (A) (A) (A) (A) (A) (A)
                 (A) (A) (A) (A) (A) (A) (A) (A) (A) (A) (A) (A)
                 (A) (A) (A) (A) (A) (A) (A) (A) (A) (A) (A) (A)
                 (A) (A) (A) (A) (A) (A) (A) (A) (A) (A) (A) (A)
                 (A) (A) (A) (A) (A) (A) (A) (A) (A) (A) (A) (A)
                 (A) (A) (A) (A) (A) (A) (A) (A) (A) (A) (A) (A)
                 (A) (A) (A) (A) (A) (A) (A) (A) (A) (A) (A) (A)
                 (A) (A) (A) (A) (A) (A) (A) (A) (A) (A) (A) (A)
                 (A) (A) (A) (A) (A) (A) (A) (A) (A) (A) (A) (A)
                 (A) (A) (A) (A) (A) (A) (A) (A) (A) (A) (A) (A)
                 (A) (A) (A) (A) (A) (A) (A) (A) (A) (A) (A) (A)
                 (A) (A) (A) (A) (A) (A) (A) (A) (A) (A) (A) (A)
                 (A) (A) (A) (A) (A) (A) (A) (A) (A) (A) (A) (A)
                 (A) (A) (A) (A) (A) (A) (A) (A) (A) (A) (A) (A)
                 (A) (A) (A) (A) (A) (A) (A) (A) (A) (A) (A) (A)
                 (A) (A) (A) (A) (A) (A) (A) (A) (A) (A) (A) (A)
                 (A) (A) (A) (A) (A) (A) (A) (A) (A) (A) (A) (A)
                 (A) (A) (A) (A) (A) (A) (A) (A) (A) (A) (A) (A)
                 (A) (A) (A) (A) (A) (A) (A) (A) (A) (A) (A) (A)
                 (A) (A) (A) (A) (A) (A) (A) (A) (A) (A) (A) (A)
                 (A) (A) (A) (A) (A) (A) (A) (A) (A) (A) (A) (A)
                 (A) (A) (A) (A) (A) (A) (A) (A) (A) (A) (A) (A)
                 (A) (A) (A) (A) (A) (A) (A) (A) (A) (A) (A) (A)
                 (A) (A) (A) (A) (A) (A) (A) (A) (A) (A) (A) (A)
                 (A) (A) (A) (A) (A) (A) (A) (A) (A) (A) (A)
 Beta  Orbitals:
       Occupied  (A) (A) (A) (A) (A) (A) (A) (A) (A) (A) (A) (A)
                 (A) (A) (A) (A) (A) (A) (A) (A) (A) (A) (A) (A)
                 (A) (A) (A) (A) (A) (A)
       Virtual   (A) (A) (A) (A) (A) (A) (A) (A) (A) (A) (A) (A)
                 (A) (A) (A) (A) (A) (A) (A) (A) (A) (A) (A) (A)
                 (A) (A) (A) (A) (A) (A) (A) (A) (A) (A) (A) (A)
                 (A) (A) (A) (A) (A) (A) (A) (A) (A) (A) (A) (A)
                 (A) (A) (A) (A) (A) (A) (A) (A) (A) (A) (A) (A)
                 (A) (A) (A) (A) (A) (A) (A) (A) (A) (A) (A) (A)
                 (A) (A) (A) (A) (A) (A) (A) (A) (A) (A) (A) (A)
                 (A) (A) (A) (A) (A) (A) (A) (A) (A) (A) (A) (A)
                 (A) (A) (A) (A) (A) (A) (A) (A) (A) (A) (A) (A)
                 (A) (A) (A) (A) (A) (A) (A) (A) (A) (A) (A) (A)
                 (A) (A) (A) (A) (A) (A) (A) (A) (A) (A) (A) (A)
                 (A) (A) (A) (A) (A) (A) (A) (A) (A) (A) (A) (A)
                 (A) (A) (A) (A) (A) (A) (A) (A) (A) (A) (A) (A)
                 (A) (A) (A) (A) (A) (A) (A) (A) (A) (A) (A) (A)
                 (A) (A) (A) (A) (A) (A) (A) (A) (A) (A) (A) (A)
                 (A) (A) (A) (A) (A) (A) (A) (A) (A) (A) (A) (A)
                 (A) (A) (A) (A) (A) (A) (A) (A) (A) (A) (A) (A)
                 (A) (A) (A) (A) (A) (A) (A) (A) (A) (A) (A) (A)
                 (A) (A) (A) (A) (A) (A) (A) (A) (A) (A) (A) (A)
                 (A) (A) (A) (A) (A) (A) (A) (A) (A) (A) (A) (A)
                 (A) (A) (A) (A) (A) (A) (A) (A) (A) (A) (A) (A)
                 (A) (A) (A) (A) (A) (A) (A) (A) (A) (A) (A) (A)
                 (A) (A) (A) (A) (A) (A) (A) (A) (A) (A) (A) (A)
                 (A) (A) (A) (A) (A) (A) (A) (A) (A) (A) (A) (A)
                 (A) (A) (A) (A) (A) (A) (A) (A) (A) (A) (A) (A)
                 (A) (A) (A) (A) (A) (A) (A) (A) (A) (A) (A) (A)
                 (A) (A) (A) (A) (A) (A) (A) (A) (A) (A) (A) (A)
                 (A) (A) (A) (A) (A) (A) (A) (A) (A) (A) (A) (A)
 The electronic state is 2-A.
 Alpha  occ. eigenvalues --  -19.24916 -19.19483 -10.24567 -10.19295 -10.19043
 Alpha  occ. eigenvalues --  -10.18747 -10.18512 -10.18333  -1.20157  -0.90073
 Alpha  occ. eigenvalues --   -0.83022  -0.75878  -0.73614  -0.63221  -0.61612
 Alpha  occ. eigenvalues --   -0.54931  -0.52853  -0.50787  -0.49892  -0.47140
 Alpha  occ. eigenvalues --   -0.45000  -0.42457  -0.41351  -0.40307  -0.38918
 Alpha  occ. eigenvalues --   -0.35180  -0.33370  -0.32832  -0.28808  -0.28225
 Alpha  occ. eigenvalues --   -0.26969
 Alpha virt. eigenvalues --   -0.01253   0.02643   0.05511   0.06055   0.07005
 Alpha virt. eigenvalues --    0.08650   0.09174   0.10280   0.11132   0.12220
 Alpha virt. eigenvalues --    0.13039   0.15598   0.16482   0.18711   0.20376
 Alpha virt. eigenvalues --    0.21125   0.24354   0.25464   0.26909   0.28166
 Alpha virt. eigenvalues --    0.30052   0.30691   0.31568   0.33399   0.35891
 Alpha virt. eigenvalues --    0.35998   0.39511   0.40140   0.41000   0.41345
 Alpha virt. eigenvalues --    0.41685   0.43049   0.43485   0.44099   0.44976
 Alpha virt. eigenvalues --    0.45273   0.45840   0.46937   0.47506   0.47899
 Alpha virt. eigenvalues --    0.48291   0.49445   0.51405   0.52251   0.54684
 Alpha virt. eigenvalues --    0.57880   0.61033   0.61661   0.62843   0.63864
 Alpha virt. eigenvalues --    0.66111   0.68433   0.70389   0.71608   0.73214
 Alpha virt. eigenvalues --    0.74698   0.76036   0.79109   0.80595   0.82862
 Alpha virt. eigenvalues --    0.84467   0.85995   0.88656   0.91736   0.92893
 Alpha virt. eigenvalues --    0.94494   0.95846   0.97094   0.98248   1.00347
 Alpha virt. eigenvalues --    1.01927   1.02771   1.04740   1.05340   1.07195
 Alpha virt. eigenvalues --    1.08594   1.10233   1.11493   1.12112   1.13404
 Alpha virt. eigenvalues --    1.15395   1.16310   1.17757   1.18432   1.19678
 Alpha virt. eigenvalues --    1.21196   1.21951   1.22751   1.24140   1.26734
 Alpha virt. eigenvalues --    1.28274   1.29224   1.30438   1.32466   1.32924
 Alpha virt. eigenvalues --    1.36392   1.37465   1.38780   1.39119   1.40768
 Alpha virt. eigenvalues --    1.42730   1.43544   1.45219   1.47377   1.48101
 Alpha virt. eigenvalues --    1.48647   1.50486   1.52438   1.54137   1.56037
 Alpha virt. eigenvalues --    1.58619   1.59496   1.60201   1.69401   1.70441
 Alpha virt. eigenvalues --    1.73507   1.77436   1.81118   1.88882   1.96188
 Alpha virt. eigenvalues --    1.99223   2.03924   2.07436   2.08864   2.12201
 Alpha virt. eigenvalues --    2.12702   2.21531   2.24618   2.25560   2.29283
 Alpha virt. eigenvalues --    2.32710   2.35352   2.36411   2.39657   2.40582
 Alpha virt. eigenvalues --    2.42415   2.44133   2.45874   2.48036   2.49341
 Alpha virt. eigenvalues --    2.52646   2.55478   2.55896   2.58556   2.59170
 Alpha virt. eigenvalues --    2.60365   2.61683   2.63888   2.64651   2.66311
 Alpha virt. eigenvalues --    2.68412   2.70086   2.73235   2.76477   2.77063
 Alpha virt. eigenvalues --    2.79227   2.80886   2.82780   2.84636   2.89246
 Alpha virt. eigenvalues --    2.91118   2.91269   2.93062   2.94758   2.96791
 Alpha virt. eigenvalues --    2.97411   2.98847   3.00698   3.01830   3.02454
 Alpha virt. eigenvalues --    3.05618   3.07221   3.07806   3.09322   3.09732
 Alpha virt. eigenvalues --    3.11567   3.12082   3.13997   3.14585   3.16882
 Alpha virt. eigenvalues --    3.18770   3.19900   3.20570   3.22930   3.24286
 Alpha virt. eigenvalues --    3.26626   3.28158   3.30586   3.30834   3.32438
 Alpha virt. eigenvalues --    3.33224   3.36956   3.37126   3.38634   3.39973
 Alpha virt. eigenvalues --    3.42386   3.45403   3.46652   3.48572   3.50723
 Alpha virt. eigenvalues --    3.53406   3.53825   3.55713   3.58036   3.61418
 Alpha virt. eigenvalues --    3.61536   3.62178   3.64741   3.65949   3.66185
 Alpha virt. eigenvalues --    3.67677   3.69822   3.71891   3.73307   3.74334
 Alpha virt. eigenvalues --    3.75552   3.77599   3.78540   3.80341   3.82906
 Alpha virt. eigenvalues --    3.84089   3.86063   3.86794   3.88843   3.90167
 Alpha virt. eigenvalues --    3.90987   3.92725   3.95194   3.96608   3.97668
 Alpha virt. eigenvalues --    3.98856   3.99465   4.02414   4.04271   4.05416
 Alpha virt. eigenvalues --    4.06630   4.08952   4.11117   4.11481   4.12745
 Alpha virt. eigenvalues --    4.14415   4.16931   4.19185   4.20190   4.21523
 Alpha virt. eigenvalues --    4.22413   4.24195   4.27221   4.28211   4.31292
 Alpha virt. eigenvalues --    4.33809   4.34831   4.38647   4.42504   4.44254
 Alpha virt. eigenvalues --    4.46546   4.47747   4.51300   4.54279   4.57794
 Alpha virt. eigenvalues --    4.58815   4.61595   4.62864   4.66700   4.69663
 Alpha virt. eigenvalues --    4.70608   4.72619   4.74335   4.75320   4.76675
 Alpha virt. eigenvalues --    4.80400   4.81878   4.83467   4.84478   4.88121
 Alpha virt. eigenvalues --    4.89466   4.91885   4.92999   4.96321   4.98592
 Alpha virt. eigenvalues --    5.00652   5.03156   5.06437   5.08431   5.09280
 Alpha virt. eigenvalues --    5.09895   5.11497   5.13712   5.14635   5.17022
 Alpha virt. eigenvalues --    5.20653   5.22294   5.25446   5.26847   5.28298
 Alpha virt. eigenvalues --    5.33106   5.35871   5.37751   5.40270   5.43116
 Alpha virt. eigenvalues --    5.49165   5.49347   5.57742   5.61062   5.64530
 Alpha virt. eigenvalues --    5.69181   5.79800   5.79879   5.84930   5.92066
 Alpha virt. eigenvalues --    5.99494   6.01975   6.03031   6.07934   6.14439
 Alpha virt. eigenvalues --    6.26519   6.27782   6.31759   6.41565   6.46326
 Alpha virt. eigenvalues --    6.68369   6.77411   6.81195   7.04842   7.10120
 Alpha virt. eigenvalues --    7.28862   7.40701   9.43762  10.11101  11.03399
 Alpha virt. eigenvalues --   11.86799  12.38163  12.48259  12.76164  13.69297
  Beta  occ. eigenvalues --  -19.23967 -19.17542 -10.24603 -10.19298 -10.19042
  Beta  occ. eigenvalues --  -10.18710 -10.18505 -10.18333  -1.17616  -0.87822
  Beta  occ. eigenvalues --   -0.81917  -0.75835  -0.72877  -0.62872  -0.61369
  Beta  occ. eigenvalues --   -0.54179  -0.51970  -0.49852  -0.47250  -0.46609
  Beta  occ. eigenvalues --   -0.43492  -0.42314  -0.41302  -0.38823  -0.37575
  Beta  occ. eigenvalues --   -0.35119  -0.32785  -0.32116  -0.27486  -0.26553
  Beta virt. eigenvalues --   -0.11593  -0.01107   0.02682   0.05564   0.06077
  Beta virt. eigenvalues --    0.07031   0.08805   0.09252   0.10392   0.11762
  Beta virt. eigenvalues --    0.12394   0.13814   0.15719   0.16884   0.18890
  Beta virt. eigenvalues --    0.20427   0.21170   0.24386   0.25534   0.27032
  Beta virt. eigenvalues --    0.28216   0.30105   0.30711   0.31690   0.33431
  Beta virt. eigenvalues --    0.36038   0.36327   0.39617   0.40229   0.41081
  Beta virt. eigenvalues --    0.41388   0.41743   0.43112   0.43553   0.44186
  Beta virt. eigenvalues --    0.45044   0.45448   0.45900   0.47091   0.47731
  Beta virt. eigenvalues --    0.47983   0.48363   0.49516   0.51480   0.52369
  Beta virt. eigenvalues --    0.54826   0.58425   0.61738   0.61844   0.63012
  Beta virt. eigenvalues --    0.63934   0.66773   0.70260   0.70812   0.71851
  Beta virt. eigenvalues --    0.73755   0.74808   0.76106   0.79369   0.81096
  Beta virt. eigenvalues --    0.83018   0.84676   0.86136   0.88965   0.91808
  Beta virt. eigenvalues --    0.92941   0.94525   0.95897   0.97159   0.98326
  Beta virt. eigenvalues --    1.00399   1.02122   1.02953   1.04842   1.05400
  Beta virt. eigenvalues --    1.07251   1.08745   1.10304   1.11629   1.12190
  Beta virt. eigenvalues --    1.13504   1.15459   1.16578   1.17855   1.18487
  Beta virt. eigenvalues --    1.19893   1.21413   1.22217   1.22843   1.24371
  Beta virt. eigenvalues --    1.26810   1.28384   1.29392   1.30566   1.32737
  Beta virt. eigenvalues --    1.33204   1.36672   1.37684   1.39075   1.39566
  Beta virt. eigenvalues --    1.41019   1.42879   1.43832   1.45700   1.47591
  Beta virt. eigenvalues --    1.48357   1.49285   1.51520   1.52840   1.54622
  Beta virt. eigenvalues --    1.56610   1.59364   1.59829   1.60923   1.69984
  Beta virt. eigenvalues --    1.70522   1.74145   1.77951   1.81543   1.89355
  Beta virt. eigenvalues --    1.96457   2.00189   2.04810   2.08151   2.09570
  Beta virt. eigenvalues --    2.12636   2.14308   2.21846   2.25089   2.25694
  Beta virt. eigenvalues --    2.29558   2.33064   2.35375   2.36509   2.39788
  Beta virt. eigenvalues --    2.40641   2.42485   2.44283   2.45910   2.48123
  Beta virt. eigenvalues --    2.49456   2.52770   2.55511   2.55949   2.58611
  Beta virt. eigenvalues --    2.59200   2.60438   2.61740   2.63928   2.64690
  Beta virt. eigenvalues --    2.66372   2.68453   2.70124   2.73281   2.76539
  Beta virt. eigenvalues --    2.77113   2.79320   2.80952   2.82856   2.84759
  Beta virt. eigenvalues --    2.89285   2.91162   2.91289   2.93094   2.94879
  Beta virt. eigenvalues --    2.96935   2.97490   2.98892   3.00790   3.01862
  Beta virt. eigenvalues --    3.02487   3.05659   3.07250   3.07834   3.09507
  Beta virt. eigenvalues --    3.09759   3.11611   3.12165   3.14075   3.14630
  Beta virt. eigenvalues --    3.16919   3.18788   3.20021   3.20611   3.22969
  Beta virt. eigenvalues --    3.24377   3.26700   3.28225   3.30643   3.30874
  Beta virt. eigenvalues --    3.32523   3.33390   3.37020   3.37173   3.38681
  Beta virt. eigenvalues --    3.40042   3.42424   3.45586   3.46939   3.48886
  Beta virt. eigenvalues --    3.50959   3.53747   3.54541   3.55855   3.58335
  Beta virt. eigenvalues --    3.61498   3.61595   3.64584   3.64819   3.66009
  Beta virt. eigenvalues --    3.66454   3.67776   3.70983   3.72949   3.73484
  Beta virt. eigenvalues --    3.75320   3.76024   3.77822   3.78663   3.80441
  Beta virt. eigenvalues --    3.83152   3.84376   3.86198   3.87218   3.89252
  Beta virt. eigenvalues --    3.90384   3.91068   3.93066   3.95243   3.96701
  Beta virt. eigenvalues --    3.97758   3.99006   3.99558   4.02633   4.04382
  Beta virt. eigenvalues --    4.05444   4.06980   4.09008   4.11195   4.11555
  Beta virt. eigenvalues --    4.12910   4.14551   4.16964   4.19358   4.20261
  Beta virt. eigenvalues --    4.21793   4.22507   4.24319   4.27425   4.28268
  Beta virt. eigenvalues --    4.31340   4.33941   4.35029   4.38734   4.42622
  Beta virt. eigenvalues --    4.44293   4.46618   4.47880   4.51455   4.54438
  Beta virt. eigenvalues --    4.57957   4.58967   4.61663   4.63123   4.67240
  Beta virt. eigenvalues --    4.69828   4.71600   4.73911   4.74787   4.76649
  Beta virt. eigenvalues --    4.77204   4.80500   4.81973   4.83602   4.85362
  Beta virt. eigenvalues --    4.89250   4.90203   4.92056   4.93363   4.96382
  Beta virt. eigenvalues --    4.98716   5.01218   5.03784   5.07462   5.09325
  Beta virt. eigenvalues --    5.10410   5.11615   5.12983   5.14072   5.17173
  Beta virt. eigenvalues --    5.18691   5.21474   5.22630   5.25758   5.27124
  Beta virt. eigenvalues --    5.28536   5.33473   5.36298   5.38203   5.40438
  Beta virt. eigenvalues --    5.43267   5.49268   5.49566   5.59008   5.61441
  Beta virt. eigenvalues --    5.65472   5.69588   5.80023   5.80527   5.86384
  Beta virt. eigenvalues --    5.92364   5.99651   6.02229   6.04507   6.08637
  Beta virt. eigenvalues --    6.19509   6.28159   6.33412   6.37215   6.44853
  Beta virt. eigenvalues --    6.49980   6.69538   6.79462   6.84077   7.08098
  Beta virt. eigenvalues --    7.11667   7.29295   7.41966   9.46311  10.11414
  Beta virt. eigenvalues --   11.04804  11.87024  12.38343  12.48285  12.76175
  Beta virt. eigenvalues --   13.69307
          Condensed to atoms (all electrons):
               1          2          3          4          5          6
     1  C    4.858057   0.346652  -0.055752  -0.011341  -0.041626   0.336200
     2  C    0.346652   4.957461   0.594899  -0.031863  -0.013870  -0.034247
     3  C   -0.055752   0.594899   5.079830   0.272127  -0.023131  -0.018674
     4  C   -0.011341  -0.031863   0.272127   4.857056   0.310278  -0.025332
     5  C   -0.041626  -0.013870  -0.023131   0.310278   4.968173   0.314960
     6  C    0.336200  -0.034247  -0.018674  -0.025332   0.314960   4.904860
     7  H   -0.035131   0.006379   0.000204   0.005885  -0.031251   0.408399
     8  H   -0.033080  -0.001390   0.005504  -0.011083  -0.040851   0.403182
     9  H   -0.003059  -0.001523   0.000370  -0.025350   0.389010  -0.039534
    10  H    0.006975  -0.000777   0.008918  -0.033039   0.403777  -0.034594
    11  H    0.007618  -0.047816   0.418866  -0.040112   0.007811  -0.001203
    12  H   -0.042098   0.418965  -0.047976   0.007358  -0.001248   0.006496
    13  H    0.409440  -0.033944   0.003138  -0.000454   0.008681  -0.036962
    14  H    0.399737  -0.040946  -0.000771   0.000475  -0.005637  -0.028410
    15  O    0.000739   0.000574  -0.023934   0.241237  -0.034525  -0.006741
    16  H   -0.000243   0.001011  -0.032963   0.417216  -0.045122   0.007084
    17  O   -0.000119  -0.000369   0.010301  -0.056845  -0.008888   0.000813
               7          8          9         10         11         12
     1  C   -0.035131  -0.033080  -0.003059   0.006975   0.007618  -0.042098
     2  C    0.006379  -0.001390  -0.001523  -0.000777  -0.047816   0.418965
     3  C    0.000204   0.005504   0.000370   0.008918   0.418866  -0.047976
     4  C    0.005885  -0.011083  -0.025350  -0.033039  -0.040112   0.007358
     5  C   -0.031251  -0.040851   0.389010   0.403777   0.007811  -0.001248
     6  C    0.408399   0.403182  -0.039534  -0.034594  -0.001203   0.006496
     7  H    0.609987  -0.032958  -0.004882  -0.006069   0.000105  -0.000354
     8  H   -0.032958   0.606777   0.008520  -0.002547  -0.000280  -0.000069
     9  H   -0.004882   0.008520   0.628578  -0.032495  -0.000263  -0.000117
    10  H   -0.006069  -0.002547  -0.032495   0.587934  -0.000285   0.000084
    11  H    0.000105  -0.000280  -0.000263  -0.000285   0.551539  -0.009993
    12  H   -0.000354  -0.000069  -0.000117   0.000084  -0.009993   0.553058
    13  H   -0.002806  -0.008115   0.000125  -0.000390  -0.000372  -0.005084
    14  H   -0.006965   0.007528   0.003801  -0.000243  -0.000438  -0.000062
    15  O   -0.000218   0.010550   0.004337  -0.008331   0.003308  -0.000159
    16  H   -0.000321   0.001310  -0.004517  -0.001786  -0.005914  -0.000415
    17  O   -0.000054   0.000201  -0.000673   0.014876   0.000156   0.000014
              13         14         15         16         17
     1  C    0.409440   0.399737   0.000739  -0.000243  -0.000119
     2  C   -0.033944  -0.040946   0.000574   0.001011  -0.000369
     3  C    0.003138  -0.000771  -0.023934  -0.032963   0.010301
     4  C   -0.000454   0.000475   0.241237   0.417216  -0.056845
     5  C    0.008681  -0.005637  -0.034525  -0.045122  -0.008888
     6  C   -0.036962  -0.028410  -0.006741   0.007084   0.000813
     7  H   -0.002806  -0.006965  -0.000218  -0.000321  -0.000054
     8  H   -0.008115   0.007528   0.010550   0.001310   0.000201
     9  H    0.000125   0.003801   0.004337  -0.004517  -0.000673
    10  H   -0.000390  -0.000243  -0.008331  -0.001786   0.014876
    11  H   -0.000372  -0.000438   0.003308  -0.005914   0.000156
    12  H   -0.005084  -0.000062  -0.000159  -0.000415   0.000014
    13  H    0.606273  -0.031292   0.000022   0.000005  -0.000002
    14  H   -0.031292   0.612971  -0.000088   0.000140   0.000010
    15  O    0.000022  -0.000088   7.777098  -0.036151   0.119175
    16  H    0.000005   0.000140  -0.036151   0.603076   0.008819
    17  O   -0.000002   0.000010   0.119175   0.008819   8.085604
          Atomic-Atomic Spin Densities.
               1          2          3          4          5          6
     1  C    0.001036   0.000822  -0.001184   0.000295  -0.000144   0.000134
     2  C    0.000822   0.001164  -0.000102  -0.005668   0.003593  -0.000787
     3  C   -0.001184  -0.000102  -0.010806   0.014503  -0.001418   0.000837
     4  C    0.000295  -0.005668   0.014503  -0.028783  -0.002675   0.000513
     5  C   -0.000144   0.003593  -0.001418  -0.002675   0.025886  -0.001832
     6  C    0.000134  -0.000787   0.000837   0.000513  -0.001832  -0.001118
     7  H    0.000094  -0.000024   0.000008  -0.000093  -0.000212   0.000080
     8  H   -0.000334   0.000135  -0.000334   0.000808   0.000242   0.001303
     9  H    0.000045  -0.000329   0.000215  -0.000652   0.004148  -0.000348
    10  H   -0.000239   0.000238  -0.000685   0.001853   0.002743   0.000075
    11  H    0.000083   0.001075   0.000780  -0.000439  -0.000014  -0.000025
    12  H   -0.000172  -0.000619   0.000743   0.000100  -0.000095   0.000000
    13  H    0.000253  -0.000119  -0.000053  -0.000052   0.000060   0.000035
    14  H   -0.000006   0.000112  -0.000054   0.000026  -0.000046   0.000032
    15  O   -0.000077   0.000960   0.003696  -0.003503  -0.006695   0.002375
    16  H    0.000039  -0.001177  -0.002646   0.006474  -0.005956   0.000382
    17  O   -0.000023  -0.000035  -0.001390  -0.000237   0.003843  -0.000212
               7          8          9         10         11         12
     1  C    0.000094  -0.000334   0.000045  -0.000239   0.000083  -0.000172
     2  C   -0.000024   0.000135  -0.000329   0.000238   0.001075  -0.000619
     3  C    0.000008  -0.000334   0.000215  -0.000685   0.000780   0.000743
     4  C   -0.000093   0.000808  -0.000652   0.001853  -0.000439   0.000100
     5  C   -0.000212   0.000242   0.004148   0.002743  -0.000014  -0.000095
     6  C    0.000080   0.001303  -0.000348   0.000075  -0.000025   0.000000
     7  H   -0.000671   0.000242   0.000215   0.000202  -0.000004   0.000002
     8  H    0.000242  -0.001450  -0.000148  -0.000355   0.000021   0.000008
     9  H    0.000215  -0.000148  -0.003744  -0.000635   0.000047   0.000007
    10  H    0.000202  -0.000355  -0.000635  -0.002903   0.000025  -0.000005
    11  H   -0.000004   0.000021   0.000047   0.000025  -0.001672   0.000010
    12  H    0.000002   0.000008   0.000007  -0.000005   0.000010   0.000182
    13  H   -0.000021   0.000015  -0.000006   0.000011   0.000001  -0.000012
    14  H   -0.000001   0.000006   0.000047  -0.000008   0.000000  -0.000013
    15  O    0.000078  -0.000248  -0.000086  -0.002374  -0.000128   0.000000
    16  H   -0.000004   0.000048   0.000650  -0.001199  -0.000247   0.000033
    17  O    0.000009  -0.000541  -0.000128   0.001519  -0.000154  -0.000000
              13         14         15         16         17
     1  C    0.000253  -0.000006  -0.000077   0.000039  -0.000023
     2  C   -0.000119   0.000112   0.000960  -0.001177  -0.000035
     3  C   -0.000053  -0.000054   0.003696  -0.002646  -0.001390
     4  C   -0.000052   0.000026  -0.003503   0.006474  -0.000237
     5  C    0.000060  -0.000046  -0.006695  -0.005956   0.003843
     6  C    0.000035   0.000032   0.002375   0.000382  -0.000212
     7  H   -0.000021  -0.000001   0.000078  -0.000004   0.000009
     8  H    0.000015   0.000006  -0.000248   0.000048  -0.000541
     9  H   -0.000006   0.000047  -0.000086   0.000650  -0.000128
    10  H    0.000011  -0.000008  -0.002374  -0.001199   0.001519
    11  H    0.000001   0.000000  -0.000128  -0.000247  -0.000154
    12  H   -0.000012  -0.000013   0.000000   0.000033  -0.000000
    13  H   -0.000083   0.000018  -0.000010  -0.000005   0.000001
    14  H    0.000018  -0.000259  -0.000002   0.000001   0.000000
    15  O   -0.000010  -0.000002   0.424487  -0.004063  -0.131613
    16  H   -0.000005   0.000001  -0.004063   0.014606   0.002357
    17  O    0.000001   0.000000  -0.131613   0.002357   0.830913
 Mulliken charges and spin densities:
               1          2
     1  C   -0.142968   0.000621
     2  C   -0.119196  -0.000762
     3  C   -0.190956   0.002110
     4  C    0.123788  -0.017533
     5  C   -0.156540   0.021428
     6  C   -0.156298   0.001445
     7  H    0.090049  -0.000100
     8  H    0.086800  -0.000583
     9  H    0.077670  -0.000701
    10  H    0.097992  -0.001735
    11  H    0.117274  -0.000641
    12  H    0.121600   0.000171
    13  H    0.091737   0.000031
    14  H    0.090189  -0.000146
    15  O   -0.046893   0.282797
    16  H    0.088770   0.009291
    17  O   -0.173018   0.704309
 Sum of Mulliken charges =  -0.00000   1.00000
 Mulliken charges and spin densities with hydrogens summed into heavy atoms:
               1          2
     1  C    0.038958   0.000506
     2  C    0.002404  -0.000591
     3  C   -0.073681   0.001469
     4  C    0.212558  -0.008242
     5  C    0.019122   0.018991
     6  C    0.020551   0.000762
    15  O   -0.046893   0.282797
    17  O   -0.173018   0.704309
 APT charges:
               1
     1  C   -0.878767
     2  C   -0.414586
     3  C   -0.668208
     4  C   -0.338042
     5  C   -0.660396
     6  C   -0.682372
     7  H    0.484485
     8  H    0.222228
     9  H    0.336144
    10  H    0.376750
    11  H    0.507594
    12  H    0.587556
    13  H    0.457924
    14  H    0.411720
    15  O   -0.028793
    16  H    0.372389
    17  O   -0.085626
 Sum of APT charges =  -0.00000
 APT charges with hydrogens summed into heavy atoms:
               1
     1  C   -0.009123
     2  C    0.172970
     3  C   -0.160614
     4  C    0.034347
     5  C    0.052499
     6  C    0.024340
    15  O   -0.028793
    17  O   -0.085626
 Electronic spatial extent (au):  <R**2>=            951.4454
 Charge=             -0.0000 electrons
 Dipole moment (field-independent basis, Debye):
    X=             -2.7440    Y=              0.0452    Z=              1.0071  Tot=              2.9233
 Quadrupole moment (field-independent basis, Debye-Ang):
   XX=            -53.0781   YY=            -45.9904   ZZ=            -48.9024
   XY=              0.7395   XZ=              2.1593   YZ=              0.3122
 Traceless Quadrupole moment (field-independent basis, Debye-Ang):
   XX=             -3.7545   YY=              3.3332   ZZ=              0.4212
   XY=              0.7395   XZ=              2.1593   YZ=              0.3122
 Octapole moment (field-independent basis, Debye-Ang**2):
  XXX=             -6.9458  YYY=              3.2657  ZZZ=             -2.3550  XYY=              5.6793
  XXY=              3.3237  XXZ=              1.2310  XZZ=              5.2406  YZZ=             -2.0093
  YYZ=             -0.5710  XYZ=              1.8410
 Hexadecapole moment (field-independent basis, Debye-Ang**3):
 XXXX=           -796.1718 YYYY=           -331.4848 ZZZZ=           -134.4978 XXXY=              0.2156
 XXXZ=              4.8970 YYYX=             -2.4866 YYYZ=             -1.4899 ZZZX=             -3.5841
 ZZZY=              0.0411 XXYY=           -174.8643 XXZZ=           -148.1924 YYZZ=            -85.6132
 XXYZ=             -1.8278 YYXZ=             -0.2387 ZZXY=              3.7028
 N-N= 3.801984126517D+02 E-N=-1.657301728289D+03  KE= 3.818233950140D+02
  Exact polarizability:       0.000       0.000       0.000       0.000       0.000       0.000
 Approx polarizability:     139.861      -0.333     100.709       7.798       0.275      92.863
                          Isotropic Fermi Contact Couplings
        Atom                 a.u.       MegaHertz       Gauss      10(-4) cm-1
     1  C(13)              0.00025       0.28241       0.10077       0.09420
     2  C(13)             -0.00025      -0.28114      -0.10032      -0.09378
     3  C(13)              0.00176       1.97584       0.70503       0.65907
     4  C(13)             -0.01084     -12.18593      -4.34824      -4.06479
     5  C(13)              0.00592       6.65701       2.37539       2.22054
     6  C(13)              0.00006       0.06923       0.02470       0.02309
     7  H(1)               0.00009       0.41215       0.14707       0.13748
     8  H(1)              -0.00000      -0.01242      -0.00443      -0.00414
     9  H(1)              -0.00001      -0.03861      -0.01378      -0.01288
    10  H(1)              -0.00005      -0.22780      -0.08129      -0.07599
    11  H(1)              -0.00012      -0.54257      -0.19360      -0.18098
    12  H(1)               0.00009       0.40673       0.14513       0.13567
    13  H(1)               0.00004       0.16389       0.05848       0.05467
    14  H(1)              -0.00010      -0.43192      -0.15412      -0.14407
    15  O(17)              0.03692     -22.38209      -7.98649      -7.46586
    16  H(1)               0.00263      11.74238       4.18997       3.91684
    17  O(17)              0.04137     -25.07877      -8.94873      -8.36538
 --------------------------------------------------------
       Center         ----  Spin Dipole Couplings  ----
                      3XX-RR        3YY-RR        3ZZ-RR
 --------------------------------------------------------
     1   Atom        0.003905     -0.001532     -0.002372
     2   Atom        0.004814     -0.000890     -0.003924
     3   Atom        0.006919     -0.003126     -0.003792
     4   Atom        0.008544     -0.010796      0.002253
     5   Atom       -0.008534      0.023364     -0.014829
     6   Atom        0.005299     -0.001836     -0.003464
     7   Atom        0.001915     -0.000208     -0.001707
     8   Atom        0.005136     -0.001929     -0.003207
     9   Atom        0.001144     -0.002201      0.001057
    10   Atom        0.003024      0.001761     -0.004784
    11   Atom        0.000929      0.002299     -0.003229
    12   Atom        0.001858     -0.000606     -0.001253
    13   Atom        0.002148     -0.001158     -0.000990
    14   Atom        0.002098     -0.001105     -0.000993
    15   Atom       -0.554455      1.236367     -0.681912
    16   Atom       -0.001155     -0.008249      0.009404
    17   Atom       -1.083367      2.432069     -1.348702
 --------------------------------------------------------
                        XY            XZ            YZ
 --------------------------------------------------------
     1   Atom       -0.000513      0.000021     -0.000192
     2   Atom       -0.001931      0.000692      0.000147
     3   Atom       -0.007553     -0.002428      0.000975
     4   Atom       -0.005841     -0.018443     -0.001968
     5   Atom        0.011948     -0.007325     -0.012155
     6   Atom        0.003279     -0.001016      0.000442
     7   Atom        0.002547     -0.000041     -0.000081
     8   Atom        0.005238      0.003544      0.001691
     9   Atom        0.001714     -0.004951     -0.001352
    10   Atom        0.007339     -0.006003     -0.006646
    11   Atom       -0.005286     -0.001607      0.001818
    12   Atom       -0.001232     -0.000142      0.000108
    13   Atom        0.000244      0.000571      0.000047
    14   Atom        0.000228     -0.000668     -0.000085
    15   Atom        0.695410      0.126817      0.474440
    16   Atom       -0.004773     -0.012083      0.005741
    17   Atom        1.364592      0.292628      0.851555
 --------------------------------------------------------


 ---------------------------------------------------------------------------------
              Anisotropic Spin Dipole Couplings in Principal Axis System
 ---------------------------------------------------------------------------------

       Atom             a.u.   MegaHertz   Gauss  10(-4) cm-1        Axes

              Baa    -0.0024    -0.324    -0.116    -0.108  0.0146  0.2203  0.9753
     1 C(13)  Bbb    -0.0015    -0.206    -0.074    -0.069  0.0924  0.9710 -0.2207
              Bcc     0.0040     0.530     0.189     0.177  0.9956 -0.0933  0.0062
 
              Baa    -0.0040    -0.538    -0.192    -0.180 -0.1014 -0.1093  0.9888
     2 C(13)  Bbb    -0.0014    -0.193    -0.069    -0.064  0.2790  0.9509  0.1337
              Bcc     0.0054     0.731     0.261     0.244  0.9549 -0.2894  0.0659
 
              Baa    -0.0072    -0.966    -0.345    -0.322  0.4821  0.8710  0.0943
     3 C(13)  Bbb    -0.0042    -0.565    -0.202    -0.188  0.1032 -0.1634  0.9812
              Bcc     0.0114     1.531     0.546     0.511  0.8700 -0.4633 -0.1687
 
              Baa    -0.0176    -2.357    -0.841    -0.786  0.5379  0.6276  0.5628
     4 C(13)  Bbb    -0.0068    -0.917    -0.327    -0.306 -0.3448  0.7731 -0.5324
              Bcc     0.0244     3.275     1.168     1.092  0.7692 -0.0923 -0.6323
 
              Baa    -0.0201    -2.702    -0.964    -0.901  0.4283  0.1321  0.8939
     5 C(13)  Bbb    -0.0114    -1.525    -0.544    -0.509  0.8444 -0.4109 -0.3439
              Bcc     0.0315     4.227     1.508     1.410  0.3218  0.9021 -0.2875
 
              Baa    -0.0041    -0.553    -0.197    -0.185  0.2757 -0.5476  0.7900
     6 C(13)  Bbb    -0.0025    -0.337    -0.120    -0.113 -0.2387  0.7571  0.6081
              Bcc     0.0066     0.891     0.318     0.297  0.9311  0.3562 -0.0781
 
              Baa    -0.0019    -1.022    -0.365    -0.341 -0.5398  0.8152  0.2099
     7 H(1)   Bbb    -0.0017    -0.906    -0.323    -0.302  0.1286 -0.1666  0.9776
              Bcc     0.0036     1.928     0.688     0.643  0.8319  0.5547 -0.0149
 
              Baa    -0.0048    -2.557    -0.912    -0.853 -0.5359  0.7370  0.4120
     8 H(1)   Bbb    -0.0044    -2.333    -0.833    -0.778 -0.0397 -0.5094  0.8596
              Bcc     0.0092     4.890     1.745     1.631  0.8434  0.4442  0.3023
 
              Baa    -0.0039    -2.081    -0.742    -0.694  0.7200 -0.1968  0.6655
     9 H(1)   Bbb    -0.0027    -1.434    -0.512    -0.478 -0.0259  0.9507  0.3091
              Bcc     0.0066     3.515     1.254     1.172  0.6935  0.2398 -0.6794
 
              Baa    -0.0092    -4.885    -1.743    -1.630  0.1885  0.4151  0.8900
    10 H(1)   Bbb    -0.0048    -2.584    -0.922    -0.862  0.7340 -0.6616  0.1531
              Bcc     0.0140     7.470     2.665     2.492  0.6524  0.6244 -0.4294
 
              Baa    -0.0038    -2.016    -0.719    -0.673  0.2234 -0.0958  0.9700
    11 H(1)   Bbb    -0.0037    -1.982    -0.707    -0.661  0.7317  0.6739 -0.1020
              Bcc     0.0075     3.999     1.427     1.334 -0.6439  0.7326  0.2207
 
              Baa    -0.0013    -0.680    -0.243    -0.227 -0.0647 -0.2746  0.9594
    12 H(1)   Bbb    -0.0011    -0.589    -0.210    -0.196  0.3804  0.8820  0.2781
              Bcc     0.0024     1.268     0.453     0.423  0.9226 -0.3829 -0.0474
 
              Baa    -0.0012    -0.628    -0.224    -0.209 -0.0637  0.9964 -0.0554
    13 H(1)   Bbb    -0.0011    -0.582    -0.208    -0.194 -0.1766  0.0434  0.9833
              Bcc     0.0023     1.209     0.431     0.403  0.9822  0.0724  0.1732
 
              Baa    -0.0012    -0.621    -0.222    -0.207  0.1066  0.6582  0.7453
    14 H(1)   Bbb    -0.0011    -0.581    -0.207    -0.194 -0.1869  0.7495 -0.6351
              Bcc     0.0023     1.202     0.429     0.401  0.9766  0.0716 -0.2029
 
              Baa    -0.8236    59.593    21.264    19.878  0.6467 -0.3717  0.6660
    15 O(17)  Bbb    -0.7572    54.793    19.551    18.277 -0.6951  0.0723  0.7153
              Bcc     1.5808  -114.385   -40.815   -38.155  0.3140  0.9255  0.2117
 
[...]
   yy         0.663160D+02      0.982701D+01      0.109340D+02
   zx        -0.476257D+01     -0.705740D+00     -0.785241D+00
   zy        -0.147028D+02     -0.217872D+01     -0.242416D+01
   zz         0.887015D+02      0.131442D+02      0.146249D+02

 ----------------------------------------------------------------------
 Unable to Open any file for archive entry.
 1\1\GINC-HEL01\Freq\UB3LYP\CC-pVTZ\C6H9O2(2)\SAURABH\03-Apr-2022\0\\#P
  Geom=AllCheck Guess=TCheck SCRF=Check GenChk UB3LYP/CC-pVTZ Freq\\Mol
 _02\\0,2\C,-0.0259737492,0.0814288415,-0.3475288726\C,-1.2038733468,1.
 0030663008,-0.4769515038\C,-1.1203183775,2.329375609,-0.4087421058\C,0
 .1673771615,3.0433800962,-0.1466183212\C,1.2990781766,2.1247667683,0.2
 936402027\C,1.3051867984,0.820596817,-0.5031359481\H,2.1322614036,0.18
 51719151,-0.1842754881\H,1.4689149451,1.0489332884,-1.5587825364\H,1.1
 619709991,1.9127689097,1.3580034881\H,2.2412465289,2.6641977743,0.1960
 339812\H,-2.004372355,2.9420544156,-0.5325880682\H,-2.174772382,0.5440
 611212,-0.6281849398\H,-0.1085180962,-0.717754411,-1.0883614715\H,-0.0
 73438788,-0.4194399363,0.6274291565\O,0.5343846026,3.7200508593,-1.423
 1461085\H,0.0328945633,3.8606430446,0.5615490274\O,1.4369336586,4.6570
 093498,-1.2336578296\\Version=EM64L-G16RevC.01\State=2-A\HF=-384.50150
 94\S2=0.754049\S2-1=0.\S2A=0.750011\RMSD=8.505e-10\RMSF=3.438e-06\Zero
 Point=0.1417879\Thermal=0.1492115\ETot=-384.3522979\HTot=-384.3513537\
 GTot=-384.3924216\Dipole=-0.4281612,-1.0422713,0.6570699\DipoleDeriv=0
 .0124787,0.027478,-0.0236316,0.0320632,-0.000847,-0.0024211,-0.0253763
 ,0.0500007,0.198079,0.107731,-0.1387797,0.0617342,-0.0144793,0.2618754
 ,0.0038107,0.0517496,-0.0229616,-0.1566023,0.0195973,-0.0663026,0.0338
 297,-0.0312606,-0.1548315,0.0299531,0.0391832,0.0070943,-0.2579983,0.4
 067814,0.2757507,-0.029683,0.0924472,0.5115078,-0.0795326,-0.1270482,-
 0.1953828,0.4213795,-0.0361626,-0.0275688,-0.0247119,0.0128012,0.03887
 71,0.0009654,0.0345871,0.0419639,0.1055061,0.112718,-0.0151185,0.01155
 91,-0.0108155,0.0478211,-0.0326982,-0.0049924,-0.0264213,0.0916036,-0.
 0980932,0.0992229,-0.0313664,0.0961735,-0.0502845,0.0198265,-0.059829,
 0.0305723,0.0522559,0.0278504,-0.0278291,0.0054987,-0.0371886,0.032369
 5,0.0359789,0.0443335,0.0072726,-0.1191235,0.0648881,0.0345184,0.04019
 ,0.0073413,-0.0042593,0.0486745,0.0186334,0.0182792,-0.1374427,-0.0677
 071,-0.0530318,-0.0160495,-0.075634,-0.0012475,-0.0190692,0.0231201,-0
 .0058745,0.0671041,-0.0748471,0.0592516,-0.0338135,0.0554288,-0.008444
 3,-0.0004977,-0.0461483,-0.0174692,0.1317146,-0.1148464,-0.0524516,-0.
 0279458,-0.0438125,0.0103244,-0.0100546,-0.0352463,-0.0268885,0.120550
 2,0.0201354,0.012691,-0.0206851,-0.0230426,-0.0695233,-0.0800116,-0.01
 39823,-0.1349583,-0.0141047,0.010451,0.0686018,0.0089038,-0.008042,-0.
 0057971,0.0606211,0.0201532,0.1221486,-0.0930502,-0.2965259,-0.1950344
 ,-0.0798374,-0.1138842,-0.3267039,-0.034848,-0.0086048,0.0498994,-0.21
 16694,0.0025302,-0.0456963,0.0178251,0.0042267,-0.1160918,-0.0725067,0
 .0462047,0.0218435,-0.014933,-0.0969792,0.0442984,0.1081835,0.0576776,
 -0.1647452,0.1318096,0.0432628,0.0808818,-0.1832688\Polar=74.9037711,8
 .0749644,93.2969604,0.1319797,-2.5936844,58.2477735\Quadrupole=1.56500
 5,-1.1568634,-0.4081415,-2.0884077,0.8688955,2.2684357\PG=C01 [X(C6H9O
 2)]\NImag=0\\0.45193421,0.00742651,0.53580463,0.00291262,0.02176894,0.
 54572708,-0.16449888,0.05117709,-0.00617810,0.58864097,0.05525675,-0.1
 2894168,0.00177644,0.06680654,0.81700800,-0.01185605,0.00365094,-0.075
 77048,0.06317994,0.03428225,0.16589861,0.00702832,0.02699980,-0.000027
 54,-0.11988209,-0.02117803,-0.00969734,0.57692777,0.00885793,-0.026657
 25,0.00150967,-0.03002985,-0.52814701,-0.02230216,-0.04481102,0.839305
 61,0.00055492,0.00532644,0.00867032,-0.01152088,-0.02087883,-0.0552717
 5,0.06815202,0.01519670,0.15820302,-0.00128842,0.00211186,0.00054268,0
 .00514809,-0.01791739,-0.00207383,-0.18072070,-0.03333655,-0.02631856,
 0.47918162,0.00032950,0.00339276,0.00039402,-0.03066866,-0.02181000,-0
 .00570649,-0.03761186,-0.10786767,-0.02045961,-0.01124007,0.52516018,0
 .00032804,0.00190116,-0.00719988,-0.00179159,-0.00151265,0.00571186,-0
 .03082574,-0.02001611,-0.08332769,0.04091716,0.13768003,0.41316429,-0.
 00029863,-0.02813109,-0.01864325,0.00186948,0.00157630,-0.00056521,-0.
 02814704,0.01655725,-0.01050638,-0.13840167,0.04257745,-0.01743779,0.5
 4442606,-0.00862711,-0.02018954,-0.01124281,0.00100963,0.00017402,-0.0
 0030771,-0.00786350,0.01420146,-0.00398988,0.04391577,-0.11550030,0.00
 586763,0.06501397,0.48028267,-0.00393767,0.00054425,0.00216986,0.00061
 703,0.00046887,-0.00079766,-0.00590769,0.00173974,0.00069485,-0.018415
 64,0.00865516,-0.07707979,-0.02351987,-0.02471559,0.54814707,-0.153407
 82,-0.03955737,0.01188027,-0.03407853,-0.00941696,0.00137772,0.0021937
 2,-0.00291618,0.00043094,0.00013516,0.02497732,0.01601254,-0.08225169,
 -0.00084768,-0.00091241,0.52356483,-0.04103977,-0.10474071,0.00561214,
 0.01569520,0.01542892,-0.00218403,-0.00128534,-0.00044315,-0.00105128,
 0.00988531,-0.02588333,-0.01026844,0.00041136,-0.14885560,-0.04437745,
 -0.06167063,0.48894732,0.01234682,0.00543955,-0.08139036,-0.00558733,-
 0.00051422,0.00040389,-0.00045476,-0.00051247,-0.00010633,0.00406343,0
 .00613053,0.00828168,0.00113817,-0.04358621,-0.11129485,0.01054748,-0.
 04664434,0.55806079,-0.02222453,0.01678505,-0.00776439,-0.00376896,-0.
 00498641,0.00032758,0.00034017,-0.00021725,-0.00008417,0.00072961,-0.0
 0082436,0.00016154,0.00125447,-0.00061648,0.00091964,-0.19362909,0.113
 03471,-0.05870258,0.21204744,-0.01418544,0.01098127,-0.00486431,-0.002
 72557,-0.00220834,0.00018962,-0.00049868,0.00035432,-0.00003017,-0.001
 72320,-0.00426598,-0.00479160,0.02155715,-0.01746330,0.00955111,0.1137
 0554,-0.13508138,0.04584764,-0.12221228,0.14857736,0.00483562,-0.00234
 179,0.00009867,0.00090618,0.00059909,0.00084860,-0.00027180,-0.0001285
 2,0.00000567,-0.00035305,-0.00339959,-0.00241303,0.01502242,-0.0118388
 6,0.00550569,-0.06078201,0.04712044,-0.07306709,0.06426154,-0.04899830
 ,0.07563435,-0.00626236,-0.00780922,0.02858292,0.00135205,-0.00129773,
 0.00058621,0.00010707,0.00050973,-0.00022336,-0.00012745,-0.00008870,0
 .00104151,-0.00025767,0.00054620,-0.00034136,-0.05500869,-0.00548515,0
 .03291667,0.00384582,0.00455708,-0.02412872,0.05835151,-0.00417506,-0.
 00607578,0.01643257,0.00092936,-0.00000369,-0.00064577,0.00001761,0.00
 012642,0.00021271,0.00001515,0.00147162,-0.00039389,0.00416011,0.00516
 506,-0.03073559,-0.00576085,-0.05909744,0.05332820,-0.00285200,-0.0042
 1909,0.01836536,0.01097109,0.06721849,0.00066218,0.00131674,-0.0022635
 3,-0.00023739,-0.00005813,0.00047517,0.00035872,-0.00040085,0.00022102
 ,-0.00017320,0.00075408,-0.00062473,0.00229705,0.00126258,-0.01870841,
 0.03497711,0.05243086,-0.28473628,0.00043519,0.00246287,-0.00928375,-0
 .03821274,-0.05491070,0.31128377,0.00025646,0.00027280,-0.00082738,-0.
 00033453,0.00017789,-0.00035374,-0.00001278,-0.00037069,0.00029582,0.0
 0244442,0.00593828,-0.02394007,-0.05247193,-0.00755136,0.03162997,-0.0
 0054742,-0.00024900,0.00084197,-0.00001555,-0.00003651,0.00029832,0.00
 092612,0.00042090,-0.00020796,0.05356733,0.00060236,0.00181106,-0.0000
 9605,-0.00005339,0.00010791,-0.00000359,-0.00026939,0.00003223,-0.0004
 7332,-0.00461677,-0.00465483,0.01829253,-0.00602221,-0.05749423,0.0494
 2951,0.00356245,0.00501850,-0.03052875,0.00014551,0.00131232,0.0008198
 5,-0.00032755,-0.00500778,-0.00343599,0.00483491,0.06527921,0.00041101
 ,0.00054662,0.00079345,-0.00035955,-0.00011921,0.00009102,-0.00006207,
 0.00041751,0.00045306,0.00214229,0.00203653,-0.01097114,0.03041865,0.0
 5049961,-0.28284101,0.00262926,0.00169014,-0.01840284,0.00027172,-0.00
 010519,0.00078284,0.00014435,-0.00349336,-0.00024214,-0.03419938,-0.05
 291472,0.31083885,0.00106656,0.00072606,0.00032354,0.00020964,0.000507
 32,0.00027276,-0.00215231,0.00414969,-0.00101952,-0.02494457,-0.011552
 15,0.00102749,-0.24282225,-0.10972262,0.02180302,0.00311824,0.00123973
 ,-0.00095551,0.00055777,-0.00042180,-0.00027389,0.00018969,-0.00025585
 ,-0.00031014,-0.00268917,-0.00123986,0.00114514,0.26564884,0.00177680,
 -0.00394879,-0.00428675,0.00076465,-0.00046382,0.00003905,0.00245590,-
 0.00255380,0.00194365,0.01808511,0.01063106,-0.00224682,-0.11184373,-0
 .11055796,0.01178558,-0.02414536,-0.01364003,0.00391862,0.00028330,0.0
 0058885,0.00079654,0.00024300,0.00120589,0.00002098,-0.00543127,-0.003
 43697,0.00106145,0.11926993,0.12087760,0.00090247,-0.00300996,-0.00163
 300,0.00045270,-0.00021975,0.00018205,-0.00129758,0.00212261,0.0000353
 2,-0.01099510,-0.00323430,-0.00168610,0.02572490,0.01203075,-0.0505017
 1,-0.01672186,-0.00893022,0.00172045,0.00031219,0.00072935,0.00062391,
 -0.00033894,0.00072405,0.00046390,0.02780023,0.01462101,-0.00288644,-0
 .02418185,-0.01289149,0.05293133,0.00122892,-0.00121891,-0.00192509,0.
 00512613,-0.00321321,0.00000968,-0.24132055,0.12831160,-0.02859241,-0.
 01886155,0.01635832,-0.00347811,-0.00241725,-0.00410666,0.00007836,0.0
 0033454,-0.00057803,-0.00011884,0.00009539,0.00010514,0.00003628,0.000
 01801,0.00002549,0.00007954,-0.00004817,0.00009836,-0.00016886,-0.0009
 5903,0.00094349,-0.00047936,0.25379938,-0.00292330,-0.00304108,-0.0012
 0756,0.02912026,-0.01702374,0.00355385,0.12567426,-0.14328085,0.016301
 36,-0.01430633,0.01051968,-0.00180759,-0.00254989,-0.00169460,0.000001
 12,-0.00043958,-0.00015426,-0.00001285,0.00011479,0.00014026,0.0000258
 9,0.00008043,0.00006672,-0.00001260,0.00004160,-0.00001899,-0.00004278
 ,-0.00075858,0.00056664,-0.00028845,-0.13640410,0.15291326,-0.00121934
 ,-0.00074633,0.01254668,0.00124718,-0.00201355,0.00419738,-0.02825000,
 0.01749432,-0.04030622,-0.00515504,0.00255902,0.00028004,-0.00099058,-
 0.00152867,0.00118819,-0.00028738,0.00038037,-0.00021383,-0.00009997,0
 .00003011,-0.00007475,-0.00001794,0.00015183,-0.00008152,0.00023438,-0
 .00014102,0.00004087,-0.00054772,0.00036766,-0.00000816,0.03348718,-0.
 01656257,0.02954726,-0.01748200,-0.01116873,-0.00203216,-0.27441628,-0
 .10453871,-0.03684423,0.00066992,0.00120114,-0.00061193,0.00153439,0.0
 0005677,-0.00160688,0.00039535,0.00040013,0.00028488,-0.00158514,0.004
 50711,-0.00148285,-0.00123104,-0.00085894,0.00019790,0.00006794,0.0000
 0175,0.00013323,0.00002507,-0.00003731,-0.00005979,0.00003065,-0.00007
 622,-0.00000233,0.00113353,-0.00023460,0.00123170,0.28997082,0.0180476
 2,0.01084942,0.00158290,-0.09935275,-0.10429393,-0.01588606,-0.0317082
 9,-0.01219516,-0.00541159,0.00202204,-0.00441343,-0.00037328,0.0002981
 9,-0.00030036,0.00012966,0.00250809,-0.00287885,0.00081137,0.00112325,
 0.00059490,-0.00014660,0.00000996,-0.00002184,-0.00007912,-0.00004275,
 0.00006646,0.00000295,-0.00009884,0.00011238,0.00003001,0.00009502,0.0
 0095312,0.00038368,0.11022155,0.11131722,-0.00201891,-0.00326925,0.002
 49191,-0.03720135,-0.01507529,-0.04738331,-0.00202753,-0.00210745,0.00
 572506,-0.00123651,0.00144412,0.01276829,0.00050344,0.00043210,-0.0000
 5462,0.00024811,0.00028625,0.00124899,0.00007542,-0.00001021,0.0002399
 8,-0.00038717,-0.00015939,-0.00002805,-0.00000197,0.00006859,-0.000025
 71,0.00007911,-0.00009238,-0.00003625,0.00147828,0.00035410,-0.0073978
 4,0.04067455,0.01923625,0.03227761,-0.04914840,-0.01348747,-0.01220453
 ,0.00162597,0.02127893,0.01996298,-0.00334146,0.00171821,-0.00089036,-
 0.00153275,-0.00015420,0.00047199,-0.00568252,-0.00162956,0.00150068,-
 0.00160837,-0.02226145,-0.02003457,0.00037616,0.00070506,-0.00032341,0
 .00139342,0.00046057,0.00019877,0.00001218,0.00028867,0.00005035,0.000
 19040,-0.00174537,-0.00081668,0.00045614,0.00088796,-0.00165919,0.0009
 6107,-0.00070029,-0.00011622,0.05556854,-0.01439182,-0.17679459,-0.126
 71183,0.00060844,-0.01953218,-0.01355228,0.00335080,0.00079210,0.00035
 678,-0.00018590,0.00072477,-0.00078291,-0.00333406,-0.00038821,0.00108
 707,-0.00136093,-0.01158794,-0.00968385,-0.00018507,0.00031490,0.00006
 223,0.00040079,0.00026935,0.00034491,0.00002924,0.00008123,-0.00004232
 ,0.00018677,-0.00081577,-0.00056490,-0.00024065,-0.00084316,0.00112064
 ,0.00003231,0.00100563,0.00073677,0.01416235,0.19604913,-0.01252768,-0
 .12804755,-0.16496547,-0.00032194,0.00433098,0.00341792,0.00006288,0.0
 0063887,-0.00026389,-0.00000207,0.00006491,0.00003132,0.00063894,0.000
 64709,0.00068682,0.00061241,0.00498066,0.00288586,-0.00043694,-0.00025
 658,-0.00015949,-0.00029496,0.00017271,0.00103616,0.00010782,0.0003524
 9,0.00033001,0.00014493,0.00006643,0.00029007,-0.00003802,0.00016283,-
 0.00028957,0.00059113,-0.00036360,0.00061102,0.01344644,0.13832383,0.1
 7881917,-0.04598621,-0.00328222,0.00404162,0.00161430,0.01331493,-0.02
 359368,-0.00188522,0.00091253,0.00043473,-0.00114029,-0.00054041,-0.00
 099992,0.00039903,0.00133296,0.00058917,-0.00357958,-0.01311071,0.0279
 2674,0.00133507,0.00062271,0.00002075,-0.00470740,-0.00366413,0.000268
 12,0.00026307,-0.00010535,-0.00061740,0.00001824,0.00014910,-0.0002212
 0,-0.00032333,0.00030843,0.00222646,-0.00020518,-0.00073314,0.00101801
 ,0.00005753,0.00085123,-0.00189825,0.05306166,-0.00705398,-0.09216231,
 0.09794091,0.00251905,-0.01537851,0.01912718,0.00286339,0.00075981,-0.
 00009881,0.00012379,-0.00018137,0.00129892,0.00028464,0.00049735,0.001
 14709,-0.00112334,-0.00680423,0.01387405,0.00046453,0.00102768,-0.0005
 0972,-0.00231869,-0.00082889,0.00003453,-0.00003619,-0.00019261,-0.000
 60834,-0.00003222,0.00011351,-0.00036238,0.00031368,-0.00042280,-0.001
 78905,0.00038434,0.00011548,-0.00020273,0.00030935,0.01064350,-0.02085
 630,0.00358296,0.10301836,0.00867892,0.09649756,-0.23922547,-0.0021584
 8,0.00277468,-0.00049451,-0.00072171,-0.00145008,0.00002214,0.00008987
 ,-0.00013377,-0.00022408,0.00010436,-0.00000750,0.00093543,0.00153173,
 0.00068824,-0.00333716,0.00054581,-0.00020136,0.00070896,0.00079294,0.
 00018293,0.00147988,0.00008253,0.00061168,0.00007156,0.00000882,0.0000
 6530,-0.00000353,0.00003443,0.00011727,-0.00000915,-0.00056275,0.00049
 039,0.00005008,0.00043671,0.00925013,-0.02255833,-0.00886865,-0.108756
 56,0.26236131,-0.00048271,-0.00061956,0.00109061,-0.00197078,0.0027136
 2,0.00053318,-0.01495015,-0.02164590,0.02321385,-0.04277883,0.00391637
 ,-0.00693376,0.00779197,0.00492564,-0.01696938,0.00015856,-0.00036637,
 0.00017815,0.00006496,-0.00003530,-0.00012867,0.00011393,0.00025526,-0
 .00003291,-0.00306537,0.00309779,-0.00122809,0.00021871,-0.00045599,-0
 .00092063,0.00100963,0.00061555,-0.00052904,0.00028241,-0.00024899,-0.
 00202481,0.00021185,0.00000152,-0.00002172,0.00053574,-0.00016575,0.00
 007071,0.24016858,-0.00004508,-0.00047944,0.00102975,-0.00136878,0.002
 87123,0.00082589,-0.01706309,-0.01871467,0.01518757,0.00790132,-0.0320
 7671,0.00259579,-0.00194419,-0.01464368,0.02729971,0.00018977,0.000729
 59,-0.00029373,-0.00000984,0.00020549,0.00026974,-0.00003334,-0.000130
 30,0.00055262,0.00188877,-0.00377876,0.00125922,-0.00240272,0.00019711
 ,-0.00095607,0.00063281,0.00073902,-0.00039163,0.00009421,-0.00007434,
 -0.00139480,0.00008266,0.00010628,-0.00014187,0.00004678,-0.00008247,-
 0.00008137,0.20168063,0.25537270,-0.00030911,0.00048792,0.00035168,-0.
 00177232,-0.00408783,-0.00145772,0.00953229,0.00606499,0.00932705,-0.0
 2896727,-0.02246868,-0.12738130,-0.00304971,0.01721812,-0.02753336,0.0
 0043674,-0.00096542,0.00064141,-0.00007000,-0.00022428,0.00012276,0.00
 002538,0.00068630,0.00075658,-0.00289486,0.00369096,0.00099345,0.00156
 884,-0.00049255,0.00083346,-0.00050462,-0.00044222,0.00030142,0.000020
 41,-0.00058069,-0.00093459,0.00001134,-0.00000961,0.00008675,-0.000100
 52,-0.00026803,0.00020881,0.05255996,0.01200771,0.25747349,-0.00017904
 ,-0.00012632,-0.00040994,-0.00443521,0.00004528,-0.00102253,0.00356870
 ,-0.02411342,-0.01959831,-0.05339137,0.02430693,0.01569418,-0.00258750
 ,0.02126908,0.01538107,-0.00397035,0.00166766,-0.00267887,0.00013292,0
 .00143734,0.00078493,0.00000241,-0.00026661,-0.00002063,0.00131715,-0.
 00065451,-0.00016009,0.00052556,-0.00066473,0.00052572,0.00098138,0.00
 071162,0.00040368,-0.00029680,-0.00102890,0.00183870,0.00022894,0.0000
 2379,-0.00003983,0.00022471,-0.00002742,-0.00004069,-0.00244170,0.0017
 4607,0.01091432,0.05855697,0.00034870,0.00057423,-0.00008124,-0.002248
 46,0.00118994,-0.00089037,-0.00000955,-0.01197291,-0.00898261,0.027474
 53,-0.19920123,-0.13481785,0.00252544,-0.01419992,-0.01109434,0.003237
 87,-0.00075342,0.00193129,-0.00016962,-0.00099606,-0.00061556,-0.00001
 515,0.00025738,0.00003289,-0.00024230,0.00015499,0.00029797,0.00025530
 ,0.00064135,-0.00000793,-0.00036264,0.00085342,0.00065568,-0.00011925,
 -0.00046695,0.00074583,0.00002369,-0.00000999,-0.00003182,0.00002935,-
 0.00001250,-0.00003175,-0.00782672,0.00607187,0.01827612,-0.02574616,0
 .21479173,0.00004246,-0.00021281,-0.00017499,-0.00092850,0.00021266,-0
 .00032164,-0.00014073,-0.00389145,0.00045488,0.02009226,-0.12650992,-0
 .14590164,-0.00164419,0.00815949,0.00774438,-0.00214942,0.00114711,0.0
 0009961,-0.00009921,0.00058995,0.00030461,-0.00004684,0.00013230,0.000
 05128,0.00047783,-0.00013705,0.00097854,-0.00005023,-0.00031808,0.0000
 9115,-0.00021896,-0.00005682,0.00027798,0.00008286,-0.00021926,-0.0001
 3465,-0.00003148,-0.00000004,0.00001707,-0.00007359,-0.00000248,0.0000
 2834,0.01010605,-0.00865052,-0.04222174,-0.02166155,0.13301719,0.17425
 614,-0.00025547,-0.00009828,0.00063811,-0.00220136,0.00087088,-0.00024
 343,0.00157662,-0.00477723,0.00628358,-0.02598568,-0.02578053,0.011359
 40,-0.00079819,0.00255159,-0.00279980,0.00016163,-0.00039463,0.0000559
 1,0.00008939,0.00000773,-0.00010239,-0.00000440,-0.00028278,-0.0002149
 3,0.00037311,0.00069631,-0.00035752,0.00179304,0.00039138,0.00025730,-
 0.00025317,0.00006148,-0.00007440,0.00014528,-0.00041177,-0.00090115,0
 .00023130,0.00005119,-0.00002314,0.00031786,-0.00008813,-0.00002453,-0
 .18486679,-0.19139598,-0.03740088,0.00176323,0.00284498,-0.00375675,0.
 20791359,-0.00020462,-0.00038219,0.00044321,-0.00218276,0.00102287,-0.
 00019033,0.00093699,-0.00373947,0.00685088,-0.02820867,-0.03604520,0.0
 0937507,-0.00113666,0.00096716,-0.00091589,-0.00094215,-0.00020399,0.0
 0049516,0.00012217,0.00013679,-0.00008021,0.00005725,-0.00039610,-0.00
 031567,0.00035569,0.00072025,-0.00048608,0.00014984,0.00048276,0.00020
 767,-0.00075971,-0.00027263,0.00002951,0.00013446,-0.00036971,-0.00099
 250,0.00006091,-0.00001504,-0.00004307,0.00028499,-0.00010998,-0.00001
 579,-0.18584181,-0.19631293,-0.02889284,0.00142030,0.00307807,-0.00326
 028,0.21575380,0.23143935,0.00019369,0.00014758,-0.00022648,0.00165442
 ,0.00003448,0.00027058,0.00157855,0.00562467,-0.00453652,0.02584257,0.
 02219396,0.01657190,0.00050906,0.00109984,0.00173911,0.00016878,0.0000
 8499,-0.00079394,-0.00005338,0.00008133,0.00012208,-0.00009794,-0.0000
 5028,0.00020067,0.00065651,-0.00015613,-0.00000436,0.00096520,0.000262
 82,-0.00041646,0.00032053,-0.00008298,0.00000121,-0.00001373,0.0003929
 7,0.00058208,-0.00000283,0.00006537,0.00002460,-0.00015240,0.00003173,
 -0.00001428,-0.05896349,-0.04911800,-0.07156813,0.00008983,0.00159651,
 0.00445067,0.02730461,0.01779115,0.05359727\\-0.00000104,-0.00000162,-
 0.00000137,0.00000129,0.00000251,0.00000032,-0.00000113,-0.00000519,-0
 .00000078,-0.00000829,0.00000372,0.00000923,0.00000802,0.00000609,-0.0
 0000051,0.00000515,-0.00000518,0.00000281,-0.00000080,0.00000216,-0.00
 000028,0.00000021,-0.00000003,0.00000401,0.00000109,0.00000046,-0.0000
 0277,-0.00000316,0.00000101,-0.00000054,-0.00000100,-0.00000216,-0.000
 00049,0.00000110,-0.00000220,0.00000074,0.00000154,0.00000071,0.000002
 20,0.00000177,0.00000058,0.00000016,0.00000122,0.00000551,-0.00000702,
 -0.00000025,-0.00000381,-0.00000538,-0.00000572,-0.00000255,-0.0000003
 4\\\@
 The archive entry for this job was punched.


 COLLEGE PROFESSOR: SOMEONE WHO TALKS IN OTHER PEOPLE'S SLEEP.
 Job cpu time:       0 days  3 hours 19 minutes 30.6 seconds.
 Elapsed time:       0 days  0 hours 24 minutes 55.7 seconds.
 File lengths (MBytes):  RWF=    346 Int=      0 D2E=      0 Chk=     16 Scr=      1
 Normal termination of Gaussian 16 at Sun Apr  3 21:01:28 2022.
