 Entering Gaussian System, Link 0=g16
 Input=Mol_04.com
 Output=Mol_04.log
 Initial command:
 /home/saurabh/g16/l1.exe "/scratch/saurabh/PBS_8053883.helios/Gau-33431.inp" -scrdir="/scratch/saurabh/PBS_8053883.helios/"
 Entering Link 1 = /home/saurabh/g16/l1.exe PID=     33432.
  
 Copyright (c) 1988-2019, Gaussian, Inc.  All Rights Reserved.
  
 This is part of the Gaussian(R) 16 program.  It is based on
 the Gaussian(R) 09 system (copyright 2009, Gaussian, Inc.),
 the Gaussian(R) 03 system (copyright 2003, Gaussian, Inc.),
 the Gaussian(R) 98 system (copyright 1998, Gaussian, Inc.),
 the Gaussian(R) 94 system (copyright 1995, Gaussian, Inc.),
 the Gaussian 92(TM) system (copyright 1992, Gaussian, Inc.),
 the Gaussian 90(TM) system (copyright 1990, Gaussian, Inc.),
 the Gaussian 88(TM) system (copyright 1988, Gaussian, Inc.),
 the Gaussian 86(TM) system (copyright 1986, Carnegie Mellon
 University), and the Gaussian 82(TM) system (copyright 1983,
 Carnegie Mellon University). Gaussian is a federally registered
 trademark of Gaussian, Inc.
  
 This software contains proprietary and confidential information,
 including trade secrets, belonging to Gaussian, Inc.
  
 This software is provided under written license and may be
 used, copied, transmitted, or stored only in accord with that
 written license.
  
 The following legend is applicable only to US Government
 contracts under FAR:
  
                    RESTRICTED RIGHTS LEGEND
  
 Use, reproduction and disclosure by the US Government is
 subject to restrictions as set forth in subparagraphs (a)
 and (c) of the Commercial Computer Software - Restricted
 Rights clause in FAR 52.227-19.
  
 Gaussian, Inc.
 340 Quinnipiac St., Bldg. 40, Wallingford CT 06492
  
  
 ---------------------------------------------------------------
 Warning -- This program may not be used in any manner that
 competes with the business of Gaussian, Inc. or will provide
 assistance to any competitor of Gaussian, Inc.  The licensee
 of this program is prohibited from giving any competitor of
 Gaussian, Inc. access to this program.  By using this program,
 the user acknowledges that Gaussian, Inc. is engaged in the
 business of creating and licensing software in the field of
 computational chemistry and represents and warrants to the
 licensee that it is not a competitor of Gaussian, Inc. and that
 it will not use this program in any manner prohibited above.
 ---------------------------------------------------------------
  

 Cite this work as:
 Gaussian 16, Revision C.01,
 M. J. Frisch, G. W. Trucks, H. B. Schlegel, G. E. Scuseria, 
 M. A. Robb, J. R. Cheeseman, G. Scalmani, V. Barone, 
 G. A. Petersson, H. Nakatsuji, X. Li, M. Caricato, A. V. Marenich, 
 J. Bloino, B. G. Janesko, R. Gomperts, B. Mennucci, H. P. Hratchian, 
 J. V. Ortiz, A. F. Izmaylov, J. L. Sonnenberg, D. Williams-Young, 
 F. Ding, F. Lipparini, F. Egidi, J. Goings, B. Peng, A. Petrone, 
 T. Henderson, D. Ranasinghe, V. G. Zakrzewski, J. Gao, N. Rega, 
 G. Zheng, W. Liang, M. Hada, M. Ehara, K. Toyota, R. Fukuda, 
 J. Hasegawa, M. Ishida, T. Nakajima, Y. Honda, O. Kitao, H. Nakai, 
 T. Vreven, K. Throssell, J. A. Montgomery, Jr., J. E. Peralta, 
 F. Ogliaro, M. J. Bearpark, J. J. Heyd, E. N. Brothers, K. N. Kudin, 
 V. N. Staroverov, T. A. Keith, R. Kobayashi, J. Normand, 
 K. Raghavachari, A. P. Rendell, J. C. Burant, S. S. Iyengar, 
 J. Tomasi, M. Cossi, J. M. Millam, M. Klene, C. Adamo, R. Cammi, 
 J. W. Ochterski, R. L. Martin, K. Morokuma, O. Farkas, 
 J. B. Foresman, and D. J. Fox, Gaussian, Inc., Wallingford CT, 2019.
 
 ******************************************
 Gaussian 16:  EM64L-G16RevC.01  3-Jul-2019
                 3-Apr-2022 
 ******************************************
 %mem=8gb
 %nproc=8
 Will use up to    8 processors via shared memory.
 %chk=Mol_04.chk
 ----------------------------------------------------------------------
 #p B3LYP/cc-PVTZ scf(verytight, maxcycles=1000) opt(calcfc, maxcyc=100
 0) freq(hpmodes) int(grid=ultrafine)
 ----------------------------------------------------------------------
 1/6=1000,10=4,18=20,19=15,26=4,38=1/1,3;
 2/9=110,12=2,17=6,18=5,40=1/2;
 3/5=16,6=1,11=2,25=1,30=1,71=2,74=-5,75=-5,140=1/1,2,3;
 4//1;
 5/5=2,7=1000,17=3,38=5/2;
 8/6=4,10=90,11=11/1;
 11/6=1,8=1,9=11,15=111,16=1/1,2,10;
 10/6=1,13=1/2;
 6/7=2,8=2,9=2,10=2,28=1/1;
 7/10=1,25=1/1,2,3,16;
 1/6=1000,10=4,18=20,19=15,26=4/3(2);
 2/9=110/2;
 99//99;
 2/9=110/2;
 3/5=16,6=1,11=2,25=1,30=1,71=1,74=-5,75=-5/1,2,3;
 4/5=5,16=3,69=1/1;
 5/5=2,7=1000,17=3,38=5/2;
 7//1,2,3,16;
 1/6=1000,18=20,19=15,26=4/3(-5);
 2/9=110/2;
 6/7=2,8=2,9=2,10=2,19=2,28=1/1;
 99/9=1/99;
 Leave Link    1 at Sun Apr  3 19:48:08 2022, MaxMem=  1073741824 cpu:               0.5 elap:               0.1
 (Enter /home/saurabh/g16/l101.exe)
 ------
 Mol_04
 ------
 Symbolic Z-matrix:
 Charge =  0 Multiplicity = 1
 C                    -0.14998   0.05608  -0.33777 
 C                    -1.20573   1.03385  -0.76623 
 C                    -1.13382   2.3167   -0.381 
 C                     0.05985   2.84003   0.38205 
 C                     1.28925   1.96283   0.39272 
 C                     1.24163   0.67878  -0.45914 
 H                     1.976    -0.04903  -0.05288 
 H                     1.50758   0.88225  -1.52029 
 H                    -1.90913   3.01206  -0.68579 
 H                    -2.0291    0.70099  -1.39066 
 H                    -0.24002  -0.89516  -0.90384 
 H                    -0.3152   -0.16985   0.73922 
 O                     1.13023   3.07314  -0.47584 
 H                    -0.0271    3.52458   1.25074 
 H                     2.23295   2.21066   0.92187 
 
 ITRead=  0  0  0  0  0  0  0  0  0  0  0  0  0  0  0
 MicOpt= -1 -1 -1 -1 -1 -1 -1 -1 -1 -1 -1 -1 -1 -1 -1
 NAtoms=     15 NQM=       15 NQMF=       0 NMMI=      0 NMMIF=      0
                NMic=       0 NMicF=      0.
                    Isotopes and Nuclear Properties:
 (Nuclear quadrupole moments (NQMom) in fm**2, nuclear magnetic moments (NMagM)
  in nuclear magnetons)

  Atom         1           2           3           4           5           6           7           8           9          10
 IAtWgt=          12          12          12          12          12          12           1           1           1           1
 AtmWgt=  12.0000000  12.0000000  12.0000000  12.0000000  12.0000000  12.0000000   1.0078250   1.0078250   1.0078250   1.0078250
 NucSpn=           0           0           0           0           0           0           1           1           1           1
 AtZEff=  -0.0000000  -0.0000000  -0.0000000  -0.0000000  -0.0000000  -0.0000000  -0.0000000  -0.0000000  -0.0000000  -0.0000000
 NQMom=    0.0000000   0.0000000   0.0000000   0.0000000   0.0000000   0.0000000   0.0000000   0.0000000   0.0000000   0.0000000
 NMagM=    0.0000000   0.0000000   0.0000000   0.0000000   0.0000000   0.0000000   2.7928460   2.7928460   2.7928460   2.7928460
 AtZNuc=   6.0000000   6.0000000   6.0000000   6.0000000   6.0000000   6.0000000   1.0000000   1.0000000   1.0000000   1.0000000

  Atom        11          12          13          14          15
 IAtWgt=           1           1          16           1           1
 AtmWgt=   1.0078250   1.0078250  15.9949146   1.0078250   1.0078250
 NucSpn=           1           1           0           1           1
 AtZEff=  -0.0000000  -0.0000000  -0.0000000  -0.0000000  -0.0000000
 NQMom=    0.0000000   0.0000000   0.0000000   0.0000000   0.0000000
 NMagM=    2.7928460   2.7928460   0.0000000   2.7928460   2.7928460
 AtZNuc=   1.0000000   1.0000000   8.0000000   1.0000000   1.0000000
 Leave Link  101 at Sun Apr  3 19:48:09 2022, MaxMem=  1073741824 cpu:               2.2 elap:               0.3
 (Enter /home/saurabh/g16/l103.exe)

 GradGradGradGradGradGradGradGradGradGradGradGradGradGradGradGradGradGrad
 Berny optimization.
 Initialization pass.
                           ----------------------------
                           !    Initial Parameters    !
                           ! (Angstroms and Degrees)  !
 --------------------------                            --------------------------
 ! Name  Definition              Value          Derivative Info.                !
 --------------------------------------------------------------------------------
 ! R1    R(1,2)                  1.5014         calculate D2E/DX2 analytically  !
 ! R2    R(1,6)                  1.5294         calculate D2E/DX2 analytically  !
 ! R3    R(1,11)                 1.1106         calculate D2E/DX2 analytically  !
 ! R4    R(1,12)                 1.1128         calculate D2E/DX2 analytically  !
 ! R5    R(2,3)                  1.3414         calculate D2E/DX2 analytically  !
 ! R6    R(2,10)                 1.0857         calculate D2E/DX2 analytically  !
 ! R7    R(3,4)                  1.5103         calculate D2E/DX2 analytically  !
 ! R8    R(3,9)                  1.0851         calculate D2E/DX2 analytically  !
 ! R9    R(4,5)                  1.5103         calculate D2E/DX2 analytically  !
 ! R10   R(4,13)                 1.3914         calculate D2E/DX2 analytically  !
 ! R11   R(4,14)                 1.1094         calculate D2E/DX2 analytically  !
 ! R12   R(5,6)                  1.5417         calculate D2E/DX2 analytically  !
 ! R13   R(5,13)                 1.4186         calculate D2E/DX2 analytically  !
 ! R14   R(5,15)                 1.1099         calculate D2E/DX2 analytically  !
 ! R15   R(6,7)                  1.1109         calculate D2E/DX2 analytically  !
 ! R16   R(6,8)                  1.1127         calculate D2E/DX2 analytically  !
 ! A1    A(2,1,6)              110.6113         calculate D2E/DX2 analytically  !
 ! A2    A(2,1,11)             110.8137         calculate D2E/DX2 analytically  !
 ! A3    A(2,1,12)             107.6986         calculate D2E/DX2 analytically  !
 ! A4    A(6,1,11)             112.461          calculate D2E/DX2 analytically  !
 ! A5    A(6,1,12)             107.1322         calculate D2E/DX2 analytically  !
 ! A6    A(11,1,12)            107.9012         calculate D2E/DX2 analytically  !
 ! A7    A(1,2,3)              120.2097         calculate D2E/DX2 analytically  !
 ! A8    A(1,2,10)             119.8519         calculate D2E/DX2 analytically  !
 ! A9    A(3,2,10)             119.9384         calculate D2E/DX2 analytically  !
 ! A10   A(2,3,4)              121.2559         calculate D2E/DX2 analytically  !
 ! A11   A(2,3,9)              119.595          calculate D2E/DX2 analytically  !
 ! A12   A(4,3,9)              118.9844         calculate D2E/DX2 analytically  !
 ! A13   A(3,4,5)              116.4665         calculate D2E/DX2 analytically  !
 ! A14   A(3,4,13)             110.7658         calculate D2E/DX2 analytically  !
 ! A15   A(3,4,14)             123.1936         calculate D2E/DX2 analytically  !
 ! A16   A(5,4,14)             114.6233         calculate D2E/DX2 analytically  !
 ! A17   A(13,4,14)            116.0846         calculate D2E/DX2 analytically  !
 ! A18   A(4,5,6)              117.0461         calculate D2E/DX2 analytically  !
 ! A19   A(4,5,15)             124.4554         calculate D2E/DX2 analytically  !
 ! A20   A(6,5,13)             108.0659         calculate D2E/DX2 analytically  !
 ! A21   A(6,5,15)             118.4026         calculate D2E/DX2 analytically  !
 ! A22   A(13,5,15)            102.2647         calculate D2E/DX2 analytically  !
 ! A23   A(1,6,5)              108.8672         calculate D2E/DX2 analytically  !
 ! A24   A(1,6,7)              107.8026         calculate D2E/DX2 analytically  !
 ! A25   A(1,6,8)              111.5677         calculate D2E/DX2 analytically  !
 ! A26   A(5,6,7)              108.856          calculate D2E/DX2 analytically  !
 ! A27   A(5,6,8)              111.5471         calculate D2E/DX2 analytically  !
 ! A28   A(7,6,8)              108.0927         calculate D2E/DX2 analytically  !
 ! D1    D(6,1,2,3)            -42.9024         calculate D2E/DX2 analytically  !
 ! D2    D(6,1,2,10)           137.0342         calculate D2E/DX2 analytically  !
 ! D3    D(11,1,2,3)          -168.3284         calculate D2E/DX2 analytically  !
 ! D4    D(11,1,2,10)           11.6082         calculate D2E/DX2 analytically  !
 ! D5    D(12,1,2,3)            73.8655         calculate D2E/DX2 analytically  !
 ! D6    D(12,1,2,10)         -106.1979         calculate D2E/DX2 analytically  !
 ! D7    D(2,1,6,5)             57.4267         calculate D2E/DX2 analytically  !
 ! D8    D(2,1,6,7)            175.3608         calculate D2E/DX2 analytically  !
 ! D9    D(2,1,6,8)            -66.1065         calculate D2E/DX2 analytically  !
 ! D10   D(11,1,6,5)          -178.0821         calculate D2E/DX2 analytically  !
 ! D11   D(11,1,6,7)           -60.148          calculate D2E/DX2 analytically  !
 ! D12   D(11,1,6,8)            58.3847         calculate D2E/DX2 analytically  !
 ! D13   D(12,1,6,5)           -59.6908         calculate D2E/DX2 analytically  !
 ! D14   D(12,1,6,7)            58.2433         calculate D2E/DX2 analytically  !
 ! D15   D(12,1,6,8)           176.7759         calculate D2E/DX2 analytically  !
 ! D16   D(1,2,3,4)              5.4986         calculate D2E/DX2 analytically  !
 ! D17   D(1,2,3,9)           -179.2127         calculate D2E/DX2 analytically  !
 ! D18   D(10,2,3,4)          -174.4379         calculate D2E/DX2 analytically  !
 ! D19   D(10,2,3,9)             0.8508         calculate D2E/DX2 analytically  !
 ! D20   D(2,3,4,5)             14.4535         calculate D2E/DX2 analytically  !
 ! D21   D(2,3,4,13)            78.4852         calculate D2E/DX2 analytically  !
 ! D22   D(2,3,4,14)          -137.418          calculate D2E/DX2 analytically  !
 ! D23   D(9,3,4,5)           -160.8633         calculate D2E/DX2 analytically  !
 ! D24   D(9,3,4,13)           -96.8316         calculate D2E/DX2 analytically  !
 ! D25   D(9,3,4,14)            47.2652         calculate D2E/DX2 analytically  !
 ! D26   D(3,4,5,6)              4.4945         calculate D2E/DX2 analytically  !
 ! D27   D(3,4,5,15)          -179.1343         calculate D2E/DX2 analytically  !
 ! D28   D(14,4,5,6)           158.7737         calculate D2E/DX2 analytically  !
 ! D29   D(14,4,5,15)          -24.8551         calculate D2E/DX2 analytically  !
 ! D30   D(4,5,6,1)            -39.462          calculate D2E/DX2 analytically  !
 ! D31   D(4,5,6,7)           -156.7286         calculate D2E/DX2 analytically  !
 ! D32   D(4,5,6,8)             84.0835         calculate D2E/DX2 analytically  !
 ! D33   D(13,5,6,1)          -100.5669         calculate D2E/DX2 analytically  !
 ! D34   D(13,5,6,7)           142.1665         calculate D2E/DX2 analytically  !
 ! D35   D(13,5,6,8)            22.9786         calculate D2E/DX2 analytically  !
 ! D36   D(15,5,6,1)           143.9394         calculate D2E/DX2 analytically  !
 ! D37   D(15,5,6,7)            26.6728         calculate D2E/DX2 analytically  !
 ! D38   D(15,5,6,8)           -92.5151         calculate D2E/DX2 analytically  !
 --------------------------------------------------------------------------------
 Trust Radius=3.00D-01 FncErr=1.00D-07 GrdErr=1.00D-06 EigMax=2.50D+02 EigMin=1.00D-04
 Number of steps in this run=    100 maximum allowed number of steps=    100.
 GradGradGradGradGradGradGradGradGradGradGradGradGradGradGradGradGradGrad

 Leave Link  103 at Sun Apr  3 19:48:09 2022, MaxMem=  1073741824 cpu:               0.2 elap:               0.1
 (Enter /home/saurabh/g16/l202.exe)
                          Input orientation:                          
 ---------------------------------------------------------------------
 Center     Atomic      Atomic             Coordinates (Angstroms)
 Number     Number       Type             X           Y           Z
 ---------------------------------------------------------------------
      1          6           0       -0.149976    0.056084   -0.337767
      2          6           0       -1.205733    1.033853   -0.766226
      3          6           0       -1.133817    2.316704   -0.380996
      4          6           0        0.059855    2.840027    0.382052
      5          6           0        1.289253    1.962825    0.392724
      6          6           0        1.241629    0.678783   -0.459137
      7          1           0        1.976000   -0.049028   -0.052883
      8          1           0        1.507576    0.882252   -1.520288
      9          1           0       -1.909133    3.012057   -0.685792
     10          1           0       -2.029104    0.700987   -1.390664
     11          1           0       -0.240016   -0.895160   -0.903843
     12          1           0       -0.315202   -0.169848    0.739224
     13          8           0        1.130231    3.073138   -0.475840
     14          1           0       -0.027097    3.524577    1.250741
     15          1           0        2.232950    2.210662    0.921870
 ---------------------------------------------------------------------
                    Distance matrix (angstroms):
                    1          2          3          4          5
     1  C    0.000000
     2  C    1.501410   0.000000
     3  C    2.465809   1.341373   0.000000
     4  C    2.883142   2.486468   1.510285   0.000000
     5  C    2.498131   2.903637   2.568100   1.510304   0.000000
     6  C    1.529395   2.491979   2.886457   2.602915   1.541655
     7  H    2.147553   3.435829   3.921137   3.493913   2.172036
     8  H    2.197359   2.820220   3.214436   3.089932   2.207922
     9  H    3.457388   2.101079   1.085141   2.246508   3.534651
    10  H    2.248469   1.085662   2.105115   3.475883   3.972933
    11  H    1.110592   2.161629   3.374659   3.961701   3.491107
    12  H    1.112769   2.123281   2.847449   3.054111   2.691214
    13  O    3.280337   3.114440   2.388954   1.391411   1.418621
    14  H    3.816923   3.414827   2.312218   1.109410   2.215410
    15  H    3.450686   4.007380   3.611624   2.325908   1.109948
                    6          7          8          9         10
     6  C    0.000000
     7  H    1.110880   0.000000
     8  H    1.112730   1.799995   0.000000
     9  H    3.927193   4.986490   4.111734   0.000000
    10  H    3.400872   4.288711   3.543694   2.419149   0.000000
    11  H    2.206883   2.520079   2.567737   4.254392   2.446532
    12  H    2.140086   2.427270   3.087852   3.833512   2.869187
    13  O    2.397003   3.262229   2.456266   3.047220   4.055293
    14  H    3.554138   4.299127   4.125010   2.748617   4.354045
    15  H    2.288352   2.474342   2.873148   4.514828   5.078586
                   11         12         13         14         15
    11  H    0.000000
    12  H    1.797610   0.000000
    13  O    4.219971   3.752681   0.000000
    14  H    4.921549   3.740780   2.127038   0.000000
    15  H    4.369774   3.491886   1.978243   2.634833   0.000000
 Stoichiometry    C6H8O
 Framework group  C1[X(C6H8O)]
 Deg. of freedom    39
 Full point group                 C1      NOp   1
 Largest Abelian subgroup         C1      NOp   1
 Largest concise Abelian subgroup C1      NOp   1
                         Standard orientation:                         
 ---------------------------------------------------------------------
 Center     Atomic      Atomic             Coordinates (Angstroms)
 Number     Number       Type             X           Y           Z
 ---------------------------------------------------------------------
      1          6           0       -1.544556   -0.568450    0.228502
      2          6           0       -1.379495    0.871681   -0.162664
      3          6           0       -0.194811    1.481531   -0.008106
      4          6           0        1.027424    0.716838    0.441725
      5          6           0        0.939108   -0.789644    0.380654
      6          6           0       -0.341023   -1.392570   -0.231264
      7          1           0       -0.470403   -2.426562    0.153671
      8          1           0       -0.279240   -1.442236   -1.341168
      9          1           0       -0.090074    2.526267   -0.282130
     10          1           0       -2.221846    1.420220   -0.572798
     11          1           0       -2.506220   -0.973047   -0.152177
     12          1           0       -1.569349   -0.616404    1.339961
     13          8           0        1.574851   -0.004108   -0.614961
     14          1           0        1.747034    1.107719    1.190166
     15          1           0        1.751412   -1.479411    0.691085
 ---------------------------------------------------------------------
 Rotational constants (GHZ):           4.3914711           3.2799237           2.1602878
 Leave Link  202 at Sun Apr  3 19:48:09 2022, MaxMem=  1073741824 cpu:               0.3 elap:               0.1
 (Enter /home/saurabh/g16/l301.exe)
 Standard basis: CC-pVTZ (5D, 7F)
 Ernie: Thresh=  0.10000D-02 Tol=  0.10000D-05 Strict=F.
 Ernie:  21 primitive shells out of 246 were deleted.
 There are   365 symmetry adapted cartesian basis functions of A   symmetry.
 There are   322 symmetry adapted basis functions of A   symmetry.
   322 basis functions,   500 primitive gaussians,   365 cartesian basis functions
    26 alpha electrons       26 beta electrons
       nuclear repulsion energy       300.1874188627 Hartrees.
 IExCor=  402 DFT=T Ex+Corr=B3LYP ExCW=0 ScaHFX=  0.200000
 ScaDFX=  0.800000  0.720000  1.000000  0.810000 ScalE2=  1.000000  1.000000
 IRadAn=      5 IRanWt=     -1 IRanGd=            0 ICorTp=0 IEmpDi=  4
 NAtoms=   15 NActive=   15 NUniq=   15 SFac= 1.00D+00 NAtFMM=   60 NAOKFM=F Big=F
 Integral buffers will be    131072 words long.
 Raffenetti 2 integral format.
 Two-electron integral symmetry is turned on.
 Leave Link  301 at Sun Apr  3 19:48:10 2022, MaxMem=  1073741824 cpu:               0.9 elap:               0.2
 (Enter /home/saurabh/g16/l302.exe)
 NPDir=0 NMtPBC=     1 NCelOv=     1 NCel=       1 NClECP=     1 NCelD=      1
         NCelK=      1 NCelE2=     1 NClLst=     1 CellRange=     0.0.
 One-electron integrals computed using PRISM.
 One-electron integral symmetry used in STVInt
 NBasis=   322 RedAO= T EigKep=  1.44D-04  NBF=   322
 NBsUse=   322 1.00D-06 EigRej= -1.00D+00 NBFU=   322
 Precomputing XC quadrature grid using
 IXCGrd= 4 IRadAn=           5 IRanWt=          -1 IRanGd=           0 AccXCQ= 0.00D+00.
 Generated NRdTot=       0 NPtTot=           0 NUsed=           0 NTot=          32
 NSgBfM=   365   365   365   365   365 MxSgAt=    15 MxSgA2=    15.
 Leave Link  302 at Sun Apr  3 19:48:10 2022, MaxMem=  1073741824 cpu:               3.4 elap:               0.5
 (Enter /home/saurabh/g16/l303.exe)
 DipDrv:  MaxL=1.
 Leave Link  303 at Sun Apr  3 19:48:11 2022, MaxMem=  1073741824 cpu:               0.8 elap:               0.2
 (Enter /home/saurabh/g16/l401.exe)
 ExpMin= 1.03D-01 ExpMax= 1.53D+04 ExpMxC= 5.22D+02 IAcc=3 IRadAn=         5 AccDes= 0.00D+00
 Harris functional with IExCor=  402 and IRadAn=       5 diagonalized for initial guess.
 HarFok:  IExCor=  402 AccDes= 0.00D+00 IRadAn=         5 IDoV= 1 UseB2=F ITyADJ=14
 ICtDFT=  3500011 ScaDFX=  1.000000  1.000000  1.000000  1.000000
 FoFCou: FMM=F IPFlag=           0 FMFlag=      100000 FMFlg1=           0
         NFxFlg=           0 DoJE=T BraDBF=F KetDBF=T FulRan=T
         wScrn=  0.000000 ICntrl=       500 IOpCl=  0 I1Cent=   200000004 NGrid=           0
         NMat0=    1 NMatS0=      1 NMatT0=    0 NMatD0=    1 NMtDS0=    0 NMtDT0=    0
 Petite list used in FoFCou.
 Harris En= -308.726327434295    
 JPrj=0 DoOrth=F DoCkMO=F.
 Leave Link  401 at Sun Apr  3 19:48:13 2022, MaxMem=  1073741824 cpu:              19.6 elap:               2.6
 (Enter /home/saurabh/g16/l502.exe)
 Integral symmetry usage will be decided dynamically.
 Closed shell SCF:
 Using DIIS extrapolation, IDIIS=  1040.
 NGot=  1073741824 LenX=  1073468848 LenY=  1073335182
 Requested convergence on RMS density matrix=1.00D-08 within1000 cycles.
 Requested convergence on MAX density matrix=1.00D-06.
 Requested convergence on             energy=1.00D-06.
 No special actions if energy rises.
 Fock matrices will be formed incrementally for  20 cycles.
 Integral accuracy reduced to 1.0D-05 until final iterations.

 Cycle   1  Pass 0  IDiag  1:
 FoFJK:  IHMeth= 1 ICntrl=       0 DoSepK=F KAlg= 0 I1Cent=           0 FoldK=F
 IRaf= 980000000 NMat=       1 IRICut=       1 DoRegI=T DoRafI=F ISym2E= 0 IDoP0=0 IntGTp=1.
 FoFCou: FMM=F IPFlag=           0 FMFlag=      100000 FMFlg1=           0
         NFxFlg=           0 DoJE=F BraDBF=F KetDBF=F FulRan=T
         wScrn=  0.000000 ICntrl=         0 IOpCl=  0 I1Cent=           0 NGrid=           0
         NMat0=    1 NMatS0=      1 NMatT0=    0 NMatD0=    1 NMtDS0=    0 NMtDT0=    0
 Symmetry not used in FoFCou.
 E= -308.520310092013    
 DIIS: error= 1.90D-02 at cycle   1 NSaved=   1.
 NSaved= 1 IEnMin= 1 EnMin= -308.520310092013     IErMin= 1 ErrMin= 1.90D-02
 ErrMax= 1.90D-02  0.00D+00 EMaxC= 1.00D-01 BMatC= 1.98D-01 BMatP= 1.98D-01
 IDIUse=3 WtCom= 8.10D-01 WtEn= 1.90D-01
 Coeff-Com:  0.100D+01
 Coeff-En:   0.100D+01
 Coeff:      0.100D+01
 Gap=     0.229 Goal=   None    Shift=    0.000
 GapD=    0.229 DampG=1.000 DampE=0.500 DampFc=0.5000 IDamp=-1.
 Damping current iteration by 5.00D-01
 RMSDP=3.13D-03 MaxDP=1.12D-01              OVMax= 1.66D-01

 Cycle   2  Pass 0  IDiag  1:
 RMSU=  1.56D-03    CP:  9.95D-01
 E= -308.592934597403     Delta-E=       -0.072624505391 Rises=F Damp=T
 DIIS: error= 5.55D-03 at cycle   2 NSaved=   2.
 NSaved= 2 IEnMin= 2 EnMin= -308.592934597403     IErMin= 2 ErrMin= 5.55D-03
 ErrMax= 5.55D-03  0.00D+00 EMaxC= 1.00D-01 BMatC= 1.62D-02 BMatP= 1.98D-01
 IDIUse=3 WtCom= 9.45D-01 WtEn= 5.55D-02
 Coeff-Com:  0.960D-01 0.904D+00
 Coeff-En:   0.193D+00 0.807D+00
 Coeff:      0.101D+00 0.899D+00
 Gap=     0.291 Goal=   None    Shift=    0.000
 RMSDP=8.41D-04 MaxDP=3.01D-02 DE=-7.26D-02 OVMax= 1.07D-01

 Cycle   3  Pass 0  IDiag  1:
 RMSU=  5.34D-04    CP:  9.96D-01  5.85D-01
 E= -308.697677744671     Delta-E=       -0.104743147267 Rises=F Damp=F
 DIIS: error= 4.11D-03 at cycle   3 NSaved=   3.
 NSaved= 3 IEnMin= 3 EnMin= -308.697677744671     IErMin= 3 ErrMin= 4.11D-03
 ErrMax= 4.11D-03  0.00D+00 EMaxC= 1.00D-01 BMatC= 8.02D-03 BMatP= 1.62D-02
 IDIUse=3 WtCom= 9.59D-01 WtEn= 4.11D-02
 Coeff-Com: -0.288D-01 0.395D+00 0.633D+00
 Coeff-En:   0.000D+00 0.000D+00 0.100D+01
 Coeff:     -0.276D-01 0.379D+00 0.649D+00
 Gap=     0.236 Goal=   None    Shift=    0.000
 RMSDP=3.08D-04 MaxDP=1.06D-02 DE=-1.05D-01 OVMax= 2.06D-02

 Cycle   4  Pass 0  IDiag  1:
 RMSU=  1.91D-04    CP:  9.97D-01  7.11D-01  7.37D-01
 E= -308.702227567291     Delta-E=       -0.004549822620 Rises=F Damp=F
 DIIS: error= 1.60D-03 at cycle   4 NSaved=   4.
 NSaved= 4 IEnMin= 4 EnMin= -308.702227567291     IErMin= 4 ErrMin= 1.60D-03
 ErrMax= 1.60D-03  0.00D+00 EMaxC= 1.00D-01 BMatC= 2.27D-03 BMatP= 8.02D-03
 IDIUse=3 WtCom= 9.84D-01 WtEn= 1.60D-02
 Coeff-Com: -0.246D-01 0.149D+00 0.392D+00 0.484D+00
 Coeff-En:   0.000D+00 0.000D+00 0.193D+00 0.807D+00
 Coeff:     -0.242D-01 0.146D+00 0.389D+00 0.489D+00
 Gap=     0.238 Goal=   None    Shift=    0.000
 RMSDP=1.34D-04 MaxDP=4.25D-03 DE=-4.55D-03 OVMax= 9.87D-03

 Cycle   5  Pass 0  IDiag  1:
 RMSU=  8.27D-05    CP:  9.96D-01  6.80D-01  7.84D-01  5.28D-01
 E= -308.703870915890     Delta-E=       -0.001643348599 Rises=F Damp=F
 DIIS: error= 6.22D-04 at cycle   5 NSaved=   5.
 NSaved= 5 IEnMin= 5 EnMin= -308.703870915890     IErMin= 5 ErrMin= 6.22D-04
 ErrMax= 6.22D-04  0.00D+00 EMaxC= 1.00D-01 BMatC= 1.51D-04 BMatP= 2.27D-03
 IDIUse=3 WtCom= 9.94D-01 WtEn= 6.22D-03
 EnCoef did     5 forward-backward iterations
 Coeff-Com: -0.944D-02 0.209D-01 0.107D+00 0.252D+00 0.630D+00
 Coeff-En:   0.000D+00 0.000D+00 0.000D+00 0.166D-03 0.100D+01
 Coeff:     -0.938D-02 0.208D-01 0.107D+00 0.250D+00 0.632D+00
 Gap=     0.236 Goal=   None    Shift=    0.000
 RMSDP=3.15D-05 MaxDP=9.93D-04 DE=-1.64D-03 OVMax= 1.89D-03

 Cycle   6  Pass 0  IDiag  1:
 RMSU=  1.02D-05    CP:  9.96D-01  6.84D-01  8.00D-01  5.89D-01  6.92D-01
 E= -308.703982813853     Delta-E=       -0.000111897963 Rises=F Damp=F
 DIIS: error= 6.14D-05 at cycle   6 NSaved=   6.
 NSaved= 6 IEnMin= 6 EnMin= -308.703982813853     IErMin= 6 ErrMin= 6.14D-05
 ErrMax= 6.14D-05  0.00D+00 EMaxC= 1.00D-01 BMatC= 2.50D-06 BMatP= 1.51D-04
 IDIUse=1 WtCom= 1.00D+00 WtEn= 0.00D+00
 Coeff-Com: -0.304D-02 0.498D-02 0.339D-01 0.897D-01 0.256D+00 0.618D+00
 Coeff:     -0.304D-02 0.498D-02 0.339D-01 0.897D-01 0.256D+00 0.618D+00
 Gap=     0.235 Goal=   None    Shift=    0.000
 RMSDP=4.50D-06 MaxDP=1.56D-04 DE=-1.12D-04 OVMax= 4.83D-04

 Initial convergence to 1.0D-05 achieved.  Increase integral accuracy.
 Cycle   7  Pass 1  IDiag  1:
 E= -308.703973592984     Delta-E=        0.000009220869 Rises=F Damp=F
 DIIS: error= 2.80D-05 at cycle   1 NSaved=   1.
 NSaved= 1 IEnMin= 1 EnMin= -308.703973592984     IErMin= 1 ErrMin= 2.80D-05
 ErrMax= 2.80D-05  0.00D+00 EMaxC= 1.00D-01 BMatC= 6.35D-07 BMatP= 6.35D-07
 IDIUse=1 WtCom= 1.00D+00 WtEn= 0.00D+00
 Coeff-Com:  0.100D+01
 Coeff:      0.100D+01
 Gap=     0.236 Goal=   None    Shift=    0.000
 RMSDP=4.50D-06 MaxDP=1.56D-04 DE= 9.22D-06 OVMax= 5.79D-04

 Cycle   8  Pass 1  IDiag  1:
 RMSU=  8.31D-06    CP:  1.00D+00
 E= -308.703972879766     Delta-E=        0.000000713218 Rises=F Damp=F
 DIIS: error= 4.77D-05 at cycle   2 NSaved=   2.
 NSaved= 2 IEnMin= 1 EnMin= -308.703973592984     IErMin= 1 ErrMin= 2.80D-05
 ErrMax= 4.77D-05  0.00D+00 EMaxC= 1.00D-01 BMatC= 1.21D-06 BMatP= 6.35D-07
 IDIUse=1 WtCom= 1.00D+00 WtEn= 0.00D+00
 Coeff-Com:  0.589D+00 0.411D+00
 Coeff:      0.589D+00 0.411D+00
 Gap=     0.236 Goal=   None    Shift=    0.000
 RMSDP=2.53D-06 MaxDP=1.30D-04 DE= 7.13D-07 OVMax= 4.94D-04

 Cycle   9  Pass 1  IDiag  1:
 RMSU=  2.42D-06    CP:  1.00D+00  9.14D-01
 E= -308.703974010920     Delta-E=       -0.000001131154 Rises=F Damp=F
 DIIS: error= 1.39D-05 at cycle   3 NSaved=   3.
 NSaved= 3 IEnMin= 3 EnMin= -308.703974010920     IErMin= 3 ErrMin= 1.39D-05
 ErrMax= 1.39D-05  0.00D+00 EMaxC= 1.00D-01 BMatC= 6.24D-08 BMatP= 6.35D-07
 IDIUse=1 WtCom= 1.00D+00 WtEn= 0.00D+00
 Coeff-Com:  0.153D+00 0.206D+00 0.641D+00
 Coeff:      0.153D+00 0.206D+00 0.641D+00
 Gap=     0.235 Goal=   None    Shift=    0.000
 RMSDP=8.04D-07 MaxDP=3.43D-05 DE=-1.13D-06 OVMax= 1.45D-04

 Cycle  10  Pass 1  IDiag  1:
 RMSU=  6.48D-07    CP:  1.00D+00  9.24D-01  8.08D-01
 E= -308.703974058340     Delta-E=       -0.000000047420 Rises=F Damp=F
 DIIS: error= 4.95D-06 at cycle   4 NSaved=   4.
 NSaved= 4 IEnMin= 4 EnMin= -308.703974058340     IErMin= 4 ErrMin= 4.95D-06
 ErrMax= 4.95D-06  0.00D+00 EMaxC= 1.00D-01 BMatC= 1.46D-08 BMatP= 6.24D-08
 IDIUse=1 WtCom= 1.00D+00 WtEn= 0.00D+00
 Coeff-Com:  0.371D-02 0.627D-01 0.391D+00 0.542D+00
 Coeff:      0.371D-02 0.627D-01 0.391D+00 0.542D+00
 Gap=     0.235 Goal=   None    Shift=    0.000
 RMSDP=3.31D-07 MaxDP=1.09D-05 DE=-4.74D-08 OVMax= 4.26D-05

 Cycle  11  Pass 1  IDiag  1:
 RMSU=  8.56D-08    CP:  1.00D+00  9.32D-01  8.42D-01  5.35D-01
 E= -308.703974072400     Delta-E=       -0.000000014060 Rises=F Damp=F
 DIIS: error= 5.23D-07 at cycle   5 NSaved=   5.
 NSaved= 5 IEnMin= 5 EnMin= -308.703974072400     IErMin= 5 ErrMin= 5.23D-07
 ErrMax= 5.23D-07  0.00D+00 EMaxC= 1.00D-01 BMatC= 1.77D-10 BMatP= 1.46D-08
 IDIUse=1 WtCom= 1.00D+00 WtEn= 0.00D+00
 Coeff-Com: -0.119D-02 0.258D-01 0.175D+00 0.258D+00 0.543D+00
 Coeff:     -0.119D-02 0.258D-01 0.175D+00 0.258D+00 0.543D+00
 Gap=     0.235 Goal=   None    Shift=    0.000
 RMSDP=3.90D-08 MaxDP=1.16D-06 DE=-1.41D-08 OVMax= 3.43D-06

 Cycle  12  Pass 1  IDiag  1:
 RMSU=  2.52D-08    CP:  1.00D+00  9.32D-01  8.44D-01  5.60D-01  7.20D-01
 E= -308.703974072535     Delta-E=       -0.000000000135 Rises=F Damp=F
 DIIS: error= 1.15D-07 at cycle   6 NSaved=   6.
 NSaved= 6 IEnMin= 6 EnMin= -308.703974072535     IErMin= 6 ErrMin= 1.15D-07
 ErrMax= 1.15D-07  0.00D+00 EMaxC= 1.00D-01 BMatC= 1.44D-11 BMatP= 1.77D-10
 IDIUse=1 WtCom= 1.00D+00 WtEn= 0.00D+00
 Coeff-Com: -0.803D-03 0.112D-01 0.776D-01 0.117D+00 0.303D+00 0.493D+00
 Coeff:     -0.803D-03 0.112D-01 0.776D-01 0.117D+00 0.303D+00 0.493D+00
 Gap=     0.235 Goal=   None    Shift=    0.000
 RMSDP=1.04D-08 MaxDP=3.28D-07 DE=-1.35D-10 OVMax= 7.82D-07

 Cycle  13  Pass 1  IDiag  1:
 RMSU=  8.56D-09    CP:  1.00D+00  9.32D-01  8.45D-01  5.53D-01  7.46D-01
                    CP:  9.04D-01
 E= -308.703974072542     Delta-E=       -0.000000000008 Rises=F Damp=F
 DIIS: error= 2.71D-08 at cycle   7 NSaved=   7.
 NSaved= 7 IEnMin= 7 EnMin= -308.703974072542     IErMin= 7 ErrMin= 2.71D-08
 ErrMax= 2.71D-08  0.00D+00 EMaxC= 1.00D-01 BMatC= 5.30D-13 BMatP= 1.44D-11
 IDIUse=1 WtCom= 1.00D+00 WtEn= 0.00D+00
 Coeff-Com: -0.222D-03 0.224D-02 0.160D-01 0.242D-01 0.724D-01 0.196D+00
 Coeff-Com:  0.690D+00
 Coeff:     -0.222D-03 0.224D-02 0.160D-01 0.242D-01 0.724D-01 0.196D+00
 Coeff:      0.690D+00
 Gap=     0.235 Goal=   None    Shift=    0.000
 RMSDP=2.55D-09 MaxDP=7.40D-08 DE=-7.73D-12 OVMax= 2.35D-07

 SCF Done:  E(RB3LYP) =  -308.703974073     A.U. after   13 cycles
            NFock= 13  Conv=0.25D-08     -V/T= 2.0072
 KE= 3.064840546919D+02 PE=-1.318572881167D+03 EE= 4.031974335400D+02
 Leave Link  502 at Sun Apr  3 19:49:33 2022, MaxMem=  1073741824 cpu:             638.7 elap:              79.8
 (Enter /home/saurabh/g16/l801.exe)
 DoSCS=F DFT=T ScalE2(SS,OS)=  1.000000  1.000000
 Range of M.O.s used for correlation:     1   322
 NBasis=   322 NAE=    26 NBE=    26 NFC=     0 NFV=     0
 NROrb=    322 NOA=    26 NOB=    26 NVA=   296 NVB=   296

 **** Warning!!: The largest alpha MO coefficient is  0.14899796D+02

 Leave Link  801 at Sun Apr  3 19:49:33 2022, MaxMem=  1073741824 cpu:               0.2 elap:               0.1
 (Enter /home/saurabh/g16/l1101.exe)
 Using compressed storage, NAtomX=    15.
 Will process     16 centers per pass.
 Leave Link 1101 at Sun Apr  3 19:49:34 2022, MaxMem=  1073741824 cpu:               2.6 elap:               0.4
 (Enter /home/saurabh/g16/l1102.exe)
 Symmetrizing basis deriv contribution to polar:
 IMax=3 JMax=2 DiffMx= 0.00D+00
 Leave Link 1102 at Sun Apr  3 19:49:34 2022, MaxMem=  1073741824 cpu:               0.5 elap:               0.1
 (Enter /home/saurabh/g16/l1110.exe)
 Forming Gx(P) for the SCF density, NAtomX=    15.
 Integral derivatives from FoFJK, PRISM(SPDF).
 Do as many integral derivatives as possible in FoFJK.
 G2DrvN: MDV=    1073740143.
 G2DrvN: will do    16 centers at a time, making    1 passes.
 Calling FoFCou, ICntrl=  3107 FMM=F I1Cent=   0 AccDes= 0.00D+00.
 FoFJK:  IHMeth= 1 ICntrl=    3107 DoSepK=F KAlg= 0 I1Cent=           0 FoldK=F
 IRaf=         0 NMat=       1 IRICut=       1 DoRegI=T DoRafI=F ISym2E= 0 IDoP0=0 IntGTp=1.
 FoFCou: FMM=F IPFlag=           0 FMFlag=      100000 FMFlg1=           0
         NFxFlg=           0 DoJE=F BraDBF=F KetDBF=F FulRan=T
         wScrn=  0.000000 ICntrl=      3107 IOpCl=  0 I1Cent=           0 NGrid=           0
         NMat0=    1 NMatS0=      1 NMatT0=    0 NMatD0=    1 NMtDS0=    0 NMtDT0=    0
 Symmetry not used in FoFCou.
 End of G2Drv F.D. properties file   721 does not exist.
 End of G2Drv F.D. properties file   722 does not exist.
 End of G2Drv F.D. properties file   788 does not exist.
 Leave Link 1110 at Sun Apr  3 19:51:55 2022, MaxMem=  1073741824 cpu:            1128.4 elap:             141.0
 (Enter /home/saurabh/g16/l1002.exe)
 Minotr:  Closed shell wavefunction.
          IDoAtm=111111111111111
          Direct CPHF calculation.
          Differentiating once with respect to nuclear coordinates.
          Requested convergence is 1.0D-08 RMS, and 1.0D-07 maximum.
          Secondary convergence is 1.0D-12 RMS, and 1.0D-12 maximum.
          NewPWx=T KeepS1=F KeepF1=F KeepIn=T MapXYZ=F SortEE=F KeepMc=T.
         4436 words used for storage of precomputed grid.
 Two-electron integrals replicated using symmetry.
          MDV=    1073741824 using IRadAn=       1.
          Solving linear equations simultaneously, MaxMat=     384.
 FoF2E skips out because all densities are zero.
 CalDSu exits because no D1Ps are significant.
 FoFJK:  IHMeth= 1 ICntrl=       0 DoSepK=F KAlg= 0 I1Cent=           0 FoldK=F
 IRaf= 970000000 NMat=      45 IRICut=     112 DoRegI=T DoRafI=T ISym2E= 2 IDoP0=3 IntGTp=3.
 FoFCou: FMM=F IPFlag=           0 FMFlag=      100000 FMFlg1=           0
         NFxFlg=           0 DoJE=F BraDBF=F KetDBF=F FulRan=T
         wScrn=  0.000000 ICntrl=         0 IOpCl=  0 I1Cent=           0 NGrid=           0
         NMat0=   45 NMatS0=     45 NMatT0=    0 NMatD0=   45 NMtDS0=    0 NMtDT0=    0
 Integrals replicated using symmetry in FoFCou.
 Raff kept on since  96.10% of shell-pairs survive, threshold=   0.20 IRatSp=96.
          There are    48 degrees of freedom in the 1st order CPHF.  IDoFFX=6 NUNeed=     0.
     42 vectors produced by pass  0 Test12= 1.60D-14 2.08D-09 XBig12= 1.10D-01 7.60D-02.
 AX will form    42 AO Fock derivatives at one time.
     42 vectors produced by pass  1 Test12= 1.60D-14 2.08D-09 XBig12= 1.32D-02 4.54D-02.
     42 vectors produced by pass  2 Test12= 1.60D-14 2.08D-09 XBig12= 1.87D-04 1.99D-03.
     42 vectors produced by pass  3 Test12= 1.60D-14 2.08D-09 XBig12= 9.14D-07 1.39D-04.
     42 vectors produced by pass  4 Test12= 1.60D-14 2.08D-09 XBig12= 2.12D-09 6.03D-06.
     35 vectors produced by pass  5 Test12= 1.60D-14 2.08D-09 XBig12= 4.69D-12 2.68D-07.
     11 vectors produced by pass  6 Test12= 1.60D-14 2.08D-09 XBig12= 8.73D-15 1.07D-08.
 InvSVY:  IOpt=1 It=  1 EMax= 2.44D-15
 Solved reduced A of dimension   256 with    42 vectors.
 End of Minotr F.D. properties file   721 does not exist.
 End of Minotr F.D. properties file   722 does not exist.
 End of Minotr F.D. properties file   788 does not exist.
 Leave Link 1002 at Sun Apr  3 19:55:45 2022, MaxMem=  1073741824 cpu:            1836.2 elap:             229.4
 (Enter /home/saurabh/g16/l601.exe)
 Copying SCF densities to generalized density rwf, IOpCl= 0 IROHF=0.

 **********************************************************************

            Population analysis using the SCF Density.

 **********************************************************************

 Orbital symmetries:
       Occupied  (A) (A) (A) (A) (A) (A) (A) (A) (A) (A) (A) (A)
                 (A) (A) (A) (A) (A) (A) (A) (A) (A) (A) (A) (A)
                 (A) (A)
       Virtual   (A) (A) (A) (A) (A) (A) (A) (A) (A) (A) (A) (A)
                 (A) (A) (A) (A) (A) (A) (A) (A) (A) (A) (A) (A)
                 (A) (A) (A) (A) (A) (A) (A) (A) (A) (A) (A) (A)
                 (A) (A) (A) (A) (A) (A) (A) (A) (A) (A) (A) (A)
                 (A) (A) (A) (A) (A) (A) (A) (A) (A) (A) (A) (A)
                 (A) (A) (A) (A) (A) (A) (A) (A) (A) (A) (A) (A)
                 (A) (A) (A) (A) (A) (A) (A) (A) (A) (A) (A) (A)
                 (A) (A) (A) (A) (A) (A) (A) (A) (A) (A) (A) (A)
                 (A) (A) (A) (A) (A) (A) (A) (A) (A) (A) (A) (A)
                 (A) (A) (A) (A) (A) (A) (A) (A) (A) (A) (A) (A)
                 (A) (A) (A) (A) (A) (A) (A) (A) (A) (A) (A) (A)
                 (A) (A) (A) (A) (A) (A) (A) (A) (A) (A) (A) (A)
                 (A) (A) (A) (A) (A) (A) (A) (A) (A) (A) (A) (A)
                 (A) (A) (A) (A) (A) (A) (A) (A) (A) (A) (A) (A)
                 (A) (A) (A) (A) (A) (A) (A) (A) (A) (A) (A) (A)
                 (A) (A) (A) (A) (A) (A) (A) (A) (A) (A) (A) (A)
                 (A) (A) (A) (A) (A) (A) (A) (A) (A) (A) (A) (A)
                 (A) (A) (A) (A) (A) (A) (A) (A) (A) (A) (A) (A)
                 (A) (A) (A) (A) (A) (A) (A) (A) (A) (A) (A) (A)
                 (A) (A) (A) (A) (A) (A) (A) (A) (A) (A) (A) (A)
                 (A) (A) (A) (A) (A) (A) (A) (A) (A) (A) (A) (A)
                 (A) (A) (A) (A) (A) (A) (A) (A) (A) (A) (A) (A)
                 (A) (A) (A) (A) (A) (A) (A) (A) (A) (A) (A) (A)
                 (A) (A) (A) (A) (A) (A) (A) (A) (A) (A) (A) (A)
                 (A) (A) (A) (A) (A) (A) (A) (A)
 The electronic state is 1-A.
 Alpha  occ. eigenvalues --  -19.13029 -10.24244 -10.23099 -10.18265 -10.18129
 Alpha  occ. eigenvalues --  -10.18123 -10.17898  -1.08936  -0.82060  -0.75305
 Alpha  occ. eigenvalues --   -0.67902  -0.63321  -0.60491  -0.52801  -0.51681
 Alpha  occ. eigenvalues --   -0.46670  -0.45756  -0.44179  -0.41182  -0.39970
 Alpha  occ. eigenvalues --   -0.37496  -0.35047  -0.33349  -0.30270  -0.27157
 Alpha  occ. eigenvalues --   -0.24687
 Alpha virt. eigenvalues --   -0.01137   0.03747   0.04471   0.06410   0.07017
 Alpha virt. eigenvalues --    0.08405   0.09424   0.11087   0.12314   0.12980
 Alpha virt. eigenvalues --    0.14492   0.16899   0.19302   0.21174   0.23447
 Alpha virt. eigenvalues --    0.24402   0.25458   0.28083   0.30384   0.31012
 Alpha virt. eigenvalues --    0.32236   0.33801   0.34859   0.36168   0.37550
 Alpha virt. eigenvalues --    0.38225   0.39893   0.40705   0.41679   0.42142
 Alpha virt. eigenvalues --    0.42741   0.43824   0.45754   0.46024   0.46995
 Alpha virt. eigenvalues --    0.47174   0.48129   0.49395   0.50800   0.51625
 Alpha virt. eigenvalues --    0.53274   0.54766   0.56480   0.57558   0.59869
 Alpha virt. eigenvalues --    0.61385   0.63801   0.68818   0.69162   0.72068
 Alpha virt. eigenvalues --    0.76472   0.78070   0.80516   0.82985   0.84574
 Alpha virt. eigenvalues --    0.85308   0.89072   0.90058   0.90279   0.92912
 Alpha virt. eigenvalues --    0.94230   0.96992   0.98075   0.99215   1.00861
 Alpha virt. eigenvalues --    1.03618   1.04391   1.05643   1.07901   1.09456
 Alpha virt. eigenvalues --    1.10365   1.12320   1.13210   1.14504   1.16190
 Alpha virt. eigenvalues --    1.16498   1.17180   1.18376   1.19749   1.21605
 Alpha virt. eigenvalues --    1.23900   1.25002   1.27269   1.29884   1.30906
 Alpha virt. eigenvalues --    1.33161   1.33778   1.35164   1.36390   1.38868
 Alpha virt. eigenvalues --    1.40671   1.41976   1.42087   1.44918   1.45980
 Alpha virt. eigenvalues --    1.49140   1.51435   1.52101   1.55445   1.56378
 Alpha virt. eigenvalues --    1.57327   1.64866   1.69516   1.72570   1.80042
 Alpha virt. eigenvalues --    1.81122   1.85212   1.97248   1.98284   2.00858
 Alpha virt. eigenvalues --    2.04033   2.07267   2.13112   2.15924   2.20929
 Alpha virt. eigenvalues --    2.22993   2.27071   2.29563   2.34108   2.35565
 Alpha virt. eigenvalues --    2.39205   2.40776   2.43150   2.45454   2.49129
 Alpha virt. eigenvalues --    2.49783   2.51191   2.52648   2.54900   2.58035
 Alpha virt. eigenvalues --    2.59615   2.62176   2.63961   2.65505   2.67136
 Alpha virt. eigenvalues --    2.67764   2.68485   2.73829   2.76495   2.76702
 Alpha virt. eigenvalues --    2.78652   2.80375   2.81519   2.84638   2.85937
 Alpha virt. eigenvalues --    2.88637   2.88821   2.92758   2.94193   2.96063
 Alpha virt. eigenvalues --    2.98228   2.99050   3.00868   3.02508   3.02774
 Alpha virt. eigenvalues --    3.04505   3.05314   3.07317   3.07748   3.09022
 Alpha virt. eigenvalues --    3.11462   3.13782   3.14404   3.15441   3.16399
 Alpha virt. eigenvalues --    3.19660   3.20445   3.22177   3.24009   3.25199
 Alpha virt. eigenvalues --    3.25964   3.27518   3.30102   3.32036   3.33382
 Alpha virt. eigenvalues --    3.35045   3.35738   3.36918   3.38603   3.42167
 Alpha virt. eigenvalues --    3.45098   3.45520   3.46753   3.49253   3.50605
 Alpha virt. eigenvalues --    3.53279   3.55424   3.58674   3.62669   3.63484
 Alpha virt. eigenvalues --    3.64834   3.66636   3.68787   3.70420   3.70919
 Alpha virt. eigenvalues --    3.72297   3.73613   3.76465   3.78394   3.80071
 Alpha virt. eigenvalues --    3.81512   3.82018   3.84838   3.86619   3.87234
 Alpha virt. eigenvalues --    3.90881   3.91662   3.92959   3.94489   3.95495
 Alpha virt. eigenvalues --    3.98097   3.98957   4.00979   4.01449   4.05098
 Alpha virt. eigenvalues --    4.06479   4.08847   4.10174   4.11277   4.14020
 Alpha virt. eigenvalues --    4.14894   4.15832   4.20323   4.21511   4.24513
 Alpha virt. eigenvalues --    4.25976   4.26238   4.29752   4.32536   4.35090
 Alpha virt. eigenvalues --    4.38656   4.38986   4.42708   4.44028   4.45787
 Alpha virt. eigenvalues --    4.50479   4.53883   4.56425   4.58302   4.60285
 Alpha virt. eigenvalues --    4.62837   4.68516   4.70963   4.73069   4.75456
 Alpha virt. eigenvalues --    4.81808   4.83730   4.86635   4.88073   4.88517
 Alpha virt. eigenvalues --    4.90639   4.92675   4.95181   4.99339   5.01384
 Alpha virt. eigenvalues --    5.03028   5.08295   5.13077   5.14638   5.15857
 Alpha virt. eigenvalues --    5.18897   5.20149   5.24513   5.28394   5.31906
 Alpha virt. eigenvalues --    5.34597   5.37561   5.42742   5.47657   5.51336
 Alpha virt. eigenvalues --    5.57223   5.59709   5.61620   5.67829   5.73920
 Alpha virt. eigenvalues --    5.82425   5.88340   5.95018   5.96273   5.98330
 Alpha virt. eigenvalues --    6.01080   6.03972   6.20017   6.46576   6.71015
 Alpha virt. eigenvalues --    6.85954   6.91580   7.00634   7.27073   9.81847
 Alpha virt. eigenvalues --   10.87191  11.21986  12.17437  12.28524  12.81788
 Alpha virt. eigenvalues --   13.80622
          Condensed to atoms (all electrons):
               1          2          3          4          5          6
     1  C    4.847516   0.315940  -0.036870  -0.020897  -0.022113   0.343274
     2  C    0.315940   5.024181   0.574912  -0.029805  -0.046480  -0.033710
     3  C   -0.036870   0.574912   5.063842   0.310471   0.031491  -0.022828
     4  C   -0.020897  -0.029805   0.310471   4.711884   0.305036  -0.053308
     5  C   -0.022113  -0.046480   0.031491   0.305036   4.913435   0.359589
     6  C    0.343274  -0.033710  -0.022828  -0.053308   0.359589   4.870387
     7  H   -0.037985   0.011988  -0.002455   0.007187  -0.043811   0.388966
     8  H   -0.032575  -0.004478   0.005242   0.008631  -0.029200   0.383352
     9  H    0.007582  -0.051704   0.424186  -0.040031   0.005882  -0.001111
    10  H   -0.038842   0.413518  -0.043996   0.006169  -0.000093   0.004835
    11  H    0.414875  -0.044189   0.008492  -0.000650   0.009104  -0.032624
    12  H    0.407946  -0.039808  -0.005981   0.002546  -0.003657  -0.038070
    13  O   -0.006161   0.018786  -0.087100   0.288330   0.136683  -0.012205
    14  H   -0.002784   0.010224  -0.069975   0.444135  -0.044563   0.004110
    15  H    0.001520   0.000525  -0.000366  -0.016066   0.422826  -0.033937
               7          8          9         10         11         12
     1  C   -0.037985  -0.032575   0.007582  -0.038842   0.414875   0.407946
     2  C    0.011988  -0.004478  -0.051704   0.413518  -0.044189  -0.039808
     3  C   -0.002455   0.005242   0.424186  -0.043996   0.008492  -0.005981
     4  C    0.007187   0.008631  -0.040031   0.006169  -0.000650   0.002546
     5  C   -0.043811  -0.029200   0.005882  -0.000093   0.009104  -0.003657
     6  C    0.388966   0.383352  -0.001111   0.004835  -0.032624  -0.038070
     7  H    0.646879  -0.030446   0.000083  -0.000473  -0.006475  -0.006265
     8  H   -0.030446   0.606081   0.000316   0.000606  -0.004064   0.009105
     9  H    0.000083   0.000316   0.556263  -0.009331  -0.000342  -0.000014
    10  H   -0.000473   0.000606  -0.009331   0.551299  -0.007102   0.003627
    11  H   -0.006475  -0.004064  -0.000342  -0.007102   0.613894  -0.032599
    12  H   -0.006265   0.009105  -0.000014   0.003627  -0.032599   0.611234
    13  O    0.005129  -0.004872  -0.000480  -0.000202  -0.000785  -0.001265
    14  H    0.000410  -0.000220  -0.003022  -0.000316  -0.000070  -0.000194
    15  H   -0.005258   0.003064  -0.000171   0.000057  -0.000331   0.000620
              13         14         15
     1  C   -0.006161  -0.002784   0.001520
     2  C    0.018786   0.010224   0.000525
     3  C   -0.087100  -0.069975  -0.000366
     4  C    0.288330   0.444135  -0.016066
     5  C    0.136683  -0.044563   0.422826
     6  C   -0.012205   0.004110  -0.033937
     7  H    0.005129   0.000410  -0.005258
     8  H   -0.004872  -0.000220   0.003064
     9  H   -0.000480  -0.003022  -0.000171
    10  H   -0.000202  -0.000316   0.000057
    11  H   -0.000785  -0.000070  -0.000331
    12  H   -0.001265  -0.000194   0.000620
    13  O    8.022611  -0.029197  -0.030661
    14  H   -0.029197   0.612023  -0.002186
    15  H   -0.030661  -0.002186   0.559268
 Mulliken charges:
               1
     1  C   -0.140426
     2  C   -0.119900
     3  C   -0.149062
     4  C    0.076367
     5  C    0.005872
     6  C   -0.126720
     7  H    0.072524
     8  H    0.089458
     9  H    0.111896
    10  H    0.120244
    11  H    0.082865
    12  H    0.092776
    13  O   -0.298611
    14  H    0.081623
    15  H    0.101094
 Sum of Mulliken charges =  -0.00000
 Mulliken charges with hydrogens summed into heavy atoms:
               1
     1  C    0.035215
     2  C    0.000344
     3  C   -0.037166
     4  C    0.157991
     5  C    0.106966
     6  C    0.035261
    13  O   -0.298611
 APT charges:
               1
     1  C   -0.769364
     2  C   -0.458539
     3  C   -0.562744
     4  C   -0.445642
     5  C   -0.408089
     6  C   -0.719619
     7  H    0.408466
     8  H    0.299668
     9  H    0.525196
    10  H    0.536807
    11  H    0.472571
    12  H    0.299323
    13  O   -0.125560
    14  H    0.453089
    15  H    0.494437
 Sum of APT charges =  -0.00000
 APT charges with hydrogens summed into heavy atoms:
               1
     1  C    0.002530
     2  C    0.078268
     3  C   -0.037548
     4  C    0.007447
     5  C    0.086348
     6  C   -0.011485
    13  O   -0.125560
 Electronic spatial extent (au):  <R**2>=            626.7716
 Charge=             -0.0000 electrons
 Dipole moment (field-independent basis, Debye):
    X=             -1.0569    Y=             -0.3001    Z=              1.1148  Tot=              1.5651
 Quadrupole moment (field-independent basis, Debye-Ang):
   XX=            -42.5389   YY=            -39.6085   ZZ=            -43.9067
   XY=              0.0537   XZ=              3.5245   YZ=             -0.2915
 Traceless Quadrupole moment (field-independent basis, Debye-Ang):
   XX=             -0.5209   YY=              2.4096   ZZ=             -1.8886
   XY=              0.0537   XZ=              3.5245   YZ=             -0.2915
 Octapole moment (field-independent basis, Debye-Ang**2):
  XXX=              0.3922  YYY=              1.7502  ZZZ=             -1.9035  XYY=              5.2131
  XXY=             -0.2873  XXZ=              2.6489  XZZ=              1.5539  YZZ=             -1.4541
  YYZ=             -2.3071  XYZ=              1.6574
 Hexadecapole moment (field-independent basis, Debye-Ang**3):
 XXXX=           -409.6298 YYYY=           -325.6474 ZZZZ=           -100.4811 XXXY=             -4.5271
 XXXZ=             12.7879 YYYX=             -1.3847 YYYZ=             -6.9026 ZZZX=             -2.8838
 ZZZY=              2.6064 XXYY=           -118.6511 XXZZ=            -86.7162 YYZZ=            -74.4332
 XXYZ=             -1.3552 YYXZ=              2.8172 ZZXY=              2.2742
 N-N= 3.001874188627D+02 E-N=-1.318572883097D+03  KE= 3.064840546919D+02
  Exact polarizability:       0.000       0.000       0.000       0.000       0.000       0.000
 Approx polarizability:     110.284       9.943     105.736       2.790      -1.119      84.026
 No NMR shielding tensors so no spin-rotation constants.
 Leave Link  601 at Sun Apr  3 19:55:45 2022, MaxMem=  1073741824 cpu:               2.3 elap:               0.4
 (Enter /home/saurabh/g16/l701.exe)
 ... and contract with generalized density number  0.
 Compute integral second derivatives.
 Leave Link  701 at Sun Apr  3 19:55:45 2022, MaxMem=  1073741824 cpu:               2.3 elap:               0.4
 (Enter /home/saurabh/g16/l702.exe)
 L702 exits ... SP integral derivatives will be done elsewhere.
 Leave Link  702 at Sun Apr  3 19:55:46 2022, MaxMem=  1073741824 cpu:               0.2 elap:               0.0
 (Enter /home/saurabh/g16/l703.exe)
 Integral derivatives from FoFJK, PRISM(SPDF).
 Compute integral second derivatives, UseDBF=F ICtDFT=           0.
 Calling FoFJK, ICntrl=    100127 FMM=F ISym2X=0 I1Cent= 0 IOpClX= 0 NMat=1 NMatS=1 NMatT=0.
 FoFJK:  IHMeth= 1 ICntrl=  100127 DoSepK=F KAlg= 0 I1Cent=           0 FoldK=F
 IRaf=         0 NMat=       1 IRICut=       1 DoRegI=T DoRafI=F ISym2E= 0 IDoP0=0 IntGTp=1.
 FoFCou: FMM=F IPFlag=           0 FMFlag=      100000 FMFlg1=         800
         NFxFlg=           0 DoJE=F BraDBF=F KetDBF=F FulRan=T
         wScrn=  0.000000 ICntrl=    100127 IOpCl=  0 I1Cent=           0 NGrid=           0
         NMat0=    1 NMatS0=      1 NMatT0=    0 NMatD0=    1 NMtDS0=    0 NMtDT0=    0
 Symmetry not used in FoFCou.
 Leave Link  703 at Sun Apr  3 20:00:58 2022, MaxMem=  1073741824 cpu:            2501.1 elap:             312.4
 (Enter /home/saurabh/g16/l716.exe)
 Dipole        =-4.15799201D-01-1.18065950D-01 4.38578662D-01
 Polarizability= 0.00000000D+00 0.00000000D+00 0.00000000D+00
                 0.00000000D+00 0.00000000D+00 0.00000000D+00
 ***** Axes restored to original set *****
 -------------------------------------------------------------------
 Center     Atomic                   Forces (Hartrees/Bohr)
 Number     Number              X              Y              Z
 -------------------------------------------------------------------
      1        6          -0.004356404   -0.012481717   -0.000328960
      2        6          -0.001209343    0.014864561    0.007159890
      3        6          -0.003347093   -0.007984883    0.006851177
      4        6          -0.000328881   -0.015436584    0.017788278
      5        6           0.019061476    0.002468888   -0.034894025
      6        6           0.010774685   -0.016980272    0.017643724
      7        1          -0.004797294    0.007019371   -0.005896986
      8        1          -0.002947125    0.001431592    0.015351530
      9        1           0.003096866    0.001956872    0.001924008
     10        1           0.000936248    0.000195001    0.002100740
     11        1           0.002551569    0.010261759    0.006809390
     12        1           0.000786197   -0.003205713   -0.011405311
     13        8           0.007898047    0.038195199   -0.021349912
     14        1          -0.006680430   -0.004695884   -0.015352381
     15        1          -0.021438519   -0.015608191    0.013598838
 -------------------------------------------------------------------
 Cartesian Forces:  Max     0.038195199 RMS     0.012711067
 FormGI is forming the generalized inverse of G from B-inverse, IUseBI=4.
 Leave Link  716 at Sun Apr  3 20:00:58 2022, MaxMem=  1073741824 cpu:               0.5 elap:               0.1
 (Enter /home/saurabh/g16/l103.exe)

 GradGradGradGradGradGradGradGradGradGradGradGradGradGradGradGradGradGrad
 Berny optimization.
 Red2BG is reusing G-inverse.
 Internal  Forces:  Max     0.028915702 RMS     0.007005518
 Search for a local minimum.
 Step number   1 out of a maximum of  100
 All quantities printed in internal units (Hartrees-Bohrs-Radians)
 RMS Force = .70055D-02 SwitMx=.10000D-02 MixMth= 1
 Mixed Optimization -- RFO/linear search
 Second derivative matrix not updated -- analytic derivatives used.
 ITU=  0
     Eigenvalues ---    0.00364   0.00687   0.01061   0.01642   0.01806
     Eigenvalues ---    0.02285   0.03226   0.03734   0.03885   0.04161
     Eigenvalues ---    0.05385   0.06243   0.07076   0.07751   0.08335
     Eigenvalues ---    0.09214   0.09806   0.11159   0.11715   0.14335
     Eigenvalues ---    0.15453   0.18192   0.18634   0.21423   0.23150
     Eigenvalues ---    0.24314   0.27536   0.27929   0.28320   0.28903
     Eigenvalues ---    0.29430   0.29545   0.29904   0.30503   0.30787
     Eigenvalues ---    0.32973   0.34817   0.34975   0.54324
 RFO step:  Lambda=-2.59556622D-02 EMin= 3.64388411D-03
 Linear search not attempted -- first point.
 Iteration  1 RMS(Cart)=  0.04726756 RMS(Int)=  0.00383246
 Iteration  2 RMS(Cart)=  0.00310595 RMS(Int)=  0.00225714
 Iteration  3 RMS(Cart)=  0.00000900 RMS(Int)=  0.00225711
 Iteration  4 RMS(Cart)=  0.00000005 RMS(Int)=  0.00225711
 ITry= 1 IFail=0 DXMaxC= 1.80D-01 DCOld= 1.00D+10 DXMaxT= 3.00D-01 DXLimC= 3.00D+00 Rises=F
 Variable       Old X    -DE/DX   Delta X   Delta X   Delta X     New X
                                 (Linear)    (Quad)   (Total)
    R1        2.83725   0.00321   0.00000   0.01265   0.01134   2.84860
    R2        2.89014   0.00102   0.00000   0.01190   0.01194   2.90207
    R3        2.09871  -0.01247   0.00000  -0.03920  -0.03920   2.05952
    R4        2.10283  -0.01050   0.00000  -0.03102  -0.03102   2.07181
    R5        2.53483  -0.01067   0.00000  -0.02044  -0.02170   2.51313
    R6        2.05160  -0.00198   0.00000  -0.00432  -0.00432   2.04729
    R7        2.85403  -0.00864   0.00000  -0.03826  -0.03825   2.81577
    R8        2.05062  -0.00150   0.00000  -0.00354  -0.00354   2.04708
    R9        2.85406  -0.00428   0.00000  -0.07193  -0.07110   2.78296
   R10        2.62939   0.01355   0.00000   0.06354   0.06410   2.69349
   R11        2.09648  -0.01440   0.00000  -0.04357  -0.04357   2.05292
   R12        2.91331  -0.00717   0.00000  -0.03882  -0.03766   2.87564
   R13        2.68080   0.02892   0.00000   0.06198   0.06184   2.74264
   R14        2.09750  -0.01523   0.00000  -0.05098  -0.05098   2.04652
   R15        2.09926  -0.00993   0.00000  -0.03445  -0.03445   2.06481
   R16        2.10276  -0.01508   0.00000  -0.04356  -0.04356   2.05920
    A1        1.93053   0.00010   0.00000   0.00940   0.00844   1.93897
    A2        1.93406   0.00342   0.00000   0.01991   0.01973   1.95379
    A3        1.87970  -0.00199   0.00000  -0.00643  -0.00571   1.87399
    A4        1.96282  -0.00067   0.00000  -0.00904  -0.00835   1.95447
    A5        1.86981   0.00067   0.00000   0.00692   0.00651   1.87632
    A6        1.88323  -0.00177   0.00000  -0.02216  -0.02224   1.86099
    A7        2.09805   0.00112   0.00000   0.00821   0.00717   2.10522
    A8        2.09181  -0.00073   0.00000  -0.01301  -0.01250   2.07931
    A9        2.09332  -0.00039   0.00000   0.00481   0.00533   2.09865
   A10        2.11632   0.00162   0.00000  -0.00227  -0.00234   2.11398
   A11        2.08733   0.00339   0.00000   0.02487   0.02483   2.11215
   A12        2.07667  -0.00502   0.00000  -0.02265  -0.02260   2.05407
   A13        2.03272   0.00044   0.00000   0.01426   0.01649   2.04922
   A14        1.93323   0.00658   0.00000   0.04647   0.04711   1.98033
   A15        2.15013  -0.01135   0.00000  -0.09014  -0.09129   2.05885
   A16        2.00055   0.00924   0.00000   0.07647   0.07586   2.07641
   A17        2.02606  -0.00346   0.00000  -0.00819  -0.01111   2.01495
   A18        2.04284   0.00381   0.00000   0.03434   0.02955   2.07239
   A19        2.17216  -0.00183   0.00000  -0.03451  -0.04547   2.12668
   A20        1.88611   0.01175   0.00000   0.09343   0.09076   1.97687
   A21        2.06651  -0.00118   0.00000   0.01417   0.00109   2.06760
   A22        1.78486  -0.00068   0.00000   0.07098   0.07033   1.85519
   A23        1.90009  -0.00066   0.00000   0.01671   0.01670   1.91679
   A24        1.88151  -0.00043   0.00000   0.01557   0.01452   1.89603
   A25        1.94722   0.00376   0.00000   0.00327   0.00331   1.95054
   A26        1.89990   0.00488   0.00000   0.02521   0.02415   1.92405
   A27        1.94686  -0.00688   0.00000  -0.05557  -0.05508   1.89178
   A28        1.88657  -0.00038   0.00000  -0.00231  -0.00203   1.88454
    D1       -0.74879   0.00160   0.00000   0.04394   0.04534  -0.70345
    D2        2.39170   0.00288   0.00000   0.04822   0.04880   2.44050
    D3       -2.93788  -0.00011   0.00000   0.03419   0.03508  -2.90280
    D4        0.20260   0.00117   0.00000   0.03847   0.03855   0.24115
    D5        1.28920   0.00130   0.00000   0.05364   0.05444   1.34364
    D6       -1.85350   0.00258   0.00000   0.05792   0.05791  -1.79559
    D7        1.00229  -0.00850   0.00000  -0.09593  -0.09499   0.90730
    D8        3.06062  -0.00329   0.00000  -0.04818  -0.04775   3.01287
    D9       -1.15378  -0.00184   0.00000  -0.03938  -0.03908  -1.19285
   D10       -3.10812  -0.00443   0.00000  -0.06938  -0.06879   3.10628
   D11       -1.04978   0.00077   0.00000  -0.02163  -0.02155  -1.07133
   D12        1.01900   0.00223   0.00000  -0.01283  -0.01288   1.00612
   D13       -1.04180  -0.00655   0.00000  -0.09731  -0.09657  -1.13837
   D14        1.01654  -0.00135   0.00000  -0.04956  -0.04933   0.96720
   D15        3.08532   0.00010   0.00000  -0.04076  -0.04066   3.04466
   D16        0.09597   0.00378   0.00000   0.00617   0.00609   0.10206
   D17       -3.12785   0.00332   0.00000   0.00435   0.00350  -3.12436
   D18       -3.04452   0.00249   0.00000   0.00190   0.00260  -3.04191
   D19        0.01485   0.00204   0.00000   0.00007   0.00000   0.01485
   D20        0.25226  -0.00335   0.00000   0.00364   0.00245   0.25472
   D21        1.36982   0.01129   0.00000   0.05882   0.05787   1.42769
   D22       -2.39840  -0.00228   0.00000  -0.02075  -0.02176  -2.42015
   D23       -2.80759  -0.00328   0.00000   0.00327   0.00281  -2.80478
   D24       -1.69003   0.01136   0.00000   0.05845   0.05823  -1.63180
   D25        0.82493  -0.00221   0.00000  -0.02113  -0.02140   0.80353
   D26        0.07844  -0.00110   0.00000  -0.05003  -0.04989   0.02855
   D27       -3.12648   0.01388   0.00000   0.21526   0.21075  -2.91574
   D28        2.77112  -0.00768   0.00000  -0.07333  -0.07253   2.69860
   D29       -0.43380   0.00730   0.00000   0.19195   0.18811  -0.24569
   D30       -0.68874   0.00629   0.00000   0.08776   0.08829  -0.60045
   D31       -2.73543   0.00444   0.00000   0.04564   0.04643  -2.68900
   D32        1.46753   0.00598   0.00000   0.06628   0.06743   1.53497
   D33       -1.75522  -0.00045   0.00000   0.01217   0.01279  -1.74243
   D34        2.48127  -0.00230   0.00000  -0.02995  -0.02908   2.45220
   D35        0.40105  -0.00076   0.00000  -0.00931  -0.00807   0.39299
   D36        2.51222  -0.00771   0.00000  -0.15899  -0.16163   2.35058
   D37        0.46553  -0.00956   0.00000  -0.20112  -0.20350   0.26203
   D38       -1.61469  -0.00802   0.00000  -0.18048  -0.18249  -1.79718
         Item               Value     Threshold  Converged?
 Maximum Force            0.028916     0.000450     NO 
 RMS     Force            0.007006     0.000300     NO 
 Maximum Displacement     0.179838     0.001800     NO 
 RMS     Displacement     0.048495     0.001200     NO 
 Predicted change in Energy=-1.716303D-02
 Lowest energy point so far.  Saving SCF results.
 GradGradGradGradGradGradGradGradGradGradGradGradGradGradGradGradGradGrad

 Leave Link  103 at Sun Apr  3 20:00:58 2022, MaxMem=  1073741824 cpu:               0.5 elap:               0.1
 (Enter /home/saurabh/g16/l202.exe)
                          Input orientation:                          
 ---------------------------------------------------------------------
 Center     Atomic      Atomic             Coordinates (Angstroms)
 Number     Number       Type             X           Y           Z
 ---------------------------------------------------------------------
      1          6           0       -0.147459    0.048022   -0.348789
      2          6           0       -1.210018    1.042990   -0.740329
      3          6           0       -1.120585    2.314290   -0.360324
      4          6           0        0.087092    2.822980    0.348884
      5          6           0        1.293855    1.979258    0.323562
      6          6           0        1.253947    0.668216   -0.447942
      7          1           0        1.977982   -0.036928   -0.032697
      8          1           0        1.534647    0.868873   -1.481552
      9          1           0       -1.888436    3.031242   -0.624621
     10          1           0       -2.051713    0.709182   -1.335163
     11          1           0       -0.225523   -0.877046   -0.919689
     12          1           0       -0.317573   -0.216248    0.701550
     13          8           0        1.164027    3.148662   -0.526169
     14          1           0       -0.060610    3.505151    1.181349
     15          1           0        2.137784    2.169271    0.975104
 ---------------------------------------------------------------------
                    Distance matrix (angstroms):
                    1          2          3          4          5
     1  C    0.000000
     2  C    1.507413   0.000000
     3  C    2.466389   1.329890   0.000000
     4  C    2.870915   2.457080   1.490042   0.000000
     5  C    2.501822   2.877124   2.531693   1.472679   0.000000
     6  C    1.535711   2.509396   2.890612   2.576721   1.521724
     7  H    2.150495   3.439521   3.903419   3.449658   2.158693
     8  H    2.187790   2.848318   3.224382   3.043755   2.132926
     9  H    3.465066   2.103993   1.083267   2.212193   3.483202
    10  H    2.244159   1.083377   2.096111   3.446541   3.944273
    11  H    1.089850   2.165165   3.361347   3.923927   3.465928
    12  H    1.096353   2.112144   2.859376   3.086265   2.749513
    13  O    3.371265   3.180536   2.437855   1.425334   1.451345
    14  H    3.781614   3.328096   2.217758   1.086356   2.213305
    15  H    3.387436   3.926703   3.524396   2.241612   1.082972
                    6          7          8          9         10
     6  C    0.000000
     7  H    1.092649   0.000000
     8  H    1.089681   1.765276   0.000000
     9  H    3.935693   4.971240   4.138559   0.000000
    10  H    3.422898   4.300179   3.592897   2.433822   0.000000
    11  H    2.190710   2.519521   2.542070   4.257589   2.454325
    12  H    2.138523   2.416783   3.061721   3.843505   2.830524
    13  O    2.483308   3.324759   2.499511   3.056307   4.116615
    14  H    3.525741   4.263342   4.072572   2.612866   4.256145
    15  H    2.249310   2.430743   2.844287   4.417303   5.002108
                   11         12         13         14         15
    11  H    0.000000
    12  H    1.753152   0.000000
    13  O    4.276919   3.876216   0.000000
    14  H    4.862634   3.760990   2.131300   0.000000
    15  H    4.295988   3.434285   2.039909   2.580707   0.000000
 Stoichiometry    C6H8O
 Framework group  C1[X(C6H8O)]
 Deg. of freedom    39
 Full point group                 C1      NOp   1
 RotChk:  IX=0 Diff= 5.85D-02
 Largest Abelian subgroup         C1      NOp   1
 Largest concise Abelian subgroup C1      NOp   1
                         Standard orientation:                         
 ---------------------------------------------------------------------
 Center     Atomic      Atomic             Coordinates (Angstroms)
 Number     Number       Type             X           Y           Z
 ---------------------------------------------------------------------
      1          6           0       -1.582212   -0.532391    0.186365
      2          6           0       -1.351673    0.912696   -0.175395
      3          6           0       -0.160429    1.474982    0.007299
      4          6           0        1.011887    0.668933    0.450231
      5          6           0        0.899442   -0.796755    0.361354
      6          6           0       -0.377190   -1.399550   -0.206530
      7          1           0       -0.528121   -2.406828    0.189062
      8          1           0       -0.269877   -1.475652   -1.288240
      9          1           0        0.008087    2.517132   -0.235586
     10          1           0       -2.170935    1.490980   -0.585401
     11          1           0       -2.513173   -0.913656   -0.232825
     12          1           0       -1.684542   -0.584574    1.276684
     13          8           0        1.654214   -0.030206   -0.612876
     14          1           0        1.676233    1.101613    1.192931
     15          1           0        1.609665   -1.454861    0.846439
 ---------------------------------------------------------------------
 Rotational constants (GHZ):           4.4211029           3.2259998           2.1356968
 Leave Link  202 at Sun Apr  3 20:00:58 2022, MaxMem=  1073741824 cpu:               0.1 elap:               0.0
 (Enter /home/saurabh/g16/l301.exe)
 Standard basis: CC-pVTZ (5D, 7F)
 Ernie: Thresh=  0.10000D-02 Tol=  0.10000D-05 Strict=F.
 Ernie:  21 primitive shells out of 246 were deleted.
 There are   365 symmetry adapted cartesian basis functions of A   symmetry.
 There are   322 symmetry adapted basis functions of A   symmetry.
   322 basis functions,   500 primitive gaussians,   365 cartesian basis functions
    26 alpha electrons       26 beta electrons
       nuclear repulsion energy       299.9077623490 Hartrees.
 IExCor=  402 DFT=T Ex+Corr=B3LYP ExCW=0 ScaHFX=  0.200000
 ScaDFX=  0.800000  0.720000  1.000000  0.810000 ScalE2=  1.000000  1.000000
 IRadAn=      5 IRanWt=     -1 IRanGd=            0 ICorTp=0 IEmpDi=  4
 NAtoms=   15 NActive=   15 NUniq=   15 SFac= 1.00D+00 NAtFMM=   60 NAOKFM=F Big=F
 Integral buffers will be    131072 words long.
 Raffenetti 2 integral format.
 Two-electron integral symmetry is turned on.
 Leave Link  301 at Sun Apr  3 20:00:58 2022, MaxMem=  1073741824 cpu:               0.4 elap:               0.1
 (Enter /home/saurabh/g16/l302.exe)
 NPDir=0 NMtPBC=     1 NCelOv=     1 NCel=       1 NClECP=     1 NCelD=      1
         NCelK=      1 NCelE2=     1 NClLst=     1 CellRange=     0.0.
 One-electron integrals computed using PRISM.
 One-electron integral symmetry used in STVInt
 NBasis=   322 RedAO= T EigKep=  1.32D-04  NBF=   322
 NBsUse=   322 1.00D-06 EigRej= -1.00D+00 NBFU=   322
 Precomputing XC quadrature grid using
 IXCGrd= 4 IRadAn=           5 IRanWt=          -1 IRanGd=           0 AccXCQ= 0.00D+00.
 Generated NRdTot=       0 NPtTot=           0 NUsed=           0 NTot=          32
 NSgBfM=   365   365   365   365   365 MxSgAt=    15 MxSgA2=    15.
 Leave Link  302 at Sun Apr  3 20:00:59 2022, MaxMem=  1073741824 cpu:               2.3 elap:               0.3
 (Enter /home/saurabh/g16/l303.exe)
 DipDrv:  MaxL=1.
 Leave Link  303 at Sun Apr  3 20:00:59 2022, MaxMem=  1073741824 cpu:               0.3 elap:               0.1
 (Enter /home/saurabh/g16/l401.exe)
 Initial guess from the checkpoint file:  "Mol_04.chk"
 B after Tr=     0.000000    0.000000   -0.000000
         Rot=    0.999871    0.000667    0.010689    0.011943 Ang=   1.84 deg.
 Guess basis will be translated and rotated to current coordinates.
 JPrj=2 DoOrth=T DoCkMO=T.
 Generating alternative initial guess.
 ExpMin= 1.03D-01 ExpMax= 1.53D+04 ExpMxC= 5.22D+02 IAcc=3 IRadAn=         5 AccDes= 0.00D+00
 Harris functional with IExCor=  402 and IRadAn=       5 diagonalized for initial guess.
 HarFok:  IExCor=  402 AccDes= 0.00D+00 IRadAn=         5 IDoV= 1 UseB2=F ITyADJ=14
 ICtDFT=  3500011 ScaDFX=  1.000000  1.000000  1.000000  1.000000
 FoFCou: FMM=F IPFlag=           0 FMFlag=      100000 FMFlg1=           0
         NFxFlg=           0 DoJE=T BraDBF=F KetDBF=T FulRan=T
         wScrn=  0.000000 ICntrl=       500 IOpCl=  0 I1Cent=   200000004 NGrid=           0
         NMat0=    1 NMatS0=      1 NMatT0=    0 NMatD0=    1 NMtDS0=    0 NMtDT0=    0
 Petite list used in FoFCou.
 Harris En= -308.753452544637    
 Leave Link  401 at Sun Apr  3 20:01:01 2022, MaxMem=  1073741824 cpu:              18.3 elap:               2.3
 (Enter /home/saurabh/g16/l502.exe)
 Integral symmetry usage will be decided dynamically.
 Closed shell SCF:
 Using DIIS extrapolation, IDIIS=  1040.
 NGot=  1073741824 LenX=  1073468848 LenY=  1073335182
 Requested convergence on RMS density matrix=1.00D-08 within1000 cycles.
 Requested convergence on MAX density matrix=1.00D-06.
 Requested convergence on             energy=1.00D-06.
 No special actions if energy rises.
 Fock matrices will be formed incrementally for  20 cycles.
 Integral accuracy reduced to 1.0D-05 until final iterations.

 Cycle   1  Pass 0  IDiag  1:
 FoFJK:  IHMeth= 1 ICntrl=       0 DoSepK=F KAlg= 0 I1Cent=           0 FoldK=F
 IRaf= 980000000 NMat=       1 IRICut=       1 DoRegI=T DoRafI=F ISym2E= 0 IDoP0=0 IntGTp=1.
 FoFCou: FMM=F IPFlag=           0 FMFlag=      100000 FMFlg1=           0
         NFxFlg=           0 DoJE=F BraDBF=F KetDBF=F FulRan=T
         wScrn=  0.000000 ICntrl=         0 IOpCl=  0 I1Cent=           0 NGrid=           0
         NMat0=    1 NMatS0=      1 NMatT0=    0 NMatD0=    1 NMtDS0=    0 NMtDT0=    0
 Symmetry not used in FoFCou.
 E= -308.712586822075    
 DIIS: error= 2.34D-03 at cycle   1 NSaved=   1.
 NSaved= 1 IEnMin= 1 EnMin= -308.712586822075     IErMin= 1 ErrMin= 2.34D-03
 ErrMax= 2.34D-03  0.00D+00 EMaxC= 1.00D-01 BMatC= 7.31D-03 BMatP= 7.31D-03
 IDIUse=3 WtCom= 9.77D-01 WtEn= 2.34D-02
 Coeff-Com:  0.100D+01
 Coeff-En:   0.100D+01
 Coeff:      0.100D+01
 Gap=     0.810 Goal=   None    Shift=    0.000
 GapD=    0.810 DampG=2.000 DampE=1.000 DampFc=2.0000 IDamp=-1.
 RMSDP=3.31D-04 MaxDP=7.80D-03              OVMax= 2.43D-02

 Cycle   2  Pass 0  IDiag  1:
 RMSU=  3.31D-04    CP:  1.00D+00
 E= -308.720567364223     Delta-E=       -0.007980542148 Rises=F Damp=F
 DIIS: error= 8.77D-04 at cycle   2 NSaved=   2.
 NSaved= 2 IEnMin= 2 EnMin= -308.720567364223     IErMin= 2 ErrMin= 8.77D-04
 ErrMax= 8.77D-04  0.00D+00 EMaxC= 1.00D-01 BMatC= 6.51D-04 BMatP= 7.31D-03
 IDIUse=3 WtCom= 9.91D-01 WtEn= 8.77D-03
 Coeff-Com:  0.884D-01 0.912D+00
 Coeff-En:   0.000D+00 0.100D+01
 Coeff:      0.876D-01 0.912D+00
 Gap=     0.243 Goal=   None    Shift=    0.000
 RMSDP=1.16D-04 MaxDP=4.13D-03 DE=-7.98D-03 OVMax= 1.07D-02

 Cycle   3  Pass 0  IDiag  1:
 RMSU=  1.16D-04    CP:  9.99D-01  1.00D+00
 E= -308.719934681267     Delta-E=        0.000632682956 Rises=F Damp=F
 DIIS: error= 1.47D-03 at cycle   3 NSaved=   3.
 NSaved= 3 IEnMin= 2 EnMin= -308.720567364223     IErMin= 2 ErrMin= 8.77D-04
 ErrMax= 1.47D-03  0.00D+00 EMaxC= 1.00D-01 BMatC= 1.60D-03 BMatP= 6.51D-04
 IDIUse=3 WtCom= 2.07D-01 WtEn= 7.93D-01
 Coeff-Com: -0.259D-01 0.626D+00 0.400D+00
 Coeff-En:   0.000D+00 0.660D+00 0.340D+00
 Coeff:     -0.536D-02 0.653D+00 0.353D+00
 Gap=     0.241 Goal=   None    Shift=    0.000
 RMSDP=7.94D-05 MaxDP=2.75D-03 DE= 6.33D-04 OVMax= 5.67D-03

 Cycle   4  Pass 0  IDiag  1:
 RMSU=  3.37D-05    CP:  1.00D+00  1.05D+00  4.00D-01
 E= -308.721094787980     Delta-E=       -0.001160106713 Rises=F Damp=F
 DIIS: error= 1.87D-04 at cycle   4 NSaved=   4.
 NSaved= 4 IEnMin= 4 EnMin= -308.721094787980     IErMin= 4 ErrMin= 1.87D-04
 ErrMax= 1.87D-04  0.00D+00 EMaxC= 1.00D-01 BMatC= 1.57D-05 BMatP= 6.51D-04
 IDIUse=3 WtCom= 9.98D-01 WtEn= 1.87D-03
 Coeff-Com: -0.127D-01 0.227D+00 0.103D+00 0.682D+00
 Coeff-En:   0.000D+00 0.000D+00 0.000D+00 0.100D+01
 Coeff:     -0.127D-01 0.227D+00 0.103D+00 0.683D+00
 Gap=     0.241 Goal=   None    Shift=    0.000
 RMSDP=1.54D-05 MaxDP=3.80D-04 DE=-1.16D-03 OVMax= 1.04D-03

 Cycle   5  Pass 0  IDiag  1:
 RMSU=  1.12D-05    CP:  9.99D-01  1.06D+00  3.84D-01  7.11D-01
 E= -308.721108263172     Delta-E=       -0.000013475192 Rises=F Damp=F
 DIIS: error= 9.18D-05 at cycle   5 NSaved=   5.
 NSaved= 5 IEnMin= 5 EnMin= -308.721108263172     IErMin= 5 ErrMin= 9.18D-05
 ErrMax= 9.18D-05  0.00D+00 EMaxC= 1.00D-01 BMatC= 2.96D-06 BMatP= 1.57D-05
 IDIUse=1 WtCom= 1.00D+00 WtEn= 0.00D+00
 Coeff-Com: -0.388D-02 0.395D-01 0.459D-02 0.361D+00 0.599D+00
 Coeff:     -0.388D-02 0.395D-01 0.459D-02 0.361D+00 0.599D+00
 Gap=     0.241 Goal=   None    Shift=    0.000
 RMSDP=5.51D-06 MaxDP=1.88D-04 DE=-1.35D-05 OVMax= 5.27D-04

 Initial convergence to 1.0D-05 achieved.  Increase integral accuracy.
 Cycle   6  Pass 1  IDiag  1:
 E= -308.721105947262     Delta-E=        0.000002315909 Rises=F Damp=F
 DIIS: error= 4.02D-05 at cycle   1 NSaved=   1.
 NSaved= 1 IEnMin= 1 EnMin= -308.721105947262     IErMin= 1 ErrMin= 4.02D-05
 ErrMax= 4.02D-05  0.00D+00 EMaxC= 1.00D-01 BMatC= 3.58D-07 BMatP= 3.58D-07
 IDIUse=1 WtCom= 1.00D+00 WtEn= 0.00D+00
 Coeff-Com:  0.100D+01
 Coeff:      0.100D+01
 Gap=     0.241 Goal=   None    Shift=    0.000
 RMSDP=5.51D-06 MaxDP=1.88D-04 DE= 2.32D-06 OVMax= 4.60D-04

 Cycle   7  Pass 1  IDiag  1:
 RMSU=  8.82D-06    CP:  1.00D+00
 E= -308.721105728651     Delta-E=        0.000000218612 Rises=F Damp=F
 DIIS: error= 3.07D-05 at cycle   2 NSaved=   2.
 NSaved= 2 IEnMin= 1 EnMin= -308.721105947262     IErMin= 2 ErrMin= 3.07D-05
 ErrMax= 3.07D-05  0.00D+00 EMaxC= 1.00D-01 BMatC= 4.18D-07 BMatP= 3.58D-07
 IDIUse=1 WtCom= 1.00D+00 WtEn= 0.00D+00
 Coeff-Com:  0.525D+00 0.475D+00
 Coeff:      0.525D+00 0.475D+00
 Gap=     0.241 Goal=   None    Shift=    0.000
 RMSDP=1.76D-06 MaxDP=9.96D-05 DE= 2.19D-07 OVMax= 4.32D-04

 Cycle   8  Pass 1  IDiag  1:
 RMSU=  1.73D-06    CP:  1.00D+00  9.60D-01
 E= -308.721106072536     Delta-E=       -0.000000343886 Rises=F Damp=F
 DIIS: error= 1.36D-05 at cycle   3 NSaved=   3.
 NSaved= 3 IEnMin= 3 EnMin= -308.721106072536     IErMin= 3 ErrMin= 1.36D-05
 ErrMax= 1.36D-05  0.00D+00 EMaxC= 1.00D-01 BMatC= 7.69D-08 BMatP= 3.58D-07
 IDIUse=1 WtCom= 1.00D+00 WtEn= 0.00D+00
 Coeff-Com:  0.322D-01 0.299D+00 0.669D+00
 Coeff:      0.322D-01 0.299D+00 0.669D+00
 Gap=     0.241 Goal=   None    Shift=    0.000
 RMSDP=6.49D-07 MaxDP=2.91D-05 DE=-3.44D-07 OVMax= 1.32D-04

 Cycle   9  Pass 1  IDiag  1:
 RMSU=  3.02D-07    CP:  1.00D+00  9.90D-01  7.04D-01
 E= -308.721106147743     Delta-E=       -0.000000075207 Rises=F Damp=F
 DIIS: error= 2.41D-06 at cycle   4 NSaved=   4.
 NSaved= 4 IEnMin= 4 EnMin= -308.721106147743     IErMin= 4 ErrMin= 2.41D-06
 ErrMax= 2.41D-06  0.00D+00 EMaxC= 1.00D-01 BMatC= 2.24D-09 BMatP= 7.69D-08
 IDIUse=1 WtCom= 1.00D+00 WtEn= 0.00D+00
 Coeff-Com:  0.106D-02 0.138D+00 0.336D+00 0.525D+00
 Coeff:      0.106D-02 0.138D+00 0.336D+00 0.525D+00
 Gap=     0.241 Goal=   None    Shift=    0.000
 RMSDP=1.40D-07 MaxDP=3.77D-06 DE=-7.52D-08 OVMax= 1.52D-05

 Cycle  10  Pass 1  IDiag  1:
 RMSU=  7.76D-08    CP:  1.00D+00  9.89D-01  7.20D-01  6.27D-01
 E= -308.721106149605     Delta-E=       -0.000000001862 Rises=F Damp=F
 DIIS: error= 5.55D-07 at cycle   5 NSaved=   5.
 NSaved= 5 IEnMin= 5 EnMin= -308.721106149605     IErMin= 5 ErrMin= 5.55D-07
 ErrMax= 5.55D-07  0.00D+00 EMaxC= 1.00D-01 BMatC= 2.51D-10 BMatP= 2.24D-09
 IDIUse=1 WtCom= 1.00D+00 WtEn= 0.00D+00
 Coeff-Com: -0.155D-02 0.619D-01 0.155D+00 0.311D+00 0.474D+00
 Coeff:     -0.155D-02 0.619D-01 0.155D+00 0.311D+00 0.474D+00
 Gap=     0.241 Goal=   None    Shift=    0.000
 RMSDP=3.45D-08 MaxDP=1.20D-06 DE=-1.86D-09 OVMax= 3.92D-06

 Cycle  11  Pass 1  IDiag  1:
 RMSU=  2.31D-08    CP:  1.00D+00  9.89D-01  7.17D-01  6.69D-01  7.38D-01
 E= -308.721106149793     Delta-E=       -0.000000000188 Rises=F Damp=F
 DIIS: error= 1.51D-07 at cycle   6 NSaved=   6.
 NSaved= 6 IEnMin= 6 EnMin= -308.721106149793     IErMin= 6 ErrMin= 1.51D-07
 ErrMax= 1.51D-07  0.00D+00 EMaxC= 1.00D-01 BMatC= 1.50D-11 BMatP= 2.51D-10
 IDIUse=1 WtCom= 1.00D+00 WtEn= 0.00D+00
 Coeff-Com: -0.946D-03 0.266D-01 0.668D-01 0.144D+00 0.272D+00 0.492D+00
 Coeff:     -0.946D-03 0.266D-01 0.668D-01 0.144D+00 0.272D+00 0.492D+00
 Gap=     0.241 Goal=   None    Shift=    0.000
 RMSDP=1.14D-08 MaxDP=3.99D-07 DE=-1.88D-10 OVMax= 7.81D-07

 Cycle  12  Pass 1  IDiag  1:
 RMSU=  9.79D-09    CP:  1.00D+00  9.89D-01  7.18D-01  6.59D-01  7.64D-01
                    CP:  8.14D-01
 E= -308.721106149808     Delta-E=       -0.000000000015 Rises=F Damp=F
 DIIS: error= 3.69D-08 at cycle   7 NSaved=   7.
 NSaved= 7 IEnMin= 7 EnMin= -308.721106149808     IErMin= 7 ErrMin= 3.69D-08
 ErrMax= 3.69D-08  0.00D+00 EMaxC= 1.00D-01 BMatC= 1.01D-12 BMatP= 1.50D-11
 IDIUse=1 WtCom= 1.00D+00 WtEn= 0.00D+00
 Coeff-Com: -0.131D-03 0.594D-03 0.156D-02 0.580D-02 0.341D-01 0.222D+00
 Coeff-Com:  0.736D+00
 Coeff:     -0.131D-03 0.594D-03 0.156D-02 0.580D-02 0.341D-01 0.222D+00
 Coeff:      0.736D+00
 Gap=     0.241 Goal=   None    Shift=    0.000
 RMSDP=3.54D-09 MaxDP=9.29D-08 DE=-1.55D-11 OVMax= 2.54D-07

 SCF Done:  E(RB3LYP) =  -308.721106150     A.U. after   12 cycles
[...]
 ! D35   D(13,5,6,8)            24.8906         -DE/DX =    0.0                 !
 ! D36   D(15,5,6,1)           125.9195         -DE/DX =    0.0                 !
 ! D37   D(15,5,6,7)             2.649          -DE/DX =    0.0                 !
 ! D38   D(15,5,6,8)          -113.2459         -DE/DX =    0.0                 !
 --------------------------------------------------------------------------------
 GradGradGradGradGradGradGradGradGradGradGradGradGradGradGradGradGradGrad

 Leave Link  103 at Sun Apr  3 20:24:32 2022, MaxMem=  1073741824 cpu:               0.2 elap:               0.1
 (Enter /home/saurabh/g16/l9999.exe)

 ----------------------------------------------------------------------

 Electric dipole moment (input orientation):
 (Debye = 10**-18 statcoulomb cm , SI units = C m)
                  (au)            (Debye)         (10**-30 SI)
   Tot        0.869845D+00      0.221093D+01      0.737485D+01
   x         -0.310217D+00     -0.788492D+00     -0.263013D+01
   y         -0.672884D+00     -0.171030D+01     -0.570495D+01
   z          0.455656D+00      0.115816D+01      0.386321D+01

 Dipole polarizability, Alpha (input orientation).
 (esu units = cm**3 , SI units = C**2 m**2 J**-1)
 Alpha(0;0):
               (au)            (10**-24 esu)      (10**-40 SI)
   iso        0.661744D+02      0.980604D+01      0.109107D+02
   aniso      0.241046D+02      0.357194D+01      0.397432D+01
   xx         0.693323D+02      0.102740D+02      0.114314D+02
   yx        -0.117251D+01     -0.173748D+00     -0.193321D+00
   yy         0.765013D+02      0.113363D+02      0.126134D+02
   zx         0.423213D+01      0.627137D+00      0.697784D+00
   zy         0.501650D+01      0.743369D+00      0.827110D+00
   zz         0.526897D+02      0.780781D+01      0.868736D+01

 ----------------------------------------------------------------------

 Dipole orientation:
     6         -0.52803743         -0.49596472         -0.36653373
     6         -2.93593185          0.66150203         -1.34269002
     6         -2.97782058          2.53373597         -3.02044502
     6         -0.60501806          3.64088914         -4.01461428
     6          1.76952712          2.28326684         -3.58098285
     6          1.70958683         -0.23731449         -2.20588799
     1          3.48300646         -0.52408855         -1.19412688
     1          1.58963287         -1.71450983         -3.64014273
     1         -4.75228405          3.32005993         -3.66997988
     1         -4.69758447         -0.07060717         -0.59608800
     1         -0.83947406         -2.48998471          0.06079878
     1         -0.06398411          0.38692505          1.44960392
     8          0.65217262          2.32816129         -6.05234012
     1         -0.56819550          5.68224241         -4.22149912
     1          3.50809885          3.36491091         -3.45321342

 Electric dipole moment (dipole orientation):
 (Debye = 10**-18 statcoulomb cm , SI units = C m)
                  (au)            (Debye)         (10**-30 SI)
   Tot        0.869845D+00      0.221093D+01      0.737485D+01
   x          0.000000D+00      0.000000D+00      0.000000D+00
   y          0.000000D+00      0.000000D+00      0.000000D+00
   z          0.869845D+00      0.221093D+01      0.737485D+01

 Dipole polarizability, Alpha (dipole orientation).
 (esu units = cm**3 , SI units = C**2 m**2 J**-1)
 Alpha(0;0):
               (au)            (10**-24 esu)      (10**-40 SI)
   iso        0.661744D+02      0.980604D+01      0.109107D+02
   aniso      0.241046D+02      0.357194D+01      0.397432D+01
   xx         0.699585D+02      0.103668D+02      0.115346D+02
   yx        -0.295938D+01     -0.438535D+00     -0.487936D+00
   yy         0.658031D+02      0.975101D+01      0.108495D+02
   zx        -0.171559D+01     -0.254225D+00     -0.282863D+00
   zy        -0.129971D+02     -0.192597D+01     -0.214293D+01
   zz         0.627617D+02      0.930032D+01      0.103480D+02

 ----------------------------------------------------------------------
 Unable to Open any file for archive entry.
 1\1\GINC-HEL01\Freq\RB3LYP\CC-pVTZ\C6H8O1\SAURABH\03-Apr-2022\0\\#P Ge
 om=AllCheck Guess=TCheck SCRF=Check GenChk RB3LYP/CC-pVTZ Freq\\Mol_04
 \\0,1\C,-0.1394140728,0.041242279,-0.4042820951\C,-1.2339318552,1.0434
 98348,-0.6554848172\C,-1.1169855915,2.3359885178,-0.3620594525\C,0.115
 3974563,2.871437731,0.2633752534\C,1.315303148,2.0301377277,0.27596063
 42\C,1.2682022441,0.6629390444,-0.385984234\H,1.964858492,-0.013291950
 8,0.1117704656\H,1.6222217846,0.7868235157,-1.4108973908\H,-1.93036750
 89,3.0245809444,-0.5551082181\H,-2.1591109143,0.6713691172,-1.08068169
 7\H,-0.1800753932,-0.7446699005,-1.1608613185\H,-0.3416753359,-0.46292
 6037,0.5481474099\O,1.2354766579,3.1632745111,-0.6015970906\H,-0.02326
 97682,3.6086293282,1.0486131613\H,2.0307869568,2.1588802432,1.08226286
 17\\Version=EM64L-G16RevC.01\State=1-A\HF=-308.7272066\RMSD=3.127e-09\
 RMSF=1.159e-05\ZeroPoint=0.1271378\Thermal=0.1329233\ETot=-308.5942834
 \HTot=-308.5933392\GTot=-308.6295951\Dipole=-0.3102167,-0.6728845,0.45
 5656\DipoleDeriv=0.0366626,0.0386293,-0.0526863,0.0521446,0.0295677,-0
 .0071662,-0.0538748,0.0614579,0.1866573,0.0418482,-0.1004925,0.1015907
 ,-0.0490387,0.1943177,0.0467972,0.0924438,-0.0194916,-0.1417321,0.0296
 208,-0.0571422,0.1105417,-0.0556125,-0.1168806,-0.023081,0.0788961,-0.
 0976892,-0.2237925,0.3725326,0.1854655,-0.0463323,0.1840568,0.3024548,
 0.063664,-0.1259803,0.1057977,0.372199,0.1891239,0.0736856,0.0741034,-
 0.0345027,0.3636611,-0.0107819,0.0974623,-0.0472379,0.3129126,0.097880
 9,-0.0313312,-0.0164547,-0.041157,0.0141184,-0.0597898,-0.0178924,-0.1
 089583,0.0776305,-0.0652666,0.0857623,-0.0531355,0.0881254,-0.0465153,
 0.0395357,-0.0917662,0.0693325,0.0253807,0.0154625,-0.0203857,0.026409
 ,-0.0298077,0.0232677,0.0385638,0.0764442,-0.0213484,-0.0812509,-0.060
 3165,0.0798163,-0.055005,0.0732457,-0.0165732,-0.0016148,-0.0669522,0.
 0043181,0.1164473,-0.0933118,-0.0325254,-0.080075,-0.0267414,0.0234513
 ,-0.0324189,-0.0945518,-0.0380986,0.0877377,0.0251918,0.0057996,-0.012
 8954,-0.0144958,-0.0696811,-0.0837458,-0.0126339,-0.1338337,-0.025964,
 0.003235,0.0442456,0.0355628,-0.015138,-0.0220041,0.0576639,0.0397391,
 0.1284587,-0.0785509,-0.5225905,-0.2546038,0.0759281,-0.159567,-0.6280
 337,0.1183458,0.1581067,0.2181523,-0.5349811,-0.020451,-0.0158948,0.01
 68267,0.0224106,-0.0424743,-0.1219837,0.0295945,-0.106119,-0.0354873,-
 0.0496219,-0.0010284,-0.1243783,0.0060775,-0.0086764,-0.0239884,-0.109
 0351,-0.0147406,-0.0572061\Polar=69.3322953,-1.1725128,76.5012792,4.23
 21319,5.0165045,52.6897218\Quadrupole=0.4681757,-0.2409228,-0.2272529,
 -2.0785869,1.6125918,1.9544931\PG=C01 [X(C6H8O1)]\NImag=0\\0.44248097,
 0.00249686,0.53041802,-0.01001124,0.02827496,0.54511588,-0.14956325,0.
 05311441,-0.01588183,0.54116685,0.05500653,-0.13575908,0.00584733,0.04
 785488,0.78181689,-0.02077144,0.00822947,-0.07817527,0.15965245,0.1351
 1135,0.23682596,0.00734330,0.02443347,0.00322641,-0.11121254,-0.028230
 02,-0.02689492,0.53659406,0.00803588,-0.02932624,-0.00088773,-0.035877
 65,-0.50487670,-0.09961890,-0.06087049,0.81263700,0.00120489,0.0058540
 2,0.00960310,-0.02895932,-0.09668894,-0.08354546,0.14327230,0.11163184
 ,0.22239143,-0.00148613,0.00277074,0.00065001,0.00024023,-0.02022658,-
 0.00715814,-0.17372027,-0.02509023,-0.05836003,0.56110575,0.00004907,0
 .00295599,0.00185168,-0.03012095,-0.01465093,-0.01492198,-0.03212887,-
 0.10436528,-0.03223781,-0.07035318,0.45977025,0.00233424,0.00283869,-0
 .00544805,-0.00825938,-0.00806264,0.00092721,-0.06641248,-0.03638705,-
 0.11030106,0.01819572,0.19947793,0.42303078,0.00073746,-0.02738426,-0.
 01518760,0.00311692,0.00192597,0.00175857,-0.02466678,0.01980673,-0.00
 824922,-0.19842550,0.09396139,-0.00541174,0.50657371,-0.00928421,-0.01
 433235,-0.00718573,-0.00041769,0.00090685,-0.00054392,-0.00430058,0.01
 039975,-0.00227313,0.14152098,-0.10963387,-0.03910227,-0.08595748,0.49
 733809,-0.00458317,-0.00309257,-0.00306260,-0.00009325,-0.00137773,0.0
 0067233,-0.00282406,0.01612490,-0.00625399,-0.04024795,-0.01565923,-0.
 02571424,0.17938285,0.05707810,0.45326854,-0.15365778,-0.03387111,0.00
 276177,-0.02983477,-0.00478820,-0.00431873,0.00200166,-0.00454764,-0.0
 0017838,0.00523102,0.02478767,0.01319487,-0.07869203,-0.00099120,-0.00
 744169,0.48871659,-0.03066982,-0.09533527,-0.00082199,0.01820132,0.015
 08550,-0.00060049,-0.00050569,-0.00121494,-0.00100696,0.00452987,-0.01
 449227,0.00175608,-0.00534572,-0.15679649,-0.05200785,-0.05394238,0.49
 637218,0.00464128,0.00170624,-0.07539194,-0.00972582,-0.00035144,-0.00
 186150,-0.00098377,-0.00031620,0.00053324,-0.00022332,-0.00830528,-0.0
 0694888,-0.00589205,-0.05584538,-0.10592800,0.00674417,-0.04702404,0.5
 5993941,-0.02049564,0.01879314,-0.01303870,-0.00442111,-0.00433242,-0.
 00071265,0.00016771,-0.00033981,-0.00021573,-0.00005210,-0.00000502,0.
 00051182,0.00017277,-0.00091956,0.00077786,-0.14939928,0.10120841,-0.0
 7542872,0.16461417,-0.01002978,0.00935847,-0.00583901,-0.00207376,-0.0
 0152629,-0.00027320,-0.00022539,0.00053437,-0.00013951,-0.00178376,-0.
 00279472,-0.00047893,0.01836312,-0.01516674,0.01560854,0.10047696,-0.1
 4711783,0.07178134,-0.10768191,0.16169882,0.00213929,-0.00068743,0.000
 35387,0.00053170,-0.00018742,0.00097388,-0.00020153,-0.00010792,-0.000
 15541,0.00049740,-0.00224185,-0.00065253,0.01004901,-0.01043305,0.0061
 3492,-0.07712258,0.07522649,-0.10504271,0.08383261,-0.07993481,0.10983
 922,-0.01294083,-0.00631667,0.02906987,0.00142861,-0.00154925,0.000587
 06,0.00019472,0.00074752,-0.00015654,-0.00003370,0.00014933,0.00031345
 ,-0.00022886,0.00101652,-0.00002543,-0.07171190,-0.00739361,0.07449841
 ,0.00729774,0.00135071,-0.02042807,0.07886785,-0.00639498,-0.00361757,
 0.01209409,0.00089282,-0.00030178,-0.00008644,-0.00040496,0.00040078,0
 .00008087,-0.00010836,-0.00175535,-0.00373611,0.01039971,-0.00335580,-
 0.02993046,-0.00707772,-0.04721297,0.02870999,-0.00656280,-0.00190290,
 0.01909364,0.01365201,0.05636410,-0.00068671,0.00030378,0.00198723,0.0
 0007658,-0.00033311,0.00031839,0.00003812,-0.00022162,0.00001801,-0.00
 121093,0.00043765,-0.00201506,0.00451032,-0.00188029,-0.01651013,0.077
 11919,0.02794862,-0.27690059,0.00366545,0.00166127,-0.01345174,-0.0829
 1731,-0.02803565,0.30006664,0.00247242,-0.00072129,-0.00381710,0.00552
 635,-0.00350713,-0.00049821,-0.20991426,0.13384642,-0.04399418,-0.0154
 3870,0.01804515,-0.00398121,-0.00111973,-0.00216075,-0.00343855,0.0002
 1564,-0.00090247,-0.00025707,0.00012459,0.00008892,0.00004043,-0.00000
 435,0.00009016,0.00005020,0.21902064,-0.00204105,-0.00233432,-0.004141
 33,0.02618910,-0.01813885,0.00613038,0.13048754,-0.16492488,0.02645081
 ,-0.01024696,0.01056921,-0.00221392,-0.00216384,-0.00057262,-0.0015115
 6,-0.00027160,-0.00018107,-0.00007130,0.00012533,0.00009280,0.00003674
 ,0.00005639,0.00004573,0.00002020,-0.14307908,0.17540811,-0.00448202,-
 0.00270395,0.01017978,0.00562959,-0.00605772,0.00598582,-0.04458758,0.
 02812093,-0.04806571,-0.00907496,0.00835162,-0.00001539,-0.00173240,-0
 .00209328,-0.00093622,0.00027886,0.00085515,-0.00004020,-0.00011057,0.
 00001826,-0.00010150,0.00002666,-0.00000121,0.00008402,0.05072790,-0.0
 2744278,0.03871351,-0.01454142,-0.00800036,-0.00687477,-0.25302689,-0.
 08043919,-0.09772930,0.00037079,0.00146503,-0.00173436,0.00274952,0.00
 011359,-0.00409329,0.00047848,0.00059535,-0.00002621,-0.00125245,0.003
 79581,-0.00170684,-0.00129185,-0.00061750,0.00005624,0.00007829,0.0000
 2637,0.00010633,0.00014159,-0.00084718,0.00286875,0.26567617,0.0186904
 3,0.00943153,0.00630871,-0.07574199,-0.08727284,-0.03709265,-0.0295661
 6,-0.00846803,-0.01423953,0.00284280,-0.00439853,-0.00311826,0.0003149
 6,-0.00056654,-0.00011703,0.00196344,-0.00306339,0.00136134,0.00115706
 ,0.00050657,-0.00004466,0.00007292,0.00004972,-0.00004108,-0.00036914,
 0.00077449,0.00149036,0.08365711,0.09209859,-0.00330840,-0.00410237,0.
 00157368,-0.09755439,-0.03800364,-0.08415496,-0.00744629,-0.00365338,0
 .00201953,-0.00273905,-0.00175217,0.01139294,0.00011060,0.00063315,0.0
 0080953,0.00063328,0.00023400,0.00026243,0.00011607,-0.00012985,0.0000
 5621,-0.00023984,-0.00009073,-0.00001246,0.00308502,0.00146184,-0.0063
 3702,0.10834093,0.04546273,0.07504890,-0.04766783,-0.00587023,-0.00660
 833,0.00032943,0.01896285,0.01910018,-0.00355081,0.00216169,-0.0014296
 5,-0.00106757,-0.00018760,0.00042304,-0.00579508,0.00036420,0.00006895
 ,-0.00242018,-0.02415552,-0.02036287,0.00020118,0.00062956,-0.00023846
 ,0.00181301,0.00003923,0.00011093,0.00071097,0.00115901,-0.00116894,0.
 00086449,-0.00048397,0.00008176,0.05562108,-0.00587780,-0.17425836,-0.
 12792801,0.00020492,-0.01942217,-0.01552150,0.00337733,-0.00025972,0.0
 0101385,0.00041258,0.00069057,-0.00035188,-0.00271597,0.00077267,-0.00
 004898,-0.00154028,-0.01019350,-0.00846802,-0.00028884,0.00008087,-0.0
 0002075,0.00039847,0.00036306,0.00039168,-0.00042452,-0.00108737,0.000
 67049,-0.00018302,0.00113223,0.00071436,0.00600707,0.19246387,-0.00637
 651,-0.13053033,-0.17271571,-0.00067674,0.00708240,0.00568624,-0.00048
 427,0.00065344,-0.00031770,0.00019101,0.00031950,0.00013012,0.00065447
 ,0.00054825,0.00110401,0.00074088,0.00224982,0.00077985,-0.00036689,-0
 .00018788,-0.00022118,-0.00012232,0.00033936,0.00130033,0.00006072,0.0
 0034417,-0.00028742,0.00061513,-0.00043439,0.00078354,0.00668472,0.139
 86994,0.18641041,-0.05172508,-0.01848969,0.03393216,0.00488596,0.01245
 810,-0.02069576,-0.00111664,0.00088875,0.00016031,-0.00093398,-0.00022
 643,-0.00191838,0.00041038,0.00122029,0.00032135,-0.00947208,-0.012719
 62,0.02764602,0.00143098,0.00046486,0.00005247,-0.00523528,-0.00315642
 ,-0.00058776,-0.00074076,-0.00021125,0.00209854,-0.00074656,-0.0006331
 7,0.00083312,0.00015213,0.00052117,-0.00053114,0.06170204,-0.02306833,
 -0.09334630,0.09685543,-0.00016958,-0.01645157,0.02027828,0.00295113,0
 .00056073,0.00019195,0.00025630,-0.00031000,0.00086715,-0.00019844,0.0
 0008810,0.00053858,-0.00312531,-0.00544811,0.01166460,0.00058702,0.001
 04335,-0.00049273,-0.00197392,-0.00023770,-0.00033462,0.00060650,0.000
 00532,-0.00173836,0.00053450,-0.00022592,0.00010852,0.00371494,0.01084
 599,-0.02032936,0.02044206,0.10342677,0.03949607,0.09511367,-0.2334547
 8,-0.00224273,0.00427070,-0.00254626,-0.00063477,-0.00169319,0.0001801
 9,0.00076370,-0.00003045,-0.00021206,-0.00040795,0.00023670,0.00030056
 ,0.00034078,-0.00100391,0.00157606,0.00064542,-0.00018756,0.00092582,-
 0.00014951,-0.00021941,0.00141919,-0.00000501,0.00010874,0.00002628,-0
 .00052474,0.00056588,-0.00005571,0.00397628,0.00971095,-0.02272834,-0.
 04143292,-0.10722556,0.25457608,-0.00103266,-0.00129574,0.00224843,-0.
 00437695,0.00648753,-0.00035959,-0.02801438,-0.02449270,0.01856722,-0.
 11475621,-0.01524146,0.06381774,-0.02874139,-0.02315464,-0.00014182,-0
 .00062807,0.00676378,-0.00170229,0.00057900,0.00144792,0.00062591,0.00
 080774,-0.00216408,-0.00086838,-0.00059899,0.00061797,-0.00078685,0.00
 120235,-0.00037752,-0.00325641,0.00051727,0.00012300,-0.00039565,0.001
 18311,-0.00030377,0.00016507,0.17726865,0.00251492,-0.00202282,-0.0014
 5818,-0.00195967,0.00026236,-0.00068893,-0.00578402,-0.00541334,0.0073
 8037,-0.05226609,-0.03875363,0.01992803,0.01203733,-0.14304002,0.06616
 301,-0.00379409,-0.02989830,0.02367628,-0.00153518,-0.00556698,-0.0003
 4168,0.00021644,0.00417661,0.00197239,-0.00088932,-0.00003581,0.000401
 20,0.00016683,0.00033757,-0.00116389,-0.00104639,-0.00040439,-0.000077
 47,-0.00038752,0.00007708,0.00024933,0.03174521,0.20963445,-0.00094154
 ,0.00015932,0.00085510,0.00006279,-0.00136248,0.00023367,0.00052875,-0
 .00096004,0.01755997,0.08021209,-0.00423699,-0.11062125,-0.02982298,0.
 08751270,-0.12258297,-0.00084901,-0.00448025,0.01276716,-0.00014186,-0
 .00208565,-0.00011612,-0.00054281,0.00173931,0.00387832,0.00149166,0.0
 0027707,0.00026292,0.00076208,0.00057659,-0.00136412,0.00004984,0.0001
 9873,-0.00002481,0.00023355,-0.00026737,-0.00016831,-0.07604354,-0.112
 27013,0.23531696,-0.00010671,0.00039219,-0.00054740,-0.00406671,0.0003
 0680,-0.00211938,0.00561612,-0.01920818,-0.01931206,-0.04946679,0.0169
 8903,0.01245082,-0.00443218,0.00794542,0.01476467,-0.00143339,-0.00085
 671,0.00116679,0.00010622,0.00022077,0.00010719,0.00007869,0.00082204,
 -0.00002292,0.00045788,0.00074731,0.00074924,-0.00073756,-0.00142334,0
 .00140176,0.00018281,-0.00001873,0.00001177,0.00025037,-0.00004903,-0.
 00000490,-0.01178614,0.01398671,0.01735442,0.06440986,-0.00017413,0.00
 037141,-0.00028667,-0.00099720,0.00076884,-0.00071292,0.00133977,-0.00
 559938,-0.00600265,0.02290790,-0.17918409,-0.14019566,-0.00258353,-0.0
 1283893,-0.01517516,0.00237515,0.00127270,-0.00070576,0.00009069,-0.00
 027393,-0.00031927,0.00004360,-0.00090484,-0.00022218,-0.00072345,0.00
 025156,0.00003385,-0.00017950,-0.00045273,0.00026736,-0.00008523,-0.00
 012135,-0.00002557,0.00004722,-0.00003429,-0.00000411,-0.00105750,0.01
 479266,0.01360575,-0.02045694,0.18110556,0.00012550,0.00002385,-0.0001
 5436,-0.00286035,0.00014950,-0.00136167,0.00260594,-0.01009852,-0.0047
 1491,0.00921609,-0.13680056,-0.18130806,0.00272689,0.01141290,0.007854
 52,-0.00247118,-0.00038113,0.00090685,-0.00000161,0.00019751,0.0002736
 6,-0.00010542,0.00071829,0.00037066,-0.00020331,0.00026173,0.00032001,
 -0.00004819,-0.00072917,0.00008947,0.00005904,0.00000317,0.00000709,-0
 .00002145,-0.00005978,0.00007381,0.01532984,-0.01334591,-0.01771688,-0
 .02534168,0.14896062,0.19578331,0.00018319,-0.00005145,0.00007832,-0.0
 0019211,0.00007014,0.00015988,-0.00009266,0.00347469,-0.00061525,-0.01
 394557,-0.00583173,-0.02116522,-0.16938817,-0.02547666,-0.13649356,0.0
 0233701,0.00199236,0.00158608,0.00096561,-0.00063074,0.00005840,-0.000
 41173,-0.00005301,0.00061689,-0.00085328,-0.00052170,-0.00043624,0.000
 03505,-0.00010343,-0.00005817,0.00010910,0.00000462,-0.00000519,-0.000
 04458,-0.00020409,0.00001520,0.00837668,0.00699483,0.00764657,0.000927
 52,-0.00054685,0.00098991,0.17199394,0.00074641,-0.00220310,-0.0026835
 5,0.00090103,-0.00044021,0.00031142,-0.00057308,-0.00008411,-0.0000151
 7,0.00483398,-0.00364736,0.00877886,-0.03045996,-0.05320209,-0.0365925
 5,-0.01565368,-0.00177623,-0.01781236,-0.00029611,0.00103414,0.0004547
 0,-0.00047046,-0.00211108,-0.00166703,0.00009999,0.00012769,0.00009545
 ,-0.00008785,0.00011730,0.00001406,-0.00120960,-0.00060239,0.00017812,
 -0.00021837,0.00000657,0.00010823,0.02090200,-0.00414545,0.02159343,0.
 00060267,0.00084683,-0.00031250,0.02088302,0.06607949,0.00121976,-0.00
 138736,-0.00126593,0.00030070,-0.00003615,0.00002163,0.00079816,-0.002
 58655,0.00104877,0.00928837,0.00574795,0.00775552,-0.13248875,-0.03806
 476,-0.18915626,-0.00943221,-0.00094354,-0.00465117,0.00046749,-0.0000
 1052,0.00118359,0.00019179,-0.00067552,-0.00055283,0.00073870,0.000289
 22,0.00021113,-0.00001177,0.00005115,-0.00011196,-0.00074649,-0.000234
 03,0.00009357,-0.00009011,-0.00005674,0.00008748,-0.01719968,0.0095755
 9,-0.01827963,-0.00065832,0.00078237,-0.00042350,0.14762237,0.02754890
 ,0.20403960\\0.00001069,-0.00001673,-0.00001255,-0.00001091,0.00000517
 ,0.00001034,0.00000130,0.00000335,0.00000289,0.00003495,-0.00002413,-0
 .00001941,-0.00000232,0.00003168,0.00000683,-0.00002173,0.00002059,0.0
 0000628,0.00000331,0.00000407,0.00000688,-0.00000300,-0.00000108,-0.00
 000330,0.00000229,0.00000070,-0.00000174,0.00000035,-0.00000090,0.0000
 0041,-0.00000026,0.00000017,-0.00000491,-0.00000075,0.00000151,0.00000
 066,-0.00002090,-0.00001020,0.00000412,-0.00000296,0.00000132,0.000000
 64,0.00000993,-0.00001552,0.00000284\\\@
 The archive entry for this job was punched.


 Happiness is a conscious choice, not an automatic response.
 -- Mildred Barthel
 Job cpu time:       0 days  1 hours 37 minutes 58.2 seconds.
 Elapsed time:       0 days  0 hours 12 minutes 14.7 seconds.
 File lengths (MBytes):  RWF=    131 Int=      0 D2E=      0 Chk=      9 Scr=      1
 Normal termination of Gaussian 16 at Sun Apr  3 20:24:32 2022.
