 Entering Gaussian System, Link 0=g16
 Initial command:
 /apps/chpc/chem/gaussian16/B01/g16/l1.exe "/mnt/lustre/users/lmoskaleva/Kgalaletso/4180300.sched01/Gau-80514.inp" -scrdir="/mnt/lustre/users/lmoskaleva/Kgalaletso/4180300.sched01/"
 Entering Link 1 = /apps/chpc/chem/gaussian16/B01/g16/l1.exe PID=     80515.
  
 Copyright (c) 1988-2017, Gaussian, Inc.  All Rights Reserved.
  
 This is part of the Gaussian(R) 16 program.  It is based on
 the Gaussian(R) 09 system (copyright 2009, Gaussian, Inc.),
 the Gaussian(R) 03 system (copyright 2003, Gaussian, Inc.),
 the Gaussian(R) 98 system (copyright 1998, Gaussian, Inc.),
 the Gaussian(R) 94 system (copyright 1995, Gaussian, Inc.),
 the Gaussian 92(TM) system (copyright 1992, Gaussian, Inc.),
 the Gaussian 90(TM) system (copyright 1990, Gaussian, Inc.),
 the Gaussian 88(TM) system (copyright 1988, Gaussian, Inc.),
 the Gaussian 86(TM) system (copyright 1986, Carnegie Mellon
 University), and the Gaussian 82(TM) system (copyright 1983,
 Carnegie Mellon University). Gaussian is a federally registered
 trademark of Gaussian, Inc.
  
 This software contains proprietary and confidential information,
 including trade secrets, belonging to Gaussian, Inc.
  
 This software is provided under written license and may be
 used, copied, transmitted, or stored only in accord with that
 written license.
  
 The following legend is applicable only to US Government
 contracts under FAR:
  
                    RESTRICTED RIGHTS LEGEND
  
 Use, reproduction and disclosure by the US Government is
 subject to restrictions as set forth in subparagraphs (a)
 and (c) of the Commercial Computer Software - Restricted
 Rights clause in FAR 52.227-19.
  
 Gaussian, Inc.
 340 Quinnipiac St., Bldg. 40, Wallingford CT 06492
  
  
 ---------------------------------------------------------------
 Warning -- This program may not be used in any manner that
 competes with the business of Gaussian, Inc. or will provide
 assistance to any competitor of Gaussian, Inc.  The licensee
 of this program is prohibited from giving any competitor of
 Gaussian, Inc. access to this program.  By using this program,
 the user acknowledges that Gaussian, Inc. is engaged in the
 business of creating and licensing software in the field of
 computational chemistry and represents and warrants to the
 licensee that it is not a competitor of Gaussian, Inc. and that
 it will not use this program in any manner prohibited above.
 ---------------------------------------------------------------
  

 Cite this work as:
 Gaussian 16, Revision B.01,
 M. J. Frisch, G. W. Trucks, H. B. Schlegel, G. E. Scuseria, 
 M. A. Robb, J. R. Cheeseman, G. Scalmani, V. Barone, 
 G. A. Petersson, H. Nakatsuji, X. Li, M. Caricato, A. V. Marenich, 
 J. Bloino, B. G. Janesko, R. Gomperts, B. Mennucci, H. P. Hratchian, 
 J. V. Ortiz, A. F. Izmaylov, J. L. Sonnenberg, D. Williams-Young, 
 F. Ding, F. Lipparini, F. Egidi, J. Goings, B. Peng, A. Petrone, 
 T. Henderson, D. Ranasinghe, V. G. Zakrzewski, J. Gao, N. Rega, 
 G. Zheng, W. Liang, M. Hada, M. Ehara, K. Toyota, R. Fukuda, 
 J. Hasegawa, M. Ishida, T. Nakajima, Y. Honda, O. Kitao, H. Nakai, 
 T. Vreven, K. Throssell, J. A. Montgomery, Jr., J. E. Peralta, 
 F. Ogliaro, M. J. Bearpark, J. J. Heyd, E. N. Brothers, K. N. Kudin, 
 V. N. Staroverov, T. A. Keith, R. Kobayashi, J. Normand, 
 K. Raghavachari, A. P. Rendell, J. C. Burant, S. S. Iyengar, 
 J. Tomasi, M. Cossi, J. M. Millam, M. Klene, C. Adamo, R. Cammi, 
 J. W. Ochterski, R. L. Martin, K. Morokuma, O. Farkas, 
 J. B. Foresman, and D. J. Fox, Gaussian, Inc., Wallingford CT, 2016.
 
 ******************************************
 Gaussian 16:  ES64L-G16RevB.01 20-Dec-2017
                12-May-2022 
 ******************************************
 %nprocshared=24
 Will use up to   24 processors via shared memory.
 %lindaworkers=cnode1122.cm.cluster,cnode1173.cm.cluster,cnode1174.cm.cluster
 %mem=20GB
 %chk=cyclohexenylO2-Concerted-OOH-Elim-QST2-b3lyp-c.chk
 SetLPE:    new flags="-opt 'Tsnet.Node.lindarsharg: ssh'  -nodelist 'cnode1122.cm.cluster cnode1173.cm.cluster cnode1174.cm.cluster' -env GAUSS_MDEF=2684354560 -env GAUSS_EXEDIR="/apps/chpc/chem/gaussian16/B01/g16/bsd:/apps/chpc/chem/gaussian16/B01/g16""
 Will use up to    3 processors via Linda.
 ----------------------------------------------------------------------
 # opt=(calcfc,qst2,modredundant) freq ub3lyp cc-pvtz+d int=grid=ultraf
 ine
 ----------------------------------------------------------------------
 1/5=1,10=4,18=120,26=4,27=202,38=1/1,3;
 2/9=110,12=2,17=6,18=5,40=1/2;
 3/5=16,6=1,7=9,11=2,25=1,30=1,71=2,74=-5,75=-5,116=2,140=1/1,2,3;
 4//1;
 5/5=2,38=5/2;
 8/6=4,10=90,11=11/1;
 11/6=1,8=1,9=11,15=111,16=1/1,2,10;
 10/6=1,13=1/2;
 6/7=2,8=2,9=2,10=2,28=1/1;
 7/10=1,18=20,25=1/1,2,3,16;
 1/5=1,10=4,18=20,26=4,27=202/3(2);
 2/9=110/2;
 99//99;
 2/9=110/2;
 3/5=16,6=1,7=9,11=2,25=1,30=1,71=1,74=-5,75=-5,116=2/1,2,3;
 4/5=5,16=3,69=1/1;
 5/5=2,38=5/2;
 7//1,2,3,16;
 1/5=1,18=20,26=4,27=202/3(-5);
 2/9=110/2;
 6/7=2,8=2,9=2,10=2,19=2,28=1/1;
 99/9=1/99;
 ----------------------------------------------
 cyclohexenylO2-Concerted-OOH-Elim-QST2-b3lyp-c
 ----------------------------------------------
 Symbolic Z-matrix:
 Charge =  0 Multiplicity = 2
 C                    -2.14352  -0.29637  -0.24824 
 C                    -1.62624   1.10606  -0.10958 
 C                    -0.37444   1.40615   0.22756 
 C                     0.64545   0.36142   0.55167 
 C                     0.061    -1.03448   0.71994 
 C                    -1.01187  -1.32367  -0.32938 
 H                    -1.40495  -2.33297  -0.20176 
 H                    -0.55889  -1.28258  -1.32259 
 H                    -0.37001  -1.0971    1.72339 
 H                     0.8749   -1.75836   0.67812 
 H                    -0.0552    2.43889   0.28913 
 H                    -2.32947   1.91126  -0.29215 
 H                    -2.78259  -0.36073  -1.13243 
 H                    -2.80031  -0.51748   0.60229 
 O                     1.61965   0.36789  -0.5766 
 H                     1.23977   0.64091   1.42126 
 O                     2.74092  -0.23747  -0.25304 
 
 The following ModRedundant input section has been read:
 B      10      17 B                                                           
 B       4      15 B                                                           
 
 -------------------
 Title Card Required
 -------------------
 Symbolic Z-matrix:
 Charge =  0 Multiplicity = 2
 C                    -2.36136  -0.17672  -0.42471 
 C                    -1.69126   1.17238  -0.45396 
 C                    -0.57256   1.39413   0.24261 
 C                     0.03292   0.32062   1.03175 
 C                    -0.32759  -0.95691   0.84049 
 C                    -1.3524   -1.31239  -0.2083 
 H                    -1.87209  -2.23219   0.06201 
 H                    -0.83334  -1.52753  -1.15211 
 H                     0.12424  -1.75182   1.4215 
 H                     1.6842   -0.59809  -0.22931 
 H                    -0.11011   2.37187   0.25835 
 H                    -2.16592   1.97536  -1.00376 
 H                    -2.92381  -0.3481   -1.34331 
 H                    -3.10148  -0.17708   0.38685 
 O                     3.1845    0.46729  -0.1317 
 H                     0.78631   0.57959   1.76483 
 O                     2.57119  -0.58463  -0.65985 
 
 Add virtual bond connecting atoms H10        and C4         Dist= 4.29D+00.
 Add virtual bond connecting atoms H10        and C5         Dist= 4.36D+00.
 The following ModRedundant input section has been read:
 B      10      17 B                                                           
 B       4      15 B                                                           
 
 Iteration  1 RMS(Cart)=  0.07079978 RMS(Int)=  0.76816566
 Iteration  2 RMS(Cart)=  0.06254252 RMS(Int)=  0.74841841
 Iteration  3 RMS(Cart)=  0.05038039 RMS(Int)=  0.73898979
 Iteration  4 RMS(Cart)=  0.04546507 RMS(Int)=  0.73690453
 Iteration  5 RMS(Cart)=  0.04105551 RMS(Int)=  0.73960368
 Iteration  6 RMS(Cart)=  0.03207725 RMS(Int)=  0.74374809
 Iteration  7 RMS(Cart)=  0.02733053 RMS(Int)=  0.74644154
 Iteration  8 RMS(Cart)=  0.00969856 RMS(Int)=  0.74803926
 Iteration  9 RMS(Cart)=  0.00256956 RMS(Int)=  0.74887727
 Iteration 10 RMS(Cart)=  0.00117774 RMS(Int)=  0.74932335
 Iteration 11 RMS(Cart)=  0.00061492 RMS(Int)=  0.74956778
 Iteration 12 RMS(Cart)=  0.00032951 RMS(Int)=  0.74970220
 Iteration 13 RMS(Cart)=  0.00017822 RMS(Int)=  0.74977602
 Iteration 14 RMS(Cart)=  0.00009683 RMS(Int)=  0.74981650
 Iteration 15 RMS(Cart)=  0.00005273 RMS(Int)=  0.74983868
 Iteration 16 RMS(Cart)=  0.00002876 RMS(Int)=  0.74985082
 Iteration 17 RMS(Cart)=  0.00001569 RMS(Int)=  0.74985746
 Iteration 18 RMS(Cart)=  0.00000857 RMS(Int)=  0.74986109
 Iteration 19 RMS(Cart)=  0.00000468 RMS(Int)=  0.74986308
 Iteration 20 RMS(Cart)=  0.00000256 RMS(Int)=  0.74986416
 Iteration 21 RMS(Cart)=  0.00000140 RMS(Int)=  0.74986476
 Iteration 22 RMS(Cart)=  0.00000076 RMS(Int)=  0.74986508
 Iteration  1 RMS(Cart)=  0.00000042 RMS(Int)=  0.74986526
 Iteration  1 RMS(Cart)=  0.00000023 RMS(Int)=  0.74986536
 Iteration  1 RMS(Cart)=  0.00000012 RMS(Int)=  0.74986541
 Iteration  1 RMS(Cart)=  0.00000007 RMS(Int)=  0.74986544
 Iteration  1 RMS(Cart)=  0.00000004 RMS(Int)=  0.74986545
 Iteration  1 RMS(Cart)=  0.00000002 RMS(Int)=  0.74986546
 Iteration  1 RMS(Cart)=  0.00000001 RMS(Int)=  0.74986547
 Iteration  1 RMS(Cart)=  0.00000001 RMS(Int)=  0.74986547
 Iteration  1 RMS(Cart)=  0.00000000 RMS(Int)=  0.74986547
   Var     Old X     New X   DQ Goal   DQ Act.  Rel. Err.   Overall
     1    2.8369    2.8593    0.0051    0.0225
     2    2.8923    2.8932    0.0037    0.0009
     3    2.0652    2.0631   -0.0021   -0.0021
     4    2.0733    2.0744    0.0012    0.0012
     5    2.5146    2.5424    0.0054    0.0278
     6    2.0495    2.0478   -0.0017   -0.0017
     7    2.8262    2.7949   -0.0303   -0.0313    1.0338
     8    2.0460    2.0505   -0.0010    0.0044
     9    2.8774    2.6886   -0.1715   -0.1887    1.1005
    10    4.0363    4.1167    0.1284    0.0804    0.6266
    11    2.8170    4.6058    1.7688    1.7888    1.0113
    12    2.0593    2.0526   -0.0067   -0.0067
    13    2.8881    2.8455   -0.0184   -0.0426    2.3106
    14    2.0672    2.0572   -0.0100   -0.0100
    15    2.0599    3.1773    1.1495    1.1174    0.9721
    16    2.0610    2.0609   -0.0001   -0.0001
    17    2.0643    2.0700    0.0057    0.0057
    18    4.8776    3.3717   -1.5071   -1.5059    0.9992
    19    2.4844    2.5783    0.0119    0.0939    7.9015
    20    1.9575    1.9633   -0.0022    0.0058
    21    1.9084    1.9297    0.0120    0.0213    1.7773
    22    1.8996    1.8806   -0.0045   -0.0190
    23    1.9283    1.9185   -0.0045   -0.0098
    24    1.9267    1.9223   -0.0052   -0.0044
    25    1.8393    1.8454    0.0049    0.0061
    26    2.1630    2.1450   -0.0281   -0.0180    0.6417
    27    2.0427    2.0372    0.0138   -0.0056   -0.4044
    28    2.0774    2.0928    0.0135    0.0154    1.1449
    29    2.1399    2.1269   -0.0195   -0.0130    0.6692
    30    2.1024    2.1132    0.0050    0.0108
    31    2.0408    2.0294    0.0143   -0.0114   -0.7960
    32    1.9852    2.0096    0.0608    0.0245    0.4027
    33    2.4645    2.5123   -0.2955    0.0478   -0.1619
    34    1.8531    1.9386   -0.0562    0.0855   -1.5218
    35    1.9452    2.0118    0.0618    0.0666    1.0783
    36    1.9161    1.9108   -0.0493   -0.0053    0.1080
    37    1.9351    2.0550    0.0863    0.1200    1.3898
    38    1.5497    1.0560   -0.5029   -0.4937    0.9819
    39    1.7201    1.7300   -0.0912    0.0099   -0.1090
    40    1.8198    1.4561   -0.3458   -0.3637    1.0516
    41    1.9466    2.1178    0.0774    0.1712    2.2112
    42    1.8808    1.9944    0.1128    0.1136    1.0072
    43    1.8944    1.5488   -0.3228   -0.3456    1.0707
    44    1.9203    2.0160    0.0774    0.0957    1.2363
    45    1.9521    1.9353   -0.0348   -0.0168    0.4838
    46    1.8665    1.7437   -0.1483   -0.1228    0.8281
    47    1.9344    1.9067    0.0079   -0.0277
    48    1.9267    1.9330   -0.0014    0.0063
    49    1.9066    1.9700    0.0026    0.0634
    50    1.9260    1.9421    0.0012    0.0161
    51    1.9029    1.8886   -0.0019   -0.0143
    52    1.8657    1.8223   -0.0092   -0.0434
    53    1.0140    1.7285    0.8278    0.7145    0.8631
    54    1.7426    2.4399    0.7724    0.6973    0.9027
    55    3.3221    3.0734   -0.1010   -0.2487    2.4619
    56    1.9488    1.7749   -0.3572   -0.1739    0.4870
    57    1.3114    1.6556    0.2574    0.3442    1.3369
    58   -0.2665   -0.4461   -0.1275   -0.1796    1.4089
    59    2.8824    2.8329   -0.1001   -0.0496    0.4953
    60   -2.4118   -2.5982   -0.1288   -0.1865    1.4481
    61    0.7371    0.6807   -0.1014   -0.0565    0.5568
    62    1.8706    1.6761   -0.1386   -0.1945    1.4035
    63   -1.2637   -1.3282   -0.1112   -0.0645    0.5801
    64    0.7786    0.7403   -0.0203   -0.0383    1.8850
    65    2.9180    2.8854   -0.0143   -0.0326    2.2830
    66   -1.3184   -1.3617   -0.0247   -0.0433    1.7508
    67    2.9126    2.8987   -0.0097   -0.0140
    68   -1.2312   -1.2394   -0.0037   -0.0082
    69    0.8156    0.7967   -0.0141   -0.0189    1.3381
    70   -1.3430   -1.3580   -0.0095   -0.0149
    71    0.7964    0.7872   -0.0034   -0.0092
    72    2.8431    2.8233   -0.0138   -0.0199    1.4362
    73   -0.0374    0.0836    0.0268    0.1209    4.5144
    74    3.1168   -2.8744   -3.1067   -5.9912    1.9285
    75    3.0968    3.0836   -0.0012   -0.0132
    76   -0.0322    0.1257    0.0069    0.1579
    77   -0.1929   -0.0687    0.2295    0.1242    0.5412
    78    0.0135    0.9208    0.8403    0.9073    1.0797
    79    1.9161    2.1155    0.1608    0.1994    1.2403
    80   -2.3960   -2.5506   -0.2459   -0.1546    0.6288
    81    2.9365    2.8976   -2.9200   -0.0389    0.0133
    82   -3.1403   -2.3962    0.8324    0.7441    0.8940
    83   -1.2377   -1.2014    0.1528    0.0362    0.2372
    84    0.7334    0.4157   -0.2539   -0.3178    1.2517
    85    0.7147    0.4636   -0.3497   -0.2511    0.7179
    86   -1.3947   -2.0822    2.2656   -0.6875   -0.3035
    87    2.8731    2.4504   -0.5535   -0.4227    0.7636
    88   -1.3586   -1.7349   -0.2785   -0.3763    1.3510
    89    2.8152    2.0024   -0.8048   -0.8128    1.0099
    90    0.7997    0.2518   -0.4823   -0.5479    1.1360
    91    2.9231    2.9285   -3.0184    0.0054   -0.0018
    92    0.8137    0.3827   -0.4031   -0.4311    1.0693
    93   -1.2017   -1.3679   -0.0806   -0.1662    2.0620
    94    2.4661    1.6953   -0.6104   -0.7708    1.2629
    95    0.4634    0.1997   -0.3071   -0.2638    0.8588
    96   -1.3560   -1.1452    0.2591    0.2108    0.8135
    97    2.8456   -2.7260   -2.3339   -5.5716    2.3873
    98   -1.2846   -0.4874    0.8244    0.7972    0.9670
    99   -0.9301   -0.2647    0.4920    0.6655    1.3527
   100    0.7893    1.5573    0.8143    0.7680    0.9431
   101   -1.0184   -0.8073    0.2496    0.2111    0.8459
   102    3.1250   -2.9470   -2.8966   -6.0720    2.0963
   103    1.0809    1.3438    0.2565    0.2629    1.0249
   104    1.0678    1.7318    0.7873    0.6639    0.8433
   105   -1.0720   -0.4080    0.7827    0.6640    0.8484
   106   -3.1161   -2.4003    0.7943    0.7158    0.9012
   107    3.1395   -2.5843   -2.5159   -5.7238    2.2750
   108    0.9997    1.5592    0.6211    0.5594    0.9007
   109   -1.0444   -0.4332    0.6326    0.6112    0.9660
   110    0.9600    1.6341    0.7318    0.6741    0.9211
   111   -2.0827   -2.2708    0.1561   -0.1881   -1.2048
   112   -0.5519   -0.3147    0.3785    0.2372    0.6268
   113    0.7563    0.2827   -0.4113   -0.4735    1.1513

 GradGradGradGradGradGradGradGradGradGradGradGradGradGradGradGradGradGrad
 Berny optimization.
 Initialization pass.
                           ----------------------------
                           !    Initial Parameters    !
                           ! (Angstroms and Degrees)  !
 --------------------------                            --------------------------
 ! Name  Definition         TS        Reactant Product Derivative Info.         !
 --------------------------------------------------------------------------------
 ! R1    R(1,2)             1.5131    1.5012    1.5066 calculate D2E/DX2 analyti!
 ! R2    R(1,6)             1.531     1.5305    1.5345 calculate D2E/DX2 analyti!
 ! R3    R(1,13)            1.0918    1.0929    1.0907 calculate D2E/DX2 analyti!
 ! R4    R(1,14)            1.0977    1.0971    1.0984 calculate D2E/DX2 analyti!
 ! R5    R(2,3)             1.3454    1.3307    1.3364 calculate D2E/DX2 analyti!
 ! R6    R(2,12)            1.0836    1.0845    1.0828 calculate D2E/DX2 analyti!
 ! R7    R(3,4)             1.479     1.4956    1.4635 calculate D2E/DX2 analyti!
 ! R8    R(3,11)            1.0851    1.0827    1.0817 calculate D2E/DX2 analyti!
 ! R9    R(4,5)             1.4228    1.5226    1.3411 calculate D2E/DX2 analyti!
 ! R10   R(4,10)            2.1785    2.1359    2.2718 calculate D2E/DX2 analyti!
 ! R11   R(4,15)            2.4373    1.4907    3.3627 calculate D2E/DX2 analyti!
 ! R12   R(4,16)            1.0862    1.0897    1.0826 calculate D2E/DX2 analyti!
 ! R13   R(5,6)             1.5058    1.5283    1.5088 calculate D2E/DX2 analyti!
 ! R14   R(5,9)             1.0886    1.0939    1.0833 calculate D2E/DX2 analyti!
 ! R15   R(5,10)            1.6813    1.09      2.3066 calculate D2E/DX2 analyti!
 ! R16   R(6,7)             1.0906    1.0906    1.0905 calculate D2E/DX2 analyti!
 ! R17   R(6,8)             1.0954    1.0924    1.0984 calculate D2E/DX2 analyti!
 ! R18   R(10,17)           1.7842    2.5811    0.9861 calculate D2E/DX2 analyti!
 ! R19   R(15,17)           1.3644    1.3147    1.3273 calculate D2E/DX2 analyti!
 ! A1    A(2,1,6)         112.4899  112.1579  111.9011 calculate D2E/DX2 analyti!
 ! A2    A(2,1,13)        110.5622  109.3445  110.7148 calculate D2E/DX2 analyti!
 ! A3    A(2,1,14)        107.7526  108.8412  108.3208 calculate D2E/DX2 analyti!
 ! A4    A(6,1,13)        109.9224  110.4836  109.9729 calculate D2E/DX2 analyti!
 ! A5    A(6,1,14)        110.1392  110.3928  109.7926 calculate D2E/DX2 analyti!
 ! A6    A(13,1,14)       105.7335  105.384   105.9486 calculate D2E/DX2 analyti!
 ! A7    A(1,2,3)         122.9011  123.9331  120.7168 calculate D2E/DX2 analyti!
 ! A8    A(1,2,12)        116.7214  117.0401  118.6164 calculate D2E/DX2 analyti!
 ! A9    A(3,2,12)        119.9096  119.0254  120.57   calculate D2E/DX2 analyti!
 ! A10   A(2,3,4)         121.8617  122.6086  120.3764 calculate D2E/DX2 analyti!
 ! A11   A(2,3,11)        121.0766  120.4562  121.028  calculate D2E/DX2 analyti!
 ! A12   A(4,3,11)        116.2772  116.9315  118.5755 calculate D2E/DX2 analyti!
 ! A13   A(3,4,5)         115.1433  113.7409  120.7062 calculate D2E/DX2 analyti!
 ! A14   A(3,4,10)        143.9444  141.2029  107.3399 calculate D2E/DX2 analyti!
 ! A15   A(3,4,15)        111.075   106.1774   99.7408 calculate D2E/DX2 analyti!
 ! A16   A(3,4,16)        115.2653  111.4502  118.5265 calculate D2E/DX2 analyti!
 ! A17   A(5,4,15)        109.4788  109.7841  104.1308 calculate D2E/DX2 analyti!
 ! A18   A(5,4,16)        117.7456  110.8721  120.7634 calculate D2E/DX2 analyti!
 ! A19   A(10,4,15)        60.502    88.7917   31.1682 calculate D2E/DX2 analyti!
 ! A20   A(10,4,16)        99.1221   98.5522   88.0969 calculate D2E/DX2 analyti!
 ! A21   A(15,4,16)        83.4292  104.2673   64.6363 calculate D2E/DX2 analyti!
 ! A22   A(4,5,6)         121.3434  111.5338  120.4065 calculate D2E/DX2 analyti!
 ! A23   A(4,5,9)         114.2727  107.7641  120.6884 calculate D2E/DX2 analyti!
 ! A24   A(4,5,10)         88.7378  108.5404   71.5494 calculate D2E/DX2 analyti!
 ! A25   A(6,5,9)         115.507   110.0226  118.895  calculate D2E/DX2 analyti!
 ! A26   A(6,5,10)        110.8833  111.8486  107.858  calculate D2E/DX2 analyti!
 ! A27   A(9,5,10)         99.9051  106.9399   89.9499 calculate D2E/DX2 analyti!
 ! A28   A(1,6,5)         109.2436  110.8324  111.7325 calculate D2E/DX2 analyti!
 ! A29   A(1,6,7)         110.7555  110.3929  110.2342 calculate D2E/DX2 analyti!
 ! A30   A(1,6,8)         112.8735  109.2414  109.5424 calculate D2E/DX2 analyti!
 ! A31   A(5,6,7)         111.2741  110.3516  110.4941 calculate D2E/DX2 analyti!
 ! A32   A(5,6,8)         108.2113  109.0283  108.8112 calculate D2E/DX2 analyti!
 ! A33   A(7,6,8)         104.4084  106.8967  105.8416 calculate D2E/DX2 analyti!
 ! A34   A(4,10,17)        99.0343   58.097   152.9601 calculate D2E/DX2 analyti!
 ! A35   L(5,10,17,11,-1)  139.7978   99.8449  188.361 calculate D2E/DX2 analyti!
 ! A36   L(5,10,17,11,-2)  176.094  190.3435  178.7676 calculate D2E/DX2 analyti!
 ! A37   A(4,15,17)       101.6948  111.6607   70.7333 calculate D2E/DX2 analyti!
 ! A38   A(10,17,15)       94.8578   75.1386  104.6395 calculate D2E/DX2 analyti!
 ! D1    D(6,1,2,3)       -25.557   -15.2675  -29.874  calculate D2E/DX2 analyti!
 ! D2    D(6,1,2,12)      162.3117  165.1511  153.6847 calculate D2E/DX2 analyti!
 ! D3    D(13,1,2,3)     -148.8686 -138.1842 -152.9409 calculate D2E/DX2 analyti!
 ! D4    D(13,1,2,12)      39.0001   42.2344   30.6177 calculate D2E/DX2 analyti!
 ! D5    D(14,1,2,3)       96.0319  107.1785   91.2948 calculate D2E/DX2 analyti!
 ! D6    D(14,1,2,12)     -76.0994  -72.4029  -85.1466 calculate D2E/DX2 analyti!
 ! D7    D(2,1,6,5)        42.4144   44.6111   42.2803 calculate D2E/DX2 analyti!
 ! D8    D(2,1,6,7)       165.321   167.1889  165.5525 calculate D2E/DX2 analyti!
 ! D9    D(2,1,6,8)       -78.0192  -75.5409  -78.372  calculate D2E/DX2 analyti!
 ! D10   D(13,1,6,5)      166.0826  166.8824  165.7664 calculate D2E/DX2 analyti!
 ! D11   D(13,1,6,7)      -71.0108  -70.5398  -70.9613 calculate D2E/DX2 analyti!
 ! D12   D(13,1,6,8)       45.649    46.7304   45.1141 calculate D2E/DX2 analyti!
 ! D13   D(14,1,6,5)      -77.8057  -76.95    -78.0335 calculate D2E/DX2 analyti!
 ! D14   D(14,1,6,7)       45.1009   45.6279   45.2387 calculate D2E/DX2 analyti!
 ! D15   D(14,1,6,8)      161.7607  162.898   161.3142 calculate D2E/DX2 analyti!
 ! D16   D(1,2,3,4)         4.7873   -2.1424    0.9276 calculate D2E/DX2 analyti!
 ! D17   D(1,2,3,11)     -164.689   178.5817 -177.4205 calculate D2E/DX2 analyti!
 ! D18   D(12,2,3,4)      176.6774  177.4312  177.2993 calculate D2E/DX2 analyti!
 ! D19   D(12,2,3,11)       7.2011   -1.8447   -1.0489 calculate D2E/DX2 analyti!
 ! D20   D(2,3,4,5)        -3.9344  -11.0511   15.2496 calculate D2E/DX2 analyti!
 ! D21   D(2,3,4,10)       52.7552    0.772    97.067  calculate D2E/DX2 analyti!
 ! D22   D(2,3,4,15)      121.2101  109.7864  128.2074 calculate D2E/DX2 analyti!
 ! D23   D(2,3,4,16)     -146.1378 -137.2787 -165.4567 calculate D2E/DX2 analyti!
 ! D24   D(11,3,4,5)      166.0186  168.2488 -166.3622 calculate D2E/DX2 analyti!
 ! D25   D(11,3,4,10)    -137.2919 -179.9281  -84.5448 calculate D2E/DX2 analyti!
 ! D26   D(11,3,4,15)     -68.8369  -70.9137  -53.4044 calculate D2E/DX2 analyti!
 ! D27   D(11,3,4,16)      23.8152   42.0212   12.9314 calculate D2E/DX2 analyti!
 ! D28   D(3,4,5,6)        26.565    40.9501    0.8744 calculate D2E/DX2 analyti!
 ! D29   D(3,4,5,9)      -119.3025  -79.9089  179.7049 calculate D2E/DX2 analyti!
 ! D30   D(3,4,5,10)      140.3971  164.6139  101.1881 calculate D2E/DX2 analyti!
 ! D31   D(15,4,5,6)      -99.4046  -77.8444 -109.7621 calculate D2E/DX2 analyti!
 ! D32   D(15,4,5,9)      114.728   161.2966   69.0684 calculate D2E/DX2 analyti!
 ! D33   D(15,4,5,10)      14.4275   45.8195   -9.4484 calculate D2E/DX2 analyti!
 ! D34   D(16,4,5,6)      167.7919  167.4815 -178.4034 calculate D2E/DX2 analyti!
 ! D35   D(16,4,5,9)       21.9244   46.6225    0.4271 calculate D2E/DX2 analyti!
 ! D36   D(16,4,5,10)     -78.376   -68.8547  -78.0897 calculate D2E/DX2 analyti!
 ! D37   D(3,4,10,17)      97.1316  141.2955   71.3524 calculate D2E/DX2 analyti!
 ! D38   D(15,4,10,17)     11.44     26.5537   -8.6429 calculate D2E/DX2 analyti!
 ! D39   D(16,4,10,17)    -65.6162  -77.6932  -48.0016 calculate D2E/DX2 analyti!
 ! D40   D(3,4,15,17)    -156.1894  163.0421 -104.4044 calculate D2E/DX2 analyti!
 ! D41   D(5,4,15,17)     -27.9251  -73.6014   20.8699 calculate D2E/DX2 analyti!
 ! D42   D(10,4,15,17)    -15.1642  -53.2931    3.082  calculate D2E/DX2 analyti!
 ! D43   D(16,4,15,17)     89.2256   45.2246  138.5396 calculate D2E/DX2 analyti!
 ! D44   D(4,5,6,1)       -46.2542  -58.3492  -29.7514 calculate D2E/DX2 analyti!
 ! D45   D(4,5,6,7)      -168.8511  179.049  -152.8763 calculate D2E/DX2 analyti!
 ! D46   D(4,5,6,8)        76.9937   61.9298   91.3264 calculate D2E/DX2 analyti!
 ! D47   D(9,5,6,1)        99.2222   61.1813  151.3973 calculate D2E/DX2 analyti!
 ! D48   D(9,5,6,7)       -23.3747  -61.4205   28.2724 calculate D2E/DX2 analyti!
 ! D49   D(9,5,6,8)      -137.5299 -178.5397  -87.5249 calculate D2E/DX2 analyti!
 ! D50   D(10,5,6,1)     -148.0699  179.8815 -108.4212 calculate D2E/DX2 analyti!
 ! D51   D(10,5,6,7)       89.3332   57.2797  128.454  calculate D2E/DX2 analyti!
 ! D52   D(10,5,6,8)      -24.8221  -59.8395   12.6566 calculate D2E/DX2 analyti!
 ! D53   D(6,5,17,15)      93.6247   55.004   138.8628 calculate D2E/DX2 analyti!
 ! D54   D(9,5,17,15)    -130.1057 -119.3287 -101.4385 calculate D2E/DX2 analyti!
 ! D55   D(4,10,17,15)    -18.0286  -31.6213   11.751  calculate D2E/DX2 analyti!
 ! D56   D(4,15,17,10)     16.1999   43.3321   -3.7993 calculate D2E/DX2 analyti!
 --------------------------------------------------------------------------------
 Trust Radius=3.00D-01 FncErr=1.00D-07 GrdErr=1.00D-06 EigMax=2.50D+02 EigMin=1.00D-04
 Number of steps in this run=    102 maximum allowed number of steps=    102.
 Search for a saddle point of order  1.
 GradGradGradGradGradGradGradGradGradGradGradGradGradGradGradGradGradGrad

                          Input orientation:                          
 ---------------------------------------------------------------------
 Center     Atomic      Atomic             Coordinates (Angstroms)
 Number     Number       Type             X           Y           Z
 ---------------------------------------------------------------------
      1          6           0       -2.272162   -0.269340   -0.263498
      2          6           0       -1.729363    1.142975   -0.250766
      3          6           0       -0.520478    1.456805    0.249446
      4          6           0        0.416921    0.420527    0.733983
      5          6           0       -0.088182   -0.909375    0.712078
      6          6           0       -1.161883   -1.323537   -0.259033
      7          1           0       -1.563205   -2.306442   -0.009677
      8          1           0       -0.699770   -1.459380   -1.242854
      9          1           0       -0.129131   -1.388661    1.688646
     10          1           0        1.422823   -1.435124    0.195004
     11          1           0       -0.256153    2.485424    0.471735
     12          1           0       -2.412586    1.930260   -0.546862
     13          1           0       -2.925842   -0.421158   -1.124657
     14          1           0       -2.911605   -0.390142    0.620558
     15          8           0        2.526535    0.508811   -0.483398
     16          1           0        1.035235    0.712763    1.577821
     17          8           0        2.993022   -0.763012   -0.320933
 ---------------------------------------------------------------------
                    Distance matrix (angstroms):
                    1          2          3          4          5
     1  C    0.000000
     2  C    1.513085   0.000000
     3  C    2.512188   1.345402   0.000000
     4  C    2.949924   2.469453   1.478974   0.000000
     5  C    2.476119   2.798694   2.449432   1.422761   0.000000
     6  C    1.531036   2.530965   2.898320   2.553520   1.505796
     7  H    2.171827   3.461822   3.913625   3.451129   2.156020
     8  H    2.201760   2.969267   3.280738   2.947700   2.120921
     9  H    3.107463   3.568086   3.212651   2.117242   1.088612
    10  H    3.901563   4.096533   3.484629   2.178481   1.681343
    11  H    3.491931   2.120029   1.085051   2.187602   3.407439
    12  H    2.222218   1.083644   2.106737   3.453399   3.879602
    13  H    1.091761   2.154474   3.346742   3.916254   3.415299
    14  H    1.097741   2.123051   3.044080   3.427701   2.872228
    15  O    4.866350   4.309170   3.274147   2.437269   3.205801
    16  H    3.910736   3.342426   2.176791   1.086175   2.154741
    17  O    5.288589   5.092998   4.194950   3.024882   3.253053
                    6          7          8          9         10
     6  C    0.000000
     7  H    1.090569   0.000000
     8  H    1.095402   1.727357   0.000000
     9  H    2.205508   2.404826   2.987360   0.000000
    10  H    2.626653   3.117284   2.563870   2.154458   0.000000
    11  H    3.982782   4.990203   4.324129   4.062701   4.273902
    12  H    3.497757   4.354270   3.861062   4.607266   5.156214
    13  H    2.162209   2.579585   2.459120   4.083176   4.656235
    14  H    2.169431   2.426435   3.083470   3.143248   4.478878
    15  O    4.124593   4.987588   3.854814   3.920553   2.336084
    16  H    3.513955   4.288082   3.960385   2.404998   2.583762
    17  O    4.193001   4.820609   3.869313   3.765327   1.784222
                   11         12         13         14         15
    11  H    0.000000
    12  H    2.448663   0.000000
    13  H    4.257221   2.475166   0.000000
    14  H    3.916944   2.645024   1.745548   0.000000
    15  O    3.544380   5.139986   5.568166   5.621405   0.000000
    16  H    2.456306   4.228953   4.927403   4.208360   2.552292
    17  O    4.662381   6.043621   5.982958   5.990831   1.364382
                   16         17
    16  H    0.000000
    17  O    3.100985   0.000000
 Stoichiometry    C6H9O2(2)
 Framework group  C1[X(C6H9O2)]
 Deg. of freedom    45
 Full point group                 C1      NOp   1
 Largest Abelian subgroup         C1      NOp   1
 Largest concise Abelian subgroup C1      NOp   1
                         Standard orientation:                         
 ---------------------------------------------------------------------
 Center     Atomic      Atomic             Coordinates (Angstroms)
 Number     Number       Type             X           Y           Z
 ---------------------------------------------------------------------
      1          6           0       -2.304483   -0.407904   -0.307351
      2          6           0       -1.853677    1.036307   -0.328735
      3          6           0       -0.677117    1.442274    0.182149
      4          6           0        0.315411    0.483534    0.714190
      5          6           0       -0.102891   -0.876306    0.724520
      6          6           0       -1.129193   -1.387524   -0.251586
      7          1           0       -1.471344   -2.386522    0.020952
      8          1           0       -0.640718   -1.522212   -1.222749
      9          1           0       -0.131574   -1.328177    1.714502
     10          1           0        1.448258   -1.318316    0.249675
     11          1           0       -0.483546    2.491947    0.377224
     12          1           0       -2.580217    1.768683   -0.660472
     13          1           0       -2.930610   -0.627039   -1.174464
     14          1           0       -2.951543   -0.543622    0.568964
     15          8           0        2.437769    0.672014   -0.469175
     16          1           0        0.897579    0.839933    1.559079
     17          8           0        2.981658   -0.561634   -0.259804
 ---------------------------------------------------------------------
 Rotational constants (GHZ):           3.6257994           1.1934709           1.0042002
 Standard basis: CC-pVTZ+d (5D, 7F)
 There are   415 symmetry adapted cartesian basis functions of A   symmetry.
 There are   366 symmetry adapted basis functions of A   symmetry.
   366 basis functions,   569 primitive gaussians,   415 cartesian basis functions
    31 alpha electrons       30 beta electrons
       nuclear repulsion energy       352.2407473618 Hartrees.
 NAtoms=   17 NActive=   17 NUniq=   17 SFac= 1.00D+00 NAtFMM=   60 NAOKFM=F Big=F
 Integral buffers will be    131072 words long.
 Raffenetti 2 integral format.
 Two-electron integral symmetry is turned on.
 One-electron integrals computed using PRISM.
 NBasis=   366 RedAO= T EigKep=  1.45D-04  NBF=   366
 NBsUse=   366 1.00D-06 EigRej= -1.00D+00 NBFU=   366
 ExpMin= 1.03D-01 ExpMax= 1.53D+04 ExpMxC= 5.22D+02 IAcc=3 IRadAn=         5 AccDes= 0.00D+00
 Harris functional with IExCor=  402 and IRadAn=       5 diagonalized for initial guess.
 HarFok:  IExCor=  402 AccDes= 0.00D+00 IRadAn=         5 IDoV= 1 UseB2=F ITyADJ=14
 ICtDFT=  3500011 ScaDFX=  1.000000  1.000000  1.000000  1.000000
 FoFCou: FMM=F IPFlag=           0 FMFlag=      100000 FMFlg1=           0
         NFxFlg=           0 DoJE=T BraDBF=F KetDBF=T FulRan=T
         wScrn=  0.000000 ICntrl=       500 IOpCl=  0 I1Cent=   200000004 NGrid=           0
         NMat0=    1 NMatS0=      1 NMatT0=    0 NMatD0=    1 NMtDS0=    0 NMtDT0=    0
 Petite list used in FoFCou.
 Initial guess <Sx>= 0.0000 <Sy>= 0.0000 <Sz>= 0.5000 <S**2>= 0.7500 S= 0.5000
 Requested convergence on RMS density matrix=1.00D-08 within 128 cycles.
 Requested convergence on MAX density matrix=1.00D-06.
 Requested convergence on             energy=1.00D-06.
 No special actions if energy rises.
 Integral accuracy reduced to 1.0D-05 until final iterations.
 EnCoef did     5 forward-backward iterations
 Initial convergence to 1.0D-05 achieved.  Increase integral accuracy.
 SCF Done:  E(UB3LYP) =  -384.388541600     A.U. after   27 cycles
            NFock= 27  Conv=0.10D-07     -V/T= 2.0080
 <Sx>= 0.0000 <Sy>= 0.0000 <Sz>= 0.5000 <S**2>= 0.8938 S= 0.5695
 <L.S>= 0.000000000000E+00
 Annihilation of the first spin contaminant:
 S**2 before annihilation     0.8938,   after     0.7536
 DoSCS=F DFT=T ScalE2(SS,OS)=  1.000000  1.000000
 Range of M.O.s used for correlation:     1   366
 NBasis=   366 NAE=    31 NBE=    30 NFC=     0 NFV=     0
 NROrb=    366 NOA=    31 NOB=    30 NVA=   335 NVB=   336

 **** Warning!!: The largest alpha MO coefficient is  0.13941543D+02


 **** Warning!!: The largest beta MO coefficient is  0.15453238D+02

 Symmetrizing basis deriv contribution to polar:
 IMax=3 JMax=2 DiffMx= 0.00D+00
 G2DrvN: will do    18 centers at a time, making    1 passes.
 Calling FoFCou, ICntrl=  3107 FMM=F I1Cent=   0 AccDes= 0.00D+00.
 End of G2Drv F.D. properties file   721 does not exist.
 End of G2Drv F.D. properties file   722 does not exist.
 End of G2Drv F.D. properties file   788 does not exist.
          IDoAtm=11111111111111111
          Differentiating once with respect to nuclear coordinates.
 CalDSu exits because no D1Ps are significant.
          There are    54 degrees of freedom in the 1st order CPHF.  IDoFFX=6 NUNeed=     0.
     48 vectors produced by pass  0 Test12= 3.79D-14 1.85D-09 XBig12= 1.79D-01 1.33D-01.
 AX will form    48 AO Fock derivatives at one time.
     48 vectors produced by pass  1 Test12= 3.79D-14 1.85D-09 XBig12= 3.46D-02 4.24D-02.
     48 vectors produced by pass  2 Test12= 3.79D-14 1.85D-09 XBig12= 1.11D-03 6.86D-03.
     48 vectors produced by pass  3 Test12= 3.79D-14 1.85D-09 XBig12= 1.51D-05 5.88D-04.
     48 vectors produced by pass  4 Test12= 3.79D-14 1.85D-09 XBig12= 1.06D-07 4.14D-05.
     48 vectors produced by pass  5 Test12= 3.79D-14 1.85D-09 XBig12= 6.92D-10 3.30D-06.
     41 vectors produced by pass  6 Test12= 3.79D-14 1.85D-09 XBig12= 4.41D-12 1.91D-07.
     14 vectors produced by pass  7 Test12= 3.79D-14 1.85D-09 XBig12= 1.75D-14 9.39D-09.
 InvSVY:  IOpt=1 It=  1 EMax= 7.22D-16
 Solved reduced A of dimension   343 with    54 vectors.
 End of Minotr F.D. properties file   721 does not exist.
 End of Minotr F.D. properties file   722 does not exist.
 End of Minotr F.D. properties file   788 does not exist.

 **********************************************************************

            Population analysis using the SCF Density.

 **********************************************************************

 Orbital symmetries:
 Alpha Orbitals:
       Occupied  (A) (A) (A) (A) (A) (A) (A) (A) (A) (A) (A) (A)
                 (A) (A) (A) (A) (A) (A) (A) (A) (A) (A) (A) (A)
                 (A) (A) (A) (A) (A) (A) (A)
       Virtual   (A) (A) (A) (A) (A) (A) (A) (A) (A) (A) (A) (A)
                 (A) (A) (A) (A) (A) (A) (A) (A) (A) (A) (A) (A)
                 (A) (A) (A) (A) (A) (A) (A) (A) (A) (A) (A) (A)
                 (A) (A) (A) (A) (A) (A) (A) (A) (A) (A) (A) (A)
                 (A) (A) (A) (A) (A) (A) (A) (A) (A) (A) (A) (A)
                 (A) (A) (A) (A) (A) (A) (A) (A) (A) (A) (A) (A)
                 (A) (A) (A) (A) (A) (A) (A) (A) (A) (A) (A) (A)
                 (A) (A) (A) (A) (A) (A) (A) (A) (A) (A) (A) (A)
                 (A) (A) (A) (A) (A) (A) (A) (A) (A) (A) (A) (A)
                 (A) (A) (A) (A) (A) (A) (A) (A) (A) (A) (A) (A)
                 (A) (A) (A) (A) (A) (A) (A) (A) (A) (A) (A) (A)
                 (A) (A) (A) (A) (A) (A) (A) (A) (A) (A) (A) (A)
                 (A) (A) (A) (A) (A) (A) (A) (A) (A) (A) (A) (A)
                 (A) (A) (A) (A) (A) (A) (A) (A) (A) (A) (A) (A)
                 (A) (A) (A) (A) (A) (A) (A) (A) (A) (A) (A) (A)
                 (A) (A) (A) (A) (A) (A) (A) (A) (A) (A) (A) (A)
                 (A) (A) (A) (A) (A) (A) (A) (A) (A) (A) (A) (A)
                 (A) (A) (A) (A) (A) (A) (A) (A) (A) (A) (A) (A)
                 (A) (A) (A) (A) (A) (A) (A) (A) (A) (A) (A) (A)
                 (A) (A) (A) (A) (A) (A) (A) (A) (A) (A) (A) (A)
                 (A) (A) (A) (A) (A) (A) (A) (A) (A) (A) (A) (A)
                 (A) (A) (A) (A) (A) (A) (A) (A) (A) (A) (A) (A)
                 (A) (A) (A) (A) (A) (A) (A) (A) (A) (A) (A) (A)
                 (A) (A) (A) (A) (A) (A) (A) (A) (A) (A) (A) (A)
                 (A) (A) (A) (A) (A) (A) (A) (A) (A) (A) (A) (A)
                 (A) (A) (A) (A) (A) (A) (A) (A) (A) (A) (A) (A)
                 (A) (A) (A) (A) (A) (A) (A) (A) (A) (A) (A) (A)
                 (A) (A) (A) (A) (A) (A) (A) (A) (A) (A) (A)
 Beta  Orbitals:
       Occupied  (A) (A) (A) (A) (A) (A) (A) (A) (A) (A) (A) (A)
                 (A) (A) (A) (A) (A) (A) (A) (A) (A) (A) (A) (A)
                 (A) (A) (A) (A) (A) (A)
       Virtual   (A) (A) (A) (A) (A) (A) (A) (A) (A) (A) (A) (A)
                 (A) (A) (A) (A) (A) (A) (A) (A) (A) (A) (A) (A)
                 (A) (A) (A) (A) (A) (A) (A) (A) (A) (A) (A) (A)
                 (A) (A) (A) (A) (A) (A) (A) (A) (A) (A) (A) (A)
                 (A) (A) (A) (A) (A) (A) (A) (A) (A) (A) (A) (A)
                 (A) (A) (A) (A) (A) (A) (A) (A) (A) (A) (A) (A)
                 (A) (A) (A) (A) (A) (A) (A) (A) (A) (A) (A) (A)
                 (A) (A) (A) (A) (A) (A) (A) (A) (A) (A) (A) (A)
                 (A) (A) (A) (A) (A) (A) (A) (A) (A) (A) (A) (A)
                 (A) (A) (A) (A) (A) (A) (A) (A) (A) (A) (A) (A)
                 (A) (A) (A) (A) (A) (A) (A) (A) (A) (A) (A) (A)
                 (A) (A) (A) (A) (A) (A) (A) (A) (A) (A) (A) (A)
                 (A) (A) (A) (A) (A) (A) (A) (A) (A) (A) (A) (A)
                 (A) (A) (A) (A) (A) (A) (A) (A) (A) (A) (A) (A)
                 (A) (A) (A) (A) (A) (A) (A) (A) (A) (A) (A) (A)
                 (A) (A) (A) (A) (A) (A) (A) (A) (A) (A) (A) (A)
                 (A) (A) (A) (A) (A) (A) (A) (A) (A) (A) (A) (A)
                 (A) (A) (A) (A) (A) (A) (A) (A) (A) (A) (A) (A)
                 (A) (A) (A) (A) (A) (A) (A) (A) (A) (A) (A) (A)
                 (A) (A) (A) (A) (A) (A) (A) (A) (A) (A) (A) (A)
                 (A) (A) (A) (A) (A) (A) (A) (A) (A) (A) (A) (A)
                 (A) (A) (A) (A) (A) (A) (A) (A) (A) (A) (A) (A)
                 (A) (A) (A) (A) (A) (A) (A) (A) (A) (A) (A) (A)
                 (A) (A) (A) (A) (A) (A) (A) (A) (A) (A) (A) (A)
                 (A) (A) (A) (A) (A) (A) (A) (A) (A) (A) (A) (A)
                 (A) (A) (A) (A) (A) (A) (A) (A) (A) (A) (A) (A)
                 (A) (A) (A) (A) (A) (A) (A) (A) (A) (A) (A) (A)
                 (A) (A) (A) (A) (A) (A) (A) (A) (A) (A) (A) (A)
 The electronic state is 2-A.
 Alpha  occ. eigenvalues --  -19.21038 -19.20574 -10.22727 -10.21357 -10.20498
 Alpha  occ. eigenvalues --  -10.19918 -10.19822 -10.19206  -1.11727  -0.86258
 Alpha  occ. eigenvalues --   -0.79844  -0.76763  -0.76479  -0.64214  -0.61394
 Alpha  occ. eigenvalues --   -0.52648  -0.51995  -0.46652  -0.45479  -0.44948
 Alpha  occ. eigenvalues --   -0.44567  -0.43924  -0.42879  -0.41694  -0.39735
 Alpha  occ. eigenvalues --   -0.36113  -0.34444  -0.32003  -0.27968  -0.27247
 Alpha  occ. eigenvalues --   -0.24289
 Alpha virt. eigenvalues --   -0.09545  -0.00064   0.01443   0.04150   0.05315
 Alpha virt. eigenvalues --    0.06383   0.07495   0.08578   0.09169   0.10394
 Alpha virt. eigenvalues --    0.12098   0.12716   0.16774   0.18614   0.19899
 Alpha virt. eigenvalues --    0.22445   0.23764   0.24293   0.26286   0.27126
 Alpha virt. eigenvalues --    0.28740   0.29276   0.30466   0.32466   0.34093
 Alpha virt. eigenvalues --    0.35191   0.36779   0.38638   0.39773   0.40621
 Alpha virt. eigenvalues --    0.41662   0.42011   0.42561   0.43614   0.44772
 Alpha virt. eigenvalues --    0.45372   0.45608   0.47153   0.47304   0.47571
 Alpha virt. eigenvalues --    0.49167   0.50880   0.52528   0.53764   0.55880
 Alpha virt. eigenvalues --    0.58287   0.60042   0.61205   0.61666   0.62407
 Alpha virt. eigenvalues --    0.63613   0.65022   0.68589   0.70230   0.71389
 Alpha virt. eigenvalues --    0.71672   0.75670   0.76623   0.77300   0.79559
 Alpha virt. eigenvalues --    0.80131   0.83780   0.87458   0.88696   0.90344
 Alpha virt. eigenvalues --    0.92636   0.93332   0.95217   0.97652   0.98806
 Alpha virt. eigenvalues --    0.99989   1.00464   1.02333   1.03398   1.04467
 Alpha virt. eigenvalues --    1.06155   1.07825   1.08393   1.10873   1.12434
 Alpha virt. eigenvalues --    1.13678   1.14982   1.15176   1.16766   1.18294
 Alpha virt. eigenvalues --    1.19195   1.20350   1.20892   1.25018   1.26274
 Alpha virt. eigenvalues --    1.26747   1.27265   1.28523   1.29020   1.31188
 Alpha virt. eigenvalues --    1.32462   1.33159   1.33784   1.35877   1.36567
 Alpha virt. eigenvalues --    1.38456   1.39826   1.41631   1.42611   1.43775
 Alpha virt. eigenvalues --    1.44808   1.47275   1.49731   1.50748   1.51741
 Alpha virt. eigenvalues --    1.53522   1.56298   1.57455   1.61479   1.63435
 Alpha virt. eigenvalues --    1.72074   1.72414   1.76480   1.82898   1.83587
 Alpha virt. eigenvalues --    1.91493   1.95876   1.97695   2.07518   2.10549
 Alpha virt. eigenvalues --    2.12526   2.13642   2.17840   2.19615   2.21041
 Alpha virt. eigenvalues --    2.26111   2.26912   2.32596   2.33000   2.36202
 Alpha virt. eigenvalues --    2.37975   2.40485   2.41141   2.43769   2.44070
 Alpha virt. eigenvalues --    2.47357   2.48415   2.51347   2.53771   2.54794
 Alpha virt. eigenvalues --    2.56090   2.59322   2.59993   2.61157   2.64045
 Alpha virt. eigenvalues --    2.64598   2.65476   2.69350   2.70482   2.72833
 Alpha virt. eigenvalues --    2.73576   2.76039   2.76486   2.79263   2.83498
 Alpha virt. eigenvalues --    2.84344   2.86005   2.88665   2.89517   2.90761
 Alpha virt. eigenvalues --    2.92835   2.92970   2.95984   2.96768   2.99219
 Alpha virt. eigenvalues --    3.01300   3.02740   3.03087   3.05549   3.05772
 Alpha virt. eigenvalues --    3.07710   3.09313   3.10529   3.11041   3.14537
 Alpha virt. eigenvalues --    3.15115   3.16679   3.19284   3.20255   3.21396
 Alpha virt. eigenvalues --    3.22450   3.25405   3.26151   3.27332   3.28879
 Alpha virt. eigenvalues --    3.30850   3.32039   3.34503   3.35942   3.36283
 Alpha virt. eigenvalues --    3.39094   3.42536   3.43581   3.43938   3.46184
 Alpha virt. eigenvalues --    3.48353   3.49040   3.51368   3.52811   3.54042
 Alpha virt. eigenvalues --    3.55958   3.56622   3.58089   3.59142   3.61610
 Alpha virt. eigenvalues --    3.63116   3.66593   3.67638   3.68743   3.70048
 Alpha virt. eigenvalues --    3.70951   3.72229   3.72971   3.74175   3.76629
 Alpha virt. eigenvalues --    3.78755   3.79926   3.80981   3.84869   3.85954
 Alpha virt. eigenvalues --    3.87097   3.87861   3.88217   3.92663   3.93560
 Alpha virt. eigenvalues --    3.95073   3.96110   3.98084   3.99442   4.01605
 Alpha virt. eigenvalues --    4.01916   4.03247   4.04737   4.07027   4.09812
 Alpha virt. eigenvalues --    4.12004   4.12520   4.13950   4.14751   4.17030
 Alpha virt. eigenvalues --    4.18017   4.20474   4.22901   4.25054   4.26051
 Alpha virt. eigenvalues --    4.28947   4.30075   4.32567   4.34139   4.38006
 Alpha virt. eigenvalues --    4.38397   4.40880   4.43431   4.45684   4.46270
 Alpha virt. eigenvalues --    4.52362   4.55532   4.56129   4.61598   4.61810
 Alpha virt. eigenvalues --    4.63309   4.68196   4.68894   4.69974   4.71266
 Alpha virt. eigenvalues --    4.73966   4.75611   4.78103   4.79854   4.79952
 Alpha virt. eigenvalues --    4.81006   4.83262   4.85034   4.86814   4.89014
 Alpha virt. eigenvalues --    4.89425   4.91421   4.96570   4.97875   4.98894
 Alpha virt. eigenvalues --    5.05020   5.06153   5.08129   5.10678   5.12748
 Alpha virt. eigenvalues --    5.16020   5.18227   5.18513   5.21530   5.24438
 Alpha virt. eigenvalues --    5.26186   5.27028   5.30884   5.33751   5.37739
 Alpha virt. eigenvalues --    5.41467   5.44260   5.45893   5.47457   5.49347
 Alpha virt. eigenvalues --    5.52878   5.65330   5.67840   5.70985   5.81216
 Alpha virt. eigenvalues --    5.88706   5.98727   6.01395   6.03323   6.04627
 Alpha virt. eigenvalues --    6.11052   6.19727   6.24294   6.27902   6.29270
 Alpha virt. eigenvalues --    6.34255   6.38895   6.53908   6.91266   6.93673
 Alpha virt. eigenvalues --    7.01878   7.13981   8.30215   9.74614   9.99519
 Alpha virt. eigenvalues --   11.11947  12.30831  12.50231  13.00706  13.83558
  Beta  occ. eigenvalues --  -19.19109 -19.18526 -10.23071 -10.21264 -10.20696
  Beta  occ. eigenvalues --  -10.19902 -10.19721 -10.19212  -1.07586  -0.86434
  Beta  occ. eigenvalues --   -0.77007  -0.76726  -0.73945  -0.64334  -0.61555
  Beta  occ. eigenvalues --   -0.52703  -0.52136  -0.46606  -0.44940  -0.43845
  Beta  occ. eigenvalues --   -0.43248  -0.41871  -0.41153  -0.39233  -0.36257
  Beta  occ. eigenvalues --   -0.35021  -0.34292  -0.32057  -0.27196  -0.21717
  Beta virt. eigenvalues --   -0.09783  -0.09464  -0.00198   0.01124   0.03923
  Beta virt. eigenvalues --    0.05302   0.06280   0.07511   0.08612   0.09170
  Beta virt. eigenvalues --    0.12008   0.12474   0.12816   0.16726   0.18617
  Beta virt. eigenvalues --    0.19842   0.22395   0.23824   0.24254   0.26201
  Beta virt. eigenvalues --    0.26955   0.28608   0.29257   0.30396   0.32421
  Beta virt. eigenvalues --    0.33951   0.34990   0.36518   0.38525   0.39758
  Beta virt. eigenvalues --    0.40586   0.41663   0.41987   0.42526   0.43625
  Beta virt. eigenvalues --    0.44656   0.45457   0.45661   0.47137   0.47303
  Beta virt. eigenvalues --    0.47623   0.49080   0.50965   0.52439   0.53750
  Beta virt. eigenvalues --    0.56605   0.59097   0.59965   0.61425   0.62209
  Beta virt. eigenvalues --    0.63298   0.64948   0.65329   0.68744   0.70335
  Beta virt. eigenvalues --    0.71972   0.72884   0.76034   0.76758   0.77292
  Beta virt. eigenvalues --    0.79952   0.80331   0.84374   0.87479   0.88641
  Beta virt. eigenvalues --    0.90233   0.92608   0.93350   0.95159   0.97585
  Beta virt. eigenvalues --    0.98669   0.99957   1.00644   1.02274   1.03340
  Beta virt. eigenvalues --    1.04678   1.06142   1.07960   1.08383   1.10851
  Beta virt. eigenvalues --    1.12426   1.13575   1.15008   1.15136   1.16795
  Beta virt. eigenvalues --    1.18319   1.19805   1.20268   1.21050   1.25124
  Beta virt. eigenvalues --    1.26329   1.26670   1.27429   1.28862   1.29578
  Beta virt. eigenvalues --    1.31477   1.32679   1.33633   1.34128   1.36098
  Beta virt. eigenvalues --    1.37087   1.38452   1.39884   1.41985   1.42827
  Beta virt. eigenvalues --    1.44585   1.45095   1.47394   1.49805   1.51062
  Beta virt. eigenvalues --    1.51779   1.53610   1.57102   1.58078   1.62455
  Beta virt. eigenvalues --    1.64355   1.72139   1.74153   1.76768   1.82905
  Beta virt. eigenvalues --    1.83867   1.92831   1.97108   1.98402   2.07523
  Beta virt. eigenvalues --    2.11336   2.13703   2.14994   2.17758   2.19608
  Beta virt. eigenvalues --    2.21299   2.26679   2.26745   2.32525   2.32853
  Beta virt. eigenvalues --    2.36172   2.37870   2.40552   2.41019   2.43663
  Beta virt. eigenvalues --    2.43830   2.47175   2.48214   2.51300   2.53704
  Beta virt. eigenvalues --    2.54688   2.55945   2.59154   2.59860   2.60843
  Beta virt. eigenvalues --    2.63783   2.64441   2.65270   2.69208   2.70232
  Beta virt. eigenvalues --    2.72496   2.73311   2.75801   2.76349   2.79188
  Beta virt. eigenvalues --    2.83376   2.83992   2.85728   2.88522   2.89401
  Beta virt. eigenvalues --    2.90698   2.92672   2.92871   2.95692   2.96672
  Beta virt. eigenvalues --    2.99026   3.00935   3.02560   3.02865   3.05295
  Beta virt. eigenvalues --    3.05617   3.07521   3.09085   3.10340   3.11028
  Beta virt. eigenvalues --    3.14238   3.14962   3.16496   3.19027   3.19931
  Beta virt. eigenvalues --    3.21086   3.22214   3.25298   3.25971   3.27175
  Beta virt. eigenvalues --    3.28740   3.30619   3.31962   3.34400   3.35707
  Beta virt. eigenvalues --    3.36207   3.38995   3.42090   3.43611   3.43813
  Beta virt. eigenvalues --    3.46505   3.48310   3.50892   3.52542   3.54274
  Beta virt. eigenvalues --    3.55186   3.56091   3.56638   3.58690   3.59810
  Beta virt. eigenvalues --    3.61865   3.63511   3.66601   3.67591   3.69251
  Beta virt. eigenvalues --    3.70647   3.71801   3.72674   3.74083   3.76116
  Beta virt. eigenvalues --    3.76840   3.78759   3.80414   3.81049   3.84702
  Beta virt. eigenvalues --    3.85895   3.86819   3.87678   3.87996   3.92593
  Beta virt. eigenvalues --    3.93486   3.94946   3.95935   3.98055   3.99340
  Beta virt. eigenvalues --    4.01380   4.01724   4.03235   4.04596   4.06869
  Beta virt. eigenvalues --    4.09586   4.11766   4.12387   4.13841   4.14632
  Beta virt. eigenvalues --    4.16879   4.17869   4.20394   4.22845   4.24946
  Beta virt. eigenvalues --    4.26000   4.28785   4.30012   4.32388   4.33958
  Beta virt. eigenvalues --    4.37845   4.38122   4.40759   4.43302   4.45571
  Beta virt. eigenvalues --    4.46124   4.52349   4.55460   4.56880   4.61659
  Beta virt. eigenvalues --    4.62355   4.63757   4.68145   4.69723   4.71087
  Beta virt. eigenvalues --    4.72419   4.73856   4.77361   4.78866   4.80750
  Beta virt. eigenvalues --    4.81917   4.82312   4.83995   4.85107   4.88207
  Beta virt. eigenvalues --    4.89182   4.89277   4.91331   4.96500   4.97799
  Beta virt. eigenvalues --    4.98879   5.05057   5.06157   5.11712   5.13000
  Beta virt. eigenvalues --    5.14615   5.16535   5.18576   5.21368   5.23482
  Beta virt. eigenvalues --    5.24752   5.27142   5.29812   5.31055   5.33733
  Beta virt. eigenvalues --    5.37716   5.41431   5.44248   5.46129   5.50558
  Beta virt. eigenvalues --    5.52636   5.53039   5.65359   5.67795   5.70930
  Beta virt. eigenvalues --    5.81197   5.88689   5.98730   6.03390   6.06127
  Beta virt. eigenvalues --    6.06743   6.11132   6.26291   6.30777   6.33269
  Beta virt. eigenvalues --    6.34547   6.38882   6.43450   6.57153   6.94045
  Beta virt. eigenvalues --    6.97855   7.03929   7.15770   8.34167   9.74593
  Beta virt. eigenvalues --   10.02322  11.11913  12.30748  12.50101  13.00660
  Beta virt. eigenvalues --   13.83464
          Condensed to atoms (all electrons):
               1          2          3          4          5          6
     1  C    4.857647   0.342190  -0.047809  -0.011738  -0.041711   0.341420
     2  C    0.342190   4.981689   0.588616  -0.044656  -0.032673  -0.036175
     3  C   -0.047809   0.588616   4.903812   0.375268  -0.048929  -0.008392
     4  C   -0.011738  -0.044656   0.375268   4.989394   0.415299  -0.039427
     5  C   -0.041711  -0.032673  -0.048929   0.415299   5.034980   0.334261
     6  C    0.341420  -0.036175  -0.008392  -0.039427   0.334261   4.855184
     7  H   -0.035543   0.007166  -0.000814   0.005773  -0.033541   0.418544
     8  H   -0.034533   0.000514   0.001339  -0.004310  -0.034338   0.405967
     9  H    0.002128   0.000154   0.003369  -0.040477   0.413908  -0.040018
    10  H    0.003641   0.000168   0.000338  -0.025319   0.207682  -0.010110
    11  H    0.007240  -0.049821   0.424465  -0.044412   0.007762  -0.000776
    12  H   -0.042186   0.419968  -0.044315   0.007045  -0.000779   0.005458
    13  H    0.414799  -0.034384   0.005546  -0.000438   0.007223  -0.033539
    14  H    0.393220  -0.036732  -0.007267   0.001152   0.002875  -0.030075
    15  O   -0.000114  -0.000706   0.004634   0.065360  -0.000774  -0.000265
    16  H   -0.000497   0.003928  -0.037625   0.420742  -0.043833   0.006381
    17  O   -0.000021   0.000042   0.000346  -0.032818  -0.015817   0.000055
               7          8          9         10         11         12
     1  C   -0.035543  -0.034533   0.002128   0.003641   0.007240  -0.042186
     2  C    0.007166   0.000514   0.000154   0.000168  -0.049821   0.419968
     3  C   -0.000814   0.001339   0.003369   0.000338   0.424465  -0.044315
     4  C    0.005773  -0.004310  -0.040477  -0.025319  -0.044412   0.007045
     5  C   -0.033541  -0.034338   0.413908   0.207682   0.007762  -0.000779
     6  C    0.418544   0.405967  -0.040018  -0.010110  -0.000776   0.005458
     7  H    0.593212  -0.035201  -0.008536  -0.000640   0.000086  -0.000351
     8  H   -0.035201   0.591292   0.006426  -0.010242  -0.000025   0.000099
     9  H   -0.008536   0.006426   0.535642  -0.009792  -0.000409   0.000096
    10  H   -0.000640  -0.010242  -0.009792   0.685320  -0.000435   0.000073
    11  H    0.000086  -0.000025  -0.000409  -0.000435   0.549539  -0.009486
    12  H   -0.000351   0.000099   0.000096   0.000073  -0.009486   0.541980
    13  H   -0.001321  -0.008886  -0.000506  -0.000125  -0.000288  -0.005381
    14  H   -0.008598   0.008357   0.001770  -0.000211  -0.000262   0.000423
    15  O    0.000004   0.001049   0.001131  -0.046232   0.000776  -0.000019
    16  H   -0.000259  -0.000061  -0.007215   0.000613  -0.004441  -0.000336
    17  O   -0.000010   0.001189  -0.000873   0.095253  -0.000000   0.000001
              13         14         15         16         17
     1  C    0.414799   0.393220  -0.000114  -0.000497  -0.000021
     2  C   -0.034384  -0.036732  -0.000706   0.003928   0.000042
     3  C    0.005546  -0.007267   0.004634  -0.037625   0.000346
     4  C   -0.000438   0.001152   0.065360   0.420742  -0.032818
     5  C    0.007223   0.002875  -0.000774  -0.043833  -0.015817
     6  C   -0.033539  -0.030075  -0.000265   0.006381   0.000055
     7  H   -0.001321  -0.008598   0.000004  -0.000259  -0.000010
     8  H   -0.008886   0.008357   0.001049  -0.000061   0.001189
     9  H   -0.000506   0.001770   0.001131  -0.007215  -0.000873
    10  H   -0.000125  -0.000211  -0.046232   0.000613   0.095253
    11  H   -0.000288  -0.000262   0.000776  -0.004441  -0.000000
    12  H   -0.005381   0.000423  -0.000019  -0.000336   0.000001
    13  H    0.588670  -0.034667   0.000008   0.000062   0.000000
    14  H   -0.034667   0.610761  -0.000010   0.000180   0.000006
    15  O    0.000008  -0.000010   7.989470  -0.005866   0.145412
    16  H    0.000062   0.000180  -0.005866   0.523134   0.003060
    17  O    0.000000   0.000006   0.145412   0.003060   7.960938
          Atomic-Atomic Spin Densities.
               1          2          3          4          5          6
     1  C    0.009287   0.007609  -0.000731  -0.000771  -0.000860  -0.002181
     2  C    0.007609  -0.151855  -0.002796   0.009458   0.000637   0.000765
     3  C   -0.000731  -0.002796   0.065836   0.012612  -0.007717   0.000510
     4  C   -0.000771   0.009458   0.012612  -0.245614  -0.006353   0.002526
     5  C   -0.000860   0.000637  -0.007717  -0.006353   0.075479  -0.008058
     6  C   -0.002181   0.000765   0.000510   0.002526  -0.008058  -0.000162
     7  H    0.000132  -0.000018   0.000014   0.000054  -0.000150   0.000212
     8  H   -0.000155  -0.000585   0.000484  -0.000189  -0.000229   0.002321
     9  H    0.000472  -0.000613  -0.000142   0.001777  -0.004011   0.001005
    10  H   -0.000227  -0.000214   0.000465   0.025605   0.012503  -0.002071
    11  H   -0.000079   0.000354  -0.001027   0.001213   0.000396  -0.000053
    12  H   -0.000450  -0.001696  -0.000032  -0.000063  -0.000003   0.000067
    13  H   -0.000713   0.000764  -0.000035   0.000106  -0.000083  -0.000654
    14  H   -0.003267   0.004119  -0.000037  -0.001025   0.000988   0.001087
    15  O    0.000058  -0.000099  -0.001397  -0.013715   0.001151   0.000358
    16  H   -0.000174   0.000830  -0.000511   0.000991  -0.000993   0.000211
    17  O   -0.000017   0.000010  -0.000057   0.005389  -0.001208  -0.000029
               7          8          9         10         11         12
     1  C    0.000132  -0.000155   0.000472  -0.000227  -0.000079  -0.000450
     2  C   -0.000018  -0.000585  -0.000613  -0.000214   0.000354  -0.001696
     3  C    0.000014   0.000484  -0.000142   0.000465  -0.001027  -0.000032
     4  C    0.000054  -0.000189   0.001777   0.025605   0.001213  -0.000063
     5  C   -0.000150  -0.000229  -0.004011   0.012503   0.000396  -0.000003
     6  C    0.000212   0.002321   0.001005  -0.002071  -0.000053   0.000067
     7  H    0.000507  -0.000422   0.000030  -0.000037  -0.000001  -0.000003
     8  H   -0.000422   0.000348  -0.000029  -0.000369   0.000012  -0.000011
     9  H    0.000030  -0.000029  -0.012848   0.005627   0.000020   0.000007
    10  H   -0.000037  -0.000369   0.005627  -0.137454   0.000007  -0.000012
    11  H   -0.000001   0.000012   0.000020   0.000007  -0.002375  -0.000082
    12  H   -0.000003  -0.000011   0.000007  -0.000012  -0.000082   0.007234
    13  H   -0.000006   0.000182  -0.000013   0.000021   0.000003  -0.000073
    14  H   -0.000132  -0.000060   0.000362  -0.000133   0.000002  -0.000129
    15  O    0.000008  -0.000365  -0.000252   0.007569  -0.000013   0.000002
    16  H   -0.000009   0.000029   0.001111  -0.002666  -0.000171  -0.000026
    17  O   -0.000010  -0.000117   0.000274  -0.015074  -0.000004  -0.000000
              13         14         15         16         17
     1  C   -0.000713  -0.003267   0.000058  -0.000174  -0.000017
     2  C    0.000764   0.004119  -0.000099   0.000830   0.000010
     3  C   -0.000035  -0.000037  -0.001397  -0.000511  -0.000057
     4  C    0.000106  -0.001025  -0.013715   0.000991   0.005389
     5  C   -0.000083   0.000988   0.001151  -0.000993  -0.001208
     6  C   -0.000654   0.001087   0.000358   0.000211  -0.000029
     7  H   -0.000006  -0.000132   0.000008  -0.000009  -0.000010
     8  H    0.000182  -0.000060  -0.000365   0.000029  -0.000117
     9  H   -0.000013   0.000362  -0.000252   0.001111   0.000274
    10  H    0.000021  -0.000133   0.007569  -0.002666  -0.015074
    11  H    0.000003   0.000002  -0.000013  -0.000171  -0.000004
    12  H   -0.000073  -0.000129   0.000002  -0.000026  -0.000000
    13  H   -0.001753   0.000984  -0.000000   0.000006   0.000000
    14  H    0.000984  -0.008218   0.000001  -0.000056  -0.000001
    15  O   -0.000000   0.000001   0.869956  -0.002067  -0.175148
    16  H    0.000006  -0.000056  -0.002067   0.007125   0.000067
    17  O    0.000000  -0.000001  -0.175148   0.000067   0.823322
 Mulliken charges and spin densities:
               1          2
     1  C   -0.148132   0.007931
     2  C   -0.109289  -0.133331
     3  C   -0.112583   0.065438
     4  C   -0.036438  -0.207999
     5  C   -0.171593   0.061489
     6  C   -0.168494  -0.004146
     7  H    0.100031   0.000168
     8  H    0.111365   0.000844
     9  H    0.143202  -0.007224
    10  H    0.110019  -0.106461
    11  H    0.120485  -0.001798
    12  H    0.127710   0.004730
    13  H    0.103225  -0.001266
    14  H    0.099078  -0.005514
    15  O   -0.153858   0.686045
    16  H    0.142033   0.003695
    17  O   -0.156762   0.637398
 Sum of Mulliken charges =  -0.00000   1.00000
 Mulliken charges and spin densities with hydrogens summed into heavy atoms:
               1          2
     1  C    0.054171   0.001152
     2  C    0.018421  -0.128601
     3  C    0.007903   0.063640
     4  C    0.105595  -0.204304
     5  C    0.081628  -0.052196
     6  C    0.042902  -0.003134
    15  O   -0.153858   0.686045
    17  O   -0.156762   0.637398
 APT charges:
               1
     1  C   -0.907432
     2  C   -0.433979
     3  C   -0.614991
     4  C   -0.420095
     5  C   -0.560784
     6  C   -0.746405
     7  H    0.499778
     8  H    0.274838
     9  H    0.466872
    10  H    0.149235
    11  H    0.514033
    12  H    0.619931
    13  H    0.518606
    14  H    0.436950
    15  O   -0.214949
    16  H    0.456982
    17  O   -0.038591
 Sum of APT charges =  -0.00000
 APT charges with hydrogens summed into heavy atoms:
               1
     1  C    0.048124
     2  C    0.185953
     3  C   -0.100958
     4  C    0.036887
     5  C    0.055324
     6  C    0.028210
    15  O   -0.214949
    17  O   -0.038591
 Electronic spatial extent (au):  <R**2>=           1172.4418
 Charge=             -0.0000 electrons
 Dipole moment (field-independent basis, Debye):
    X=             -4.6573    Y=             -0.1944    Z=              1.2872  Tot=              4.8358
 Quadrupole moment (field-independent basis, Debye-Ang):
   XX=            -55.4487   YY=            -46.2394   ZZ=            -47.4092
   XY=              0.3606   XZ=              3.1688   YZ=              0.7165
 Traceless Quadrupole moment (field-independent basis, Debye-Ang):
   XX=             -5.7496   YY=              3.4597   ZZ=              2.2899
   XY=              0.3606   XZ=              3.1688   YZ=              0.7165
 Octapole moment (field-independent basis, Debye-Ang**2):
  XXX=            -20.6485  YYY=              4.6915  ZZZ=             -0.2898  XYY=              1.1935
  XXY=              1.2964  XXZ=              0.8668  XZZ=              6.6447  YZZ=             -1.7229
  YYZ=              0.7540  XYZ=              3.0990
 Hexadecapole moment (field-independent basis, Debye-Ang**3):
 XXXX=          -1057.7765 YYYY=           -351.6340 ZZZZ=           -135.0713 XXXY=              0.9474
 XXXZ=             14.1416 YYYX=              0.7186 YYYZ=              1.7124 ZZZX=             -3.7969
 ZZZY=              0.4443 XXYY=           -225.1629 XXZZ=           -186.0559 YYZZ=            -84.1563
 XXYZ=             -2.3542 YYXZ=              0.9834 ZZXY=              4.3215
 N-N= 3.522407473618D+02 E-N=-1.601273498759D+03  KE= 3.813254241109D+02
  Exact polarizability:   0.000   0.000   0.000   0.000   0.000   0.000
 Approx polarizability: 273.218 -23.014 149.737 -15.709  -5.204 100.680
                          Isotropic Fermi Contact Couplings
        Atom                 a.u.       MegaHertz       Gauss      10(-4) cm-1
     1  C(13)              0.00506       5.69118       2.03076       1.89837
     2  C(13)             -0.00611      -6.86957      -2.45123      -2.29144
     3  C(13)              0.00847       9.52606       3.39913       3.17755
     4  C(13)             -0.03564     -40.06068     -14.29465     -13.36281
     5  C(13)              0.00819       9.20354       3.28405       3.06997
     6  C(13)             -0.00150      -1.68160      -0.60004      -0.56092
     7  H(1)               0.00014       0.61958       0.22108       0.20667
     8  H(1)               0.00090       4.02659       1.43679       1.34312
     9  H(1)              -0.00519     -23.21339      -8.28311      -7.74315
    10  H(1)              -0.03604    -161.10852     -57.48753     -53.74002
    11  H(1)              -0.00083      -3.70649      -1.32257      -1.23635
    12  H(1)               0.00194       8.68100       3.09760       2.89567
    13  H(1)              -0.00101      -4.52339      -1.61406      -1.50884
    14  H(1)              -0.00334     -14.91774      -5.32302      -4.97602
    15  O(17)              0.03965     -24.03354      -8.57576      -8.01673
    16  H(1)               0.00280      12.51076       4.46415       4.17314
    17  O(17)              0.03742     -22.68547      -8.09474      -7.56706
 --------------------------------------------------------
       Center         ----  Spin Dipole Couplings  ----
                      3XX-RR        3YY-RR        3ZZ-RR
 --------------------------------------------------------
     1   Atom        0.004309     -0.000204     -0.004105
     2   Atom        0.058649      0.076564     -0.135213
     3   Atom       -0.020539     -0.031164      0.051703
     4   Atom       -0.041184      0.118099     -0.076915
     5   Atom        0.040181     -0.022227     -0.017953
     6   Atom        0.004222     -0.003120     -0.001101
     7   Atom        0.001784     -0.000997     -0.000787
     8   Atom        0.003456     -0.001907     -0.001548
     9   Atom        0.002237     -0.003788      0.001551
    10   Atom        0.020924     -0.005212     -0.015712
    11   Atom       -0.000136      0.000638     -0.000502
    12   Atom        0.001616      0.000207     -0.001822
    13   Atom        0.001449     -0.001606      0.000157
    14   Atom        0.001570     -0.001753      0.000183
    15   Atom       -0.448549     -1.287705      1.736254
    16   Atom       -0.000309      0.004907     -0.004598
    17   Atom       -0.330334     -1.198842      1.529176
 --------------------------------------------------------
                        XY            XZ            YZ
 --------------------------------------------------------
     1   Atom       -0.003439      0.001571     -0.000683
     2   Atom        0.007685      0.072343     -0.019114
     3   Atom        0.002586     -0.042531     -0.006940
     4   Atom        0.007050      0.178821     -0.007552
     5   Atom       -0.033389     -0.032551      0.016959
     6   Atom        0.002777     -0.001449      0.000350
     7   Atom        0.001695     -0.000309     -0.000076
     8   Atom        0.003503      0.000874     -0.000235
     9   Atom       -0.000131     -0.002973     -0.002200
    10   Atom        0.024323     -0.016699     -0.010984
    11   Atom       -0.001961     -0.003724      0.002038
    12   Atom        0.008949     -0.000452      0.002964
    13   Atom       -0.001033     -0.000353     -0.000831
    14   Atom       -0.001223      0.000151      0.000715
    15   Atom        0.624587      0.546080      0.817888
    16   Atom       -0.008126     -0.017636     -0.004879
    17   Atom        0.643728      0.566197      0.777353
 --------------------------------------------------------


 ---------------------------------------------------------------------------------
              Anisotropic Spin Dipole Couplings in Principal Axis System
 ---------------------------------------------------------------------------------

       Atom             a.u.   MegaHertz   Gauss  10(-4) cm-1        Axes

              Baa    -0.0044    -0.589    -0.210    -0.197 -0.1694  0.0217  0.9853
     1 C(13)  Bbb    -0.0021    -0.275    -0.098    -0.092  0.4632  0.8842  0.0602
              Bcc     0.0064     0.864     0.308     0.288  0.8699 -0.4666  0.1598
 
              Baa    -0.1610   -21.606    -7.710    -7.207 -0.3144  0.0862  0.9454
     2 C(13)  Bbb     0.0780    10.467     3.735     3.491 -0.2220  0.9616 -0.1615
              Bcc     0.0830    11.139     3.975     3.716  0.9230  0.2606  0.2831
 
              Baa    -0.0403    -5.402    -1.928    -1.802  0.9038  0.0658  0.4230
     3 C(13)  Bbb    -0.0317    -4.248    -1.516    -1.417 -0.0898  0.9953  0.0371
              Bcc     0.0719     9.650     3.443     3.219 -0.4185 -0.0715  0.9054
 
              Baa    -0.2391   -32.080   -11.447   -10.701 -0.6708  0.0289  0.7411
     4 C(13)  Bbb     0.1184    15.886     5.669     5.299 -0.0323  0.9971 -0.0682
              Bcc     0.1207    16.193     5.778     5.401  0.7410  0.0697  0.6679
 
              Baa    -0.0379    -5.091    -1.817    -1.698  0.2033  0.8847 -0.4195
     5 C(13)  Bbb    -0.0320    -4.294    -1.532    -1.432  0.4982  0.2753  0.8222
              Bcc     0.0699     9.385     3.349     3.131  0.8429 -0.3762 -0.3847
 
              Baa    -0.0043    -0.572    -0.204    -0.191 -0.3399  0.9049 -0.2560
     6 C(13)  Bbb    -0.0011    -0.153    -0.055    -0.051  0.0982  0.3048  0.9473
              Bcc     0.0054     0.725     0.259     0.242  0.9353  0.2969 -0.1925
 
              Baa    -0.0018    -0.962    -0.343    -0.321 -0.4309  0.9002 -0.0639
     7 H(1)   Bbb    -0.0008    -0.433    -0.154    -0.144  0.0550  0.0969  0.9938
              Bcc     0.0026     1.395     0.498     0.465  0.9007  0.4247 -0.0913
 
              Baa    -0.0038    -2.027    -0.723    -0.676 -0.4450  0.8563  0.2621
     8 H(1)   Bbb    -0.0015    -0.776    -0.277    -0.259  0.0282 -0.2791  0.9599
              Bcc     0.0053     2.803     1.000     0.935  0.8951  0.4345  0.1000
 
              Baa    -0.0048    -2.556    -0.912    -0.853  0.1853  0.8982  0.3985
     9 H(1)   Bbb    -0.0003    -0.169    -0.060    -0.056  0.6831 -0.4093  0.6049
              Bcc     0.0051     2.726     0.973     0.909  0.7064  0.1601 -0.6894
 
              Baa    -0.0228   -12.164    -4.340    -4.057  0.1367  0.3818  0.9141
    10 H(1)   Bbb    -0.0195   -10.426    -3.720    -3.478 -0.5713  0.7842 -0.2421
              Bcc     0.0423    22.590     8.061     7.535  0.8093  0.4891 -0.3253
 
              Baa    -0.0041    -2.162    -0.771    -0.721  0.6797 -0.0343  0.7327
    11 H(1)   Bbb    -0.0011    -0.597    -0.213    -0.199  0.4078  0.8479 -0.3387
              Bcc     0.0052     2.759     0.984     0.920  0.6097 -0.5290 -0.5903
 
              Baa    -0.0089    -4.775    -1.704    -1.593 -0.6173  0.7118 -0.3352
    12 H(1)   Bbb    -0.0012    -0.630    -0.225    -0.210 -0.3318  0.1508  0.9312
              Bcc     0.0101     5.405     1.929     1.803  0.7134  0.6860  0.1431
 
              Baa    -0.0023    -1.204    -0.430    -0.402  0.2824  0.8936  0.3489
    13 H(1)   Bbb     0.0005     0.259     0.092     0.086 -0.0363 -0.3535  0.9347
              Bcc     0.0018     0.945     0.337     0.315  0.9586 -0.2766 -0.0674
 
              Baa    -0.0024    -1.260    -0.450    -0.420  0.2952  0.9151 -0.2747
    14 H(1)   Bbb     0.0004     0.206     0.074     0.069  0.1316  0.2458  0.9604
              Bcc     0.0020     1.054     0.376     0.352  0.9463 -0.3196 -0.0479
 
              Baa    -1.6937   122.558    43.732    40.881 -0.3878  0.9086 -0.1549
    15 O(17)  Bbb    -0.4348    31.461    11.226    10.494  0.8838  0.3188 -0.3424
              Bcc     2.1285  -154.019   -54.958   -51.375  0.2617  0.2697  0.9267
 
              Baa    -0.0232   -12.354    -4.408    -4.121  0.6476  0.3087  0.6967
    16 H(1)   Bbb     0.0069     3.706     1.322     1.236  0.0308  0.9029 -0.4287
              Bcc     0.0162     8.648     3.086     2.885  0.7614 -0.2991 -0.5752
 
              Baa    -1.6072   116.298    41.498    38.793 -0.3891  0.9081 -0.1548
    17 O(17)  Bbb    -0.3558    25.744     9.186     8.587  0.8694  0.3065 -0.3875
              Bcc     1.9630  -142.042   -50.684   -47.380  0.3045  0.2854  0.9088
 

 ---------------------------------------------------------------------------------

 Calling FoFJK, ICntrl=    100147 FMM=F ISym2X=0 I1Cent= 0 IOpClX= 1 NMat=1 NMatS=1 NMatT=0.
 ***** Axes restored to original set *****
 -------------------------------------------------------------------
 Center     Atomic                   Forces (Hartrees/Bohr)
 Number     Number              X              Y              Z
 -------------------------------------------------------------------
      1        6           0.003589435    0.002540771   -0.010753502
      2        6          -0.001957598   -0.005106906    0.004799347
      3        6           0.021359853   -0.005240745   -0.001862121
      4        6          -0.046025979    0.007950772    0.012636539
      5        6           0.067912032   -0.015916244   -0.008862058
      6        6           0.002404491    0.001299279   -0.004485462
      7        1           0.000442652    0.001189368    0.003209127
      8        1          -0.005209162    0.006599828   -0.000469360
      9        1           0.009311322   -0.003178420   -0.002293059
     10        1          -0.025746840    0.015295027    0.012416139
     11        1           0.001000712    0.000206143   -0.009704430
     12        1          -0.000042347    0.000999941    0.003290290
     13        1          -0.000462019    0.000424054    0.000133382
     14        1          -0.000372374    0.001586279   -0.000121593
     15        8           0.022345337   -0.076995339    0.015552852
     16        1           0.004426332   -0.002820108   -0.007603430
     17        8          -0.052975845    0.071166301   -0.005882662
 -------------------------------------------------------------------
 Cartesian Forces:  Max     0.076995339 RMS     0.021690527
 FormGI is forming the generalized inverse of G from B-inverse, IUseBI=4.

 GradGradGradGradGradGradGradGradGradGradGradGradGradGradGradGradGradGrad
 Berny optimization.
 Internal  Forces:  Max     0.074493223 RMS     0.009917603
 Search for a saddle point.
 Step number   1 out of a maximum of  102
 All quantities printed in internal units (Hartrees-Bohrs-Radians)
 Second derivative matrix not updated -- analytic derivatives used.
 ITU=  0
 LST/QST climbing along tangent vector
     Eigenvalues ---   -0.02707  -0.01616  -0.00825  -0.00142   0.00253
     Eigenvalues ---    0.00555   0.00656   0.00975   0.01299   0.01539
     Eigenvalues ---    0.01577   0.01728   0.02164   0.02405   0.03242
     Eigenvalues ---    0.03687   0.04052   0.04736   0.05558   0.06324
     Eigenvalues ---    0.07168   0.07538   0.07851   0.08103   0.09507
     Eigenvalues ---    0.10600   0.11512   0.11951   0.14189   0.19104
     Eigenvalues ---    0.22123   0.22398   0.24205   0.28426   0.28720
     Eigenvalues ---    0.30344   0.31892   0.32216   0.33370   0.33644
     Eigenvalues ---    0.34100   0.34761   0.34968   0.35278   0.52317
     Eigenvalues --- 1000.000001000.000001000.000001000.000001000.00000
     Eigenvalues --- 1000.000001000.000001000.000001000.000001000.00000
     Eigenvalues --- 1000.000001000.000001000.000001000.000001000.00000
     Eigenvalues --- 1000.000001000.000001000.000001000.000001000.00000
     Eigenvalues --- 1000.000001000.000001000.000001000.000001000.00000
     Eigenvalues --- 1000.000001000.000001000.000001000.000001000.00000
     Eigenvalues --- 1000.000001000.000001000.000001000.000001000.00000
     Eigenvalues --- 1000.000001000.000001000.000001000.000001000.00000
     Eigenvalues --- 1000.000001000.000001000.000001000.000001000.00000
     Eigenvalues --- 1000.000001000.000001000.000001000.000001000.00000
     Eigenvalues --- 1000.000001000.000001000.000001000.000001000.00000
     Eigenvalues --- 1000.000001000.000001000.000001000.000001000.00000
     Eigenvalues --- 1000.000001000.000001000.000001000.000001000.00000
     Eigenvalues --- 1000.000001000.000001000.00000
 Eigenvectors required to have negative eigenvalues:
                          R18       R11       R15       D41       R10
   1                    0.67138   0.40334  -0.40052   0.11672  -0.10788
                          D46       D45       D40       D43       D28
   1                    0.10294   0.10211   0.10176   0.10176  -0.09541
 QST in optimization variable space.
 Eigenvectors 1 and   2 swapped, overlap=  1.0000
                        Tangent   TS vect  // Eig F  Eigenval
   1         R1        -0.00339  -0.00339  -0.00582  -0.01616
   2         R2        -0.00164  -0.00164   0.00693  -0.02707
   3         R3        -0.00047  -0.00047  -0.01960  -0.00825
   4         R4         0.00027   0.00027   0.00368  -0.00142
   5         R5        -0.00023  -0.00023   0.00074   0.00253
   6         R6        -0.00038  -0.00038   0.00007   0.00555
   7         R7        -0.00493  -0.00493  -0.00169   0.00656
   8         R8         0.00059   0.00059   0.00192   0.00975
   9         R9        -0.02317  -0.02317   0.00086   0.01299
  10         R10        0.02979   0.02979   0.00085   0.01539
  11         R11        0.40240   0.40240   0.00127   0.01577
  12         R12       -0.00152  -0.00152   0.00086   0.01728
  13         R13       -0.00300  -0.00300  -0.00660   0.02164
  14         R14       -0.00226  -0.00226   0.01432   0.02405
  15         R15        0.24441   0.24441  -0.00183   0.03242
  16         R16       -0.00003  -0.00003   0.00081   0.03687
  17         R17        0.00128   0.00128   0.00169   0.04052
  18         R18       -0.34199  -0.34199   0.00109   0.04736
  19         R19        0.00620   0.00620  -0.00028   0.05558
  20         A1         0.00081   0.00081  -0.00515   0.06324
  21         A2         0.00340   0.00340   0.00312   0.07168
  22         A3        -0.00258  -0.00258  -0.00080   0.07538
  23         A4        -0.00018  -0.00018   0.00465   0.07851
  24         A5        -0.00282  -0.00282   0.00819   0.08103
  25         A6         0.00131   0.00131  -0.00455   0.09507
  26         A7        -0.00668  -0.00668  -0.01272   0.10600
  27         A8         0.00223   0.00223   0.01099   0.11512
  28         A9         0.00333   0.00333  -0.00687   0.11951
  29         A10        0.00399   0.00399   0.00636   0.14189
  30         A11       -0.00206  -0.00206  -0.00067   0.19104
  31         A12       -0.00249  -0.00249  -0.02736   0.22123
  32         A13        0.00231   0.00231  -0.02613   0.22398
  33         A14       -0.06600  -0.06600  -0.00045   0.24205
  34         A15        0.00192   0.00192  -0.00356   0.28426
  35         A16        0.02847   0.02847   0.00238   0.28720
  36         A17       -0.00783  -0.00783  -0.00740   0.30344
  37         A18        0.02610   0.02610  -0.00297   0.31892
  38         A19       -0.10984  -0.10984  -0.00007   0.32216
  39         A20       -0.00981  -0.00981  -0.00071   0.33370
  40         A21       -0.07949  -0.07949  -0.00099   0.33644
  41         A22        0.02190   0.02190  -0.00084   0.34100
  42         A23        0.02909   0.02909  -0.00307   0.34761
  43         A24       -0.06777  -0.06777  -0.00222   0.34968
  44         A25        0.01357   0.01357  -0.00036   0.35278
  45         A26       -0.00256  -0.00256  -0.00310   0.52317
  46         A27       -0.04097  -0.04097  -0.000001000.00000
  47         A28        0.00188   0.00188   0.000001000.00000
  48         A29       -0.00331  -0.00331  -0.000001000.00000
  49         A30        0.00461   0.00461   0.000001000.00000
  50         A31        0.00139   0.00139   0.000001000.00000
  51         A32       -0.00207  -0.00207  -0.000001000.00000
  52         A33       -0.00260  -0.00260   0.000001000.00000
  53         A34        0.17737   0.17737  -0.000001000.00000
  54         A35        0.16942   0.16942   0.000001000.00000
  55         A36       -0.04457  -0.04457  -0.000001000.00000
  56         A37       -0.07652  -0.07652  -0.000001000.00000
  57         A38        0.05658   0.05658   0.000001000.00000
  58         D1        -0.02748  -0.02748   0.000001000.00000
  59         D2        -0.01839  -0.01839  -0.000001000.00000
  60         D3        -0.03035  -0.03035  -0.000001000.00000
[...]
   zx        -0.153366D+02     -0.227265D+01     -0.252866D+01
   zy         0.592441D+01      0.877907D+00      0.976803D+00
   zz         0.103371D+03      0.153179D+02      0.170435D+02

 ----------------------------------------------------------------------
 1\1\GINC-CNODE1122\Freq\UB3LYP\CC-pVTZ+d\C6H9O2(2)\LMOSKALEVA\12-May-2
 022\0\\#N Geom=AllCheck Guess=TCheck SCRF=Check GenChk UB3LYP/CC-pVTZ+
 d Freq\\cyclohexenylO2-Concerted-OOH-Elim-QST2-b3lyp-c\\0,2\C,-2.18301
 64228,-0.277179298,-0.2630257068\C,-1.6410934094,1.1245566887,-0.29805
 88154\C,-0.4726934886,1.438153524,0.2812536204\C,0.2740278117,0.427640
 547,0.9944103324\C,0.0575385964,-0.9304077978,0.7670934335\C,-1.058077
 473,-1.3162076711,-0.213500349\H,-1.4588948288,-2.2956726709,0.0463297
 603\H,-0.635561188,-1.4128139021,-1.2177890362\H,0.2499442497,-1.60509
 89604,1.5978572801\H,1.1760563195,-1.1134450333,0.0991290761\H,-0.1105
 176082,2.4573601963,0.2872085937\H,-2.2418640471,1.898992942,-0.759331
 9925\H,-2.8163892856,-0.4585990398,-1.1331582125\H,-2.8417757872,-0.37
 33785004,0.6101804852\O,2.2532128165,0.4665066884,-0.3005045786\H,0.91
 97002373,0.7429331354,1.8016249378\O,2.2535785077,-0.781944848,-0.5521
 248288\\Version=ES64L-G16RevB.01\State=2-A\HF=-384.4587604\S2=0.767057
 \S2-1=0.\S2A=0.750136\RMSD=8.192e-10\RMSF=3.568e-05\ZeroPoint=0.135031
 2\Thermal=0.1426267\Dipole=-1.1879288,-0.0617315,0.4281534\DipoleDeriv
 =0.0299547,-0.0244015,-0.0639378,0.007673,-0.0428689,0.0112562,0.02496
 77,0.0141917,0.1897374,0.1408379,0.0181445,0.1643034,0.2916483,0.04729
 74,-0.0401398,-0.011381,-0.0596849,-0.0823833,-0.3004182,0.1497649,-0.
 0323067,-0.037651,0.0673495,0.0131575,-0.0166732,0.0185555,-0.2270467,
 0.426797,-0.1008042,0.0693635,0.0569889,0.4020054,-0.1938088,0.1176383
 ,-0.0558749,0.1439754,-0.0925506,0.2729579,0.0163491,0.0248106,-0.3296
 533,0.0208474,0.047471,-0.195871,0.0051214,0.0722477,-0.0175271,-0.049
 7522,-0.0051765,0.1412138,0.0080186,0.0007751,0.0646261,0.1306957,0.01
 3045,-0.0750873,-0.0013063,-0.0742287,-0.1272099,0.0223724,0.0081089,0
 .0562931,0.0565803,-0.0188119,0.0326903,0.0699205,0.01572,0.0536388,0.
 0087876,0.0204192,-0.0510385,-0.117538,0.047418,-0.1015122,-0.0239796,
 -0.0194387,0.0279498,0.068922,-0.0960702,0.1136719,-0.0338193,0.372414
 9,-0.1672565,-0.1255459,-0.1812417,0.0820289,0.0612317,-0.2148767,0.07
 72771,0.2109822,0.0583242,-0.0528131,-0.0303593,-0.0265236,-0.0797379,
 0.0036915,-0.0475154,0.0207814,0.1077159,0.0344128,0.0382407,-0.057417
 9,0.0392757,-0.0532372,0.0541292,-0.0950335,0.0738333,0.0858934,-0.016
 8318,-0.0144991,-0.0771378,-0.0358798,0.0453997,-0.0161534,-0.1332672,
 -0.0318184,-0.0535101,-0.0174144,0.0015435,0.0726383,-0.1075657,0.0138
 991,-0.0139397,0.1537129,0.0144201,-0.0568114,-0.3092483,-0.1351679,0.
 0225525,-1.0908542,0.1250787,0.4084225,-0.1747983,0.1560734,-0.0903791
 ,0.0113153,-0.0195623,-0.069027,-0.0050893,0.0364092,-0.0312549,-0.051
 4586,-0.0186684,0.0008036,-0.4514922,0.1952894,0.1156433,1.1475325,-0.
 4095628,-0.38554,0.467981,-0.1967675,-0.2700174\Polar=109.6818328,-5.2
 967645,82.9970903,0.7302767,1.38084,63.8980196\Quadrupole=-3.049157,2.
 2494215,0.7997355,0.0069626,3.0799926,-0.3591909\PG=C01 [X(C6H9O2)]\NI
 mag=1\\0.51632470,0.02242375,0.45100364,0.02548727,0.01857019,0.556911
 79,-0.09667599,-0.03995665,-0.00737349,0.66547682,-0.03364874,-0.18856
 507,0.00115017,0.02227492,0.55814035,-0.00814383,0.00690962,-0.0763586
 2,0.26719903,-0.07079200,0.30509817,-0.01567908,-0.01633830,-0.0062272
 3,-0.38199478,-0.07184608,-0.15821495,0.60197022,-0.03072657,-0.007828
 85,-0.01031688,-0.09334133,-0.13957905,-0.03842090,0.12770805,0.659185
 63,-0.00106978,-0.00270439,0.00753794,-0.16052768,-0.02602301,-0.13447
 589,0.25134426,-0.03760999,0.28877146,0.00196300,0.00178480,0.00279106
 ,-0.03337086,0.01593290,-0.02858778,-0.10906342,0.05288098,-0.05474892
 ,0.36379414,-0.00078303,-0.00198501,-0.00097653,0.02284107,0.02231558,
 0.01456249,0.03251875,-0.18576266,0.04155188,0.02719055,0.64469993,0.0
 0551734,-0.00083196,-0.00448062,-0.02199647,0.00980509,-0.00892451,-0.
 06083656,0.06531301,-0.12434127,0.25768185,0.04619802,0.44262099,-0.02
 022198,-0.00278426,-0.01813887,0.00463456,0.00350806,0.00055044,0.0033
 6804,0.01892744,-0.00586493,-0.08662531,-0.08472667,-0.02876494,0.3040
 2449,0.01259167,0.00729334,0.01361246,-0.01022480,-0.00644978,-0.00507
 651,0.01621064,-0.03414047,0.01408900,-0.04141669,-0.32193091,-0.04571
 660,0.08073601,0.62888556,-0.00936894,0.00285907,-0.00215224,-0.002218
 50,-0.00146615,-0.00274150,0.00472021,0.01528159,0.01643483,-0.0302978
 9,-0.01209198,-0.09640361,0.14801850,-0.09765859,0.44073708,-0.1321444
 4,0.04878053,-0.00102599,0.01154624,-0.00139195,0.00015211,-0.00374470
 ,-0.00154283,0.00113489,-0.00237890,-0.00688159,-0.00291113,-0.1192545
 8,-0.02417565,-0.05496864,0.45918542,0.04911337,-0.12327311,-0.0034801
 2,0.02331107,-0.03045524,0.00441229,0.00077913,0.00388028,-0.00188903,
 -0.02575998,-0.00981615,-0.02288023,-0.01877472,-0.08762681,-0.0066174
 4,0.04406455,0.55074697,0.00303252,-0.00112846,-0.07724695,-0.00165458
 ,0.00570075,0.00078002,0.00207525,0.00050629,-0.00189003,-0.00868732,-
 0.01217405,-0.00564053,-0.04613318,-0.00791930,-0.11335843,-0.05133253
 ,-0.02099906,0.51943605,0.00968499,0.02488877,-0.00560076,-0.00483250,
 0.00250321,-0.00090439,0.00013549,0.00033860,0.00053769,-0.00346204,0.
 00192009,-0.00264305,-0.00873184,-0.02197615,0.00514889,-0.08364654,-0
 .08782410,0.02496077,0.09220979,-0.00775496,-0.01975434,0.00492280,0.0
 0464152,-0.00142113,0.00081817,-0.00004773,0.00044922,-0.00005599,-0.0
 0068531,0.00037589,-0.00075969,-0.00246871,-0.00572355,0.00159979,-0.0
 8698364,-0.25538158,0.05775895,0.09327513,0.27775775,0.00075749,-0.001
 33999,-0.00096263,-0.00005908,-0.00052847,0.00089144,-0.00016021,0.000
 21117,0.00032326,-0.00321157,0.00086200,-0.00248904,-0.01025784,-0.022
 36499,0.00325416,0.02588277,0.06090759,-0.06270114,-0.02430397,-0.0637
 4640,0.06807064,-0.01414542,0.00359298,0.02249812,0.00033319,-0.001307
 73,-0.00002758,0.00059689,0.00063690,-0.00077554,-0.00024629,0.0004507
 6,-0.00152507,0.00759919,-0.00228710,-0.02331399,-0.08335301,0.0063908
 6,0.08913920,-0.00513259,0.00069605,0.01114843,0.09967613,0.01179094,-
 0.00284312,-0.02122032,0.00066024,0.00192951,-0.00006739,-0.00103353,0
 .00016368,0.00024536,-0.00075850,-0.00054212,-0.00105580,0.00160284,-0
 .00016431,-0.00835730,0.00681172,-0.05159673,-0.01624471,-0.01171967,0
 .00295104,0.02740456,-0.01039266,0.05136340,0.00019754,0.00003766,0.00
 102178,-0.00013890,-0.00041217,-0.00014549,0.00060109,-0.00042952,0.00
 005902,-0.00089182,0.00182713,-0.00115905,-0.00016991,-0.00139129,-0.0
 1895190,0.09230093,-0.01760196,-0.25610682,0.00366959,0.00044024,-0.00
 763741,-0.09409598,0.02009307,0.28144200,-0.00103014,-0.00174816,-0.00
 330048,-0.00102441,-0.00212912,0.00031264,0.00680529,0.00032427,-0.001
 59208,0.00179681,0.00921443,0.00079025,-0.04029282,0.01159663,-0.04632
 418,-0.00323922,0.01359863,-0.01441832,0.00126584,0.00032432,0.0006399
 2,-0.00179543,0.00004999,-0.00114133,0.04819282,-0.00037976,-0.0000905
 4,-0.00063779,-0.00021990,0.00024646,-0.00026538,-0.00406471,-0.003932
 42,-0.00136345,0.00657101,-0.02113997,0.02616428,0.02013387,-0.1475470
 0,0.12840521,-0.00108570,0.00597897,-0.00748779,0.00015713,0.00113246,
 0.00001335,-0.00067731,-0.00026065,-0.00175788,-0.02391526,0.16404957,
 -0.00048274,-0.00068346,-0.00105971,0.00073694,0.00038134,-0.00006337,
 -0.00272675,-0.00139722,0.00063365,0.00282997,-0.01192909,0.00781569,-
 0.05262186,0.13939552,-0.19914495,0.00150196,0.00744618,-0.00983870,-0
 .00016673,-0.00028014,0.00110981,-0.00217894,-0.00051581,-0.00186990,0
 .04699577,-0.14037205,0.21378576,-0.00188372,0.00000930,-0.00076628,-0
 .00565145,-0.00348535,-0.00281339,0.00713933,-0.00530716,0.01188105,0.
 00807289,0.06570990,-0.00320490,0.01637954,-0.04904337,-0.03410223,-0.
 01957512,0.00125227,0.00096497,-0.00059437,0.00014074,0.00006968,-0.00
 030690,0.00097202,0.00300853,-0.00905697,0.00230538,0.00592768,0.00348
 565,-0.00020583,-0.00050916,-0.00004637,-0.00093003,0.00004638,-0.0015
 6122,-0.00013013,-0.00305424,0.00296069,0.01388339,-0.00133678,-0.0090
 0601,0.01922589,-0.03188880,-0.01311923,-0.00510353,0.00130130,0.00100
 283,-0.00048913,-0.00026786,-0.00007668,-0.00067659,0.00106660,-0.0002
 8682,-0.00943804,0.00187992,0.00858208,-0.00809642,0.08138320,-0.00044
 343,-0.00160416,-0.00092754,0.00313575,0.00237131,0.00161240,-0.005041
 17,0.00301943,-0.00676256,-0.00309166,-0.03980040,-0.00452976,-0.02050
 426,0.02774469,-0.00573082,-0.00855613,0.00291237,0.00230582,0.0002959
 2,-0.00038456,-0.00026633,-0.00237960,-0.00083261,-0.00230051,0.016522
 78,-0.00250577,-0.01319837,0.03141859,0.01286179,0.03728088,-0.0006253
 5,0.00025945,-0.00719733,-0.00709243,-0.02901690,-0.00049078,-0.080300
 02,-0.08890895,-0.00877361,0.00709885,0.01926548,0.00084833,-0.0004022
 3,0.00153345,-0.00310609,-0.00051303,-0.00009678,-0.00021452,0.0001480
 6,-0.00010200,0.00006177,0.00002821,-0.00000796,0.00002601,-0.00015179
 ,0.00110292,0.00017972,0.00015537,-0.00030634,-0.00017486,0.08281755,-
 0.00082638,0.00207462,0.00087726,-0.00101782,-0.00344084,0.00098562,-0
 .09017056,-0.30346510,0.00134504,-0.00761156,-0.01804412,-0.00168822,0
 .00147116,-0.00017770,0.00347024,0.00022720,0.00061178,0.00036563,-0.0
 0006008,0.00003456,-0.00001979,-0.00002276,-0.00003985,-0.00006366,0.0
 0024675,-0.00101780,-0.00043735,-0.00050536,0.00010879,0.00038523,0.09
 697972,0.32155390,-0.00594640,0.00215643,0.00776578,-0.00486037,-0.014
 80242,0.00453866,-0.01091923,0.00293280,-0.04570866,0.00688795,0.01372
 135,0.00314177,-0.00397269,0.00163372,-0.00002918,0.00072727,0.0003262
 3,-0.00020306,0.00000091,0.00006183,-0.00002193,0.00009188,-0.00004721
 ,0.00004477,-0.00009073,0.00026415,0.00028586,0.00104918,0.00071694,-0
 .00052261,0.01455359,-0.00350289,0.03530859,0.01051077,-0.00829761,0.0
 0378514,-0.13857472,0.10428426,-0.07110829,-0.01039187,0.02237738,-0.0
 1359669,-0.00181514,-0.00401310,-0.00662635,-0.00056066,-0.00055427,0.
 00056819,-0.00034051,-0.00235936,0.00020302,0.00058183,-0.00055988,-0.
 00016732,-0.00002474,0.00011358,-0.00002635,-0.00019031,0.00011455,0.0
 0016982,0.00040471,-0.00001981,-0.00024315,-0.00076578,0.00040578,0.00
 324644,0.14173732,0.01604321,-0.01484056,0.00976299,0.10994633,-0.1976
 0746,0.08883263,-0.00732767,0.00847636,-0.00385007,-0.00201089,0.00045
 639,0.00100760,-0.00054116,0.00065786,-0.00040098,-0.00415381,-0.00360
 857,0.00086931,0.00136164,-0.00104238,-0.00000521,0.00006481,-0.000003
 39,-0.00012491,0.00029321,0.00005838,-0.00002545,-0.00021181,-0.000046
 72,0.00010587,0.00092322,0.00091343,-0.00095920,-0.11417915,0.20593035
 ,-0.00253853,-0.00321222,0.00286360,-0.07011362,0.08812785,-0.09168252
 ,-0.01129706,0.01073668,-0.00054775,-0.00477308,0.00083482,0.00838479,
 0.00102180,0.00055279,-0.00102379,-0.00114399,0.00006840,0.00052168,-0
 .00012720,-0.00007656,0.00026616,0.00017851,-0.00023713,0.00003664,0.0
 0072461,-0.00004461,-0.00031860,-0.00064822,-0.00017156,0.00036078,0.0
 0340822,-0.00123961,-0.00483846,0.08411511,-0.09472280,0.08525540,-0.1
 2822073,-0.02358459,-0.11793803,-0.00939655,-0.00384477,-0.00895100,0.
 00139839,-0.00188912,0.00087133,0.00035654,0.00130562,-0.00014722,-0.0
 0134878,0.00351292,-0.00025333,-0.01578563,-0.00353358,-0.01860174,0.0
 0028728,0.00028018,0.00001795,0.00064597,-0.00092923,0.00025067,-0.000
 97096,-0.00027119,-0.00035746,-0.00053699,-0.00009070,-0.00009824,-0.0
 0061779,-0.00006797,-0.00002609,0.00075431,0.00017635,0.00065566,0.142
 27978,-0.02292924,-0.05369860,-0.03408940,-0.01970165,-0.00637073,-0.0
 2768577,-0.00089996,-0.00533422,0.00094926,0.00106135,-0.00167706,-0.0
 0019858,0.00161011,-0.00256883,0.00012919,0.01481658,0.00371168,0.0184
 7820,-0.00060260,0.00000232,0.00015514,-0.00073879,0.00134047,0.000003
 75,0.00079733,0.00017552,0.00043760,0.00056711,0.00014870,0.00001009,-
 0.00183242,0.00006825,0.00076640,0.00038027,0.00126582,0.00055008,0.02
 560060,0.06184513,-0.12014055,-0.03553292,-0.21273373,0.00250403,0.001
 88574,0.00221756,0.00037747,0.00008742,-0.00011081,0.00040865,0.000025
 04,0.00032215,0.00047115,-0.00009985,0.00142008,0.00152145,0.00010379,
 -0.00025477,-0.00026918,0.00032925,-0.00016436,0.00009392,0.00017534,0
 .00139916,0.00010342,0.00009552,0.00019451,0.00011327,-0.00008489,-0.0
 0036380,0.00009713,0.00010738,-0.00007361,-0.00015249,-0.00064730,0.00
 078319,0.12942619,0.03814497,0.23005116,-0.12835404,-0.00853648,0.1131
 9974,-0.01117975,-0.00769517,0.00864422,0.00250423,-0.00229248,0.00106
 334,-0.00052824,0.00079238,-0.00047818,0.00053706,-0.00059493,-0.00002
 685,-0.01367765,-0.00032312,0.02063712,0.00172518,-0.00058953,-0.00043
 532,-0.00310445,0.00347534,-0.00043878,-0.00044606,0.00016306,0.000158
 99,-0.00004177,-0.00003179,-0.00007316,0.00018870,-0.00016469,-0.00074
 248,-0.00060383,-0.00045567,0.00048235,0.01112542,0.00193581,-0.014129
 48,0.14147944,-0.01502116,-0.04651464,0.02190639,-0.02082741,-0.004781
 59,0.02363965,-0.00044168,-0.00171419,-0.00057426,0.00006225,-0.001198
 85,0.00232144,-0.00082075,0.00098418,-0.00022688,0.01359096,0.00023804
 ,-0.02040809,-0.00064700,0.00116303,-0.00026781,0.00447727,-0.00286196
 ,0.00039722,0.00047773,0.00004070,-0.00010828,-0.00019296,-0.00010433,
 0.00006244,0.00102009,-0.00045236,-0.00231666,0.00087075,-0.00087851,-
 0.00083867,0.00355770,0.00064088,-0.00455536,0.01431554,0.05493350,0.1
 1283280,0.01600385,-0.20040350,0.00049406,0.00361713,0.00168218,-0.002
 28456,-0.00009271,-0.00061698,0.00082525,-0.00135340,0.00030498,0.0013
 6464,0.00007034,0.00020795,-0.00075200,-0.00140294,0.00089158,0.000068
 57,-0.00073347,0.00066248,-0.00037144,-0.00009657,0.00172152,0.0000044
 6,0.00020123,0.00023767,-0.00048886,0.00020166,0.00033972,0.00018556,-
 0.00002982,-0.00031617,0.00044211,0.00057325,0.00002462,0.01514045,0.0
 0234888,-0.02296105,-0.12756090,-0.01924802,0.21835869,-0.00114319,-0.
 00078040,-0.00035298,0.00322187,0.00126265,0.00346329,-0.01128963,0.00
 355101,-0.00049876,0.01569797,-0.00336987,-0.01421862,0.00719869,-0.01
 954122,-0.00357948,-0.00091474,0.00014201,0.00191276,-0.00042393,0.000
 03010,-0.00024981,-0.00051506,0.00014446,-0.00002605,-0.00452334,0.000
 60007,0.00134053,-0.02293091,-0.03113293,0.01348183,0.00038185,0.00014
 585,-0.00050061,0.00044220,0.00000449,-0.00077418,-0.00027936,0.000414
 65,-0.00015029,0.00018203,-0.00016392,-0.00025939,0.04685470,-0.000233
 12,0.00125987,0.00049063,-0.00090799,0.00389387,-0.00292288,-0.0008757
 3,-0.00274744,0.00135112,0.01650966,0.01161584,-0.00422848,0.02475640,
 -0.01544111,-0.01403173,-0.00162694,-0.00154850,0.00164909,-0.00034050
 ,-0.00048003,-0.00043073,-0.00042608,-0.00003146,0.00003452,-0.0044497
 6,-0.00082529,0.00088022,-0.04588264,-0.04592981,0.01658811,-0.0004021
 1,0.00095143,-0.00000347,0.00006215,-0.00036191,-0.00078487,-0.0001810
 7,-0.00026014,-0.00002739,0.00033545,-0.00105312,0.00034469,0.02472961
 ,0.52205453,0.00034014,0.00084063,0.00083691,-0.00187408,0.00162400,-0
 .00207864,0.00073374,-0.00286438,0.00392983,-0.01160272,0.00560712,-0.
 00562522,0.00004106,0.00937310,0.00216703,-0.00003754,-0.00021933,-0.0
 0101149,0.00041591,-0.00019097,0.00009879,0.00028867,-0.00012942,0.000
 09634,0.00205281,-0.00062686,-0.00091306,0.01199268,0.00990277,0.00315
 611,-0.00002698,-0.00015295,0.00016621,0.00008876,-0.00030909,-0.00033
 658,0.00026943,-0.00047822,0.00005241,-0.00007391,-0.00044284,0.000201
 98,-0.01873121,0.08621685,0.04258198,0.00050772,0.00048168,0.00030100,
 0.00207658,0.00215705,-0.00106600,-0.00843266,-0.00388541,-0.01421245,
 -0.14216299,-0.05255307,-0.13834265,0.00246741,0.00031812,-0.00226833,
 0.00366542,-0.00048173,-0.00330053,0.00046089,-0.00000551,0.00024402,-
 0.00101028,-0.00027642,-0.00049022,-0.00215908,0.00120755,0.00152302,-
 0.00001853,-0.00081497,0.00018707,-0.00015785,0.00063033,0.00101147,-0
 .00082647,0.00004988,0.00044700,0.00005135,-0.00012024,-0.00004936,0.0
 0002251,-0.00009457,-0.00012247,-0.00276503,-0.00119944,0.00663471,0.1
 4901303,0.00005321,0.00002787,0.00040376,0.00155442,-0.00364535,0.0020
 6274,0.01360285,0.01018586,0.01814475,-0.04895424,-0.08183664,-0.06051
 246,-0.02071709,-0.00468940,-0.02336476,0.00186490,-0.00467202,0.00029
 407,-0.00091758,-0.00033081,-0.00093646,-0.00041411,-0.00024131,-0.000
 38951,0.00011470,0.00121913,0.00052838,0.00036611,0.00005095,-0.000194
 69,-0.00053359,0.00069296,-0.00057780,0.00154868,0.00003291,-0.0006609
 2,-0.00005951,0.00013097,0.00000564,-0.00000189,0.00010575,0.00000217,
 0.00022607,0.00041200,0.00014644,0.05220060,0.08301984,0.00034181,-0.0
 0043748,-0.00042799,-0.00186989,0.00294645,-0.00088400,-0.00736980,-0.
 00725879,-0.00447414,-0.13959172,-0.05849835,-0.20617909,-0.00518395,-
 0.00069199,-0.00028953,-0.00215576,-0.00025504,0.00488574,-0.00062957,
 0.00001600,-0.00059089,0.00093945,0.00025807,0.00039614,0.00299756,-0.
 00150773,-0.00040513,-0.00066252,0.00060909,0.00047568,0.00058883,-0.0
 0012882,0.00016200,-0.00075046,-0.00032521,-0.00000463,-0.00006375,0.0
 0005428,0.00003014,-0.00009932,0.00008416,0.00009077,0.00284365,0.0016
 2851,-0.00320368,0.15023447,0.06533134,0.21033429,0.00113292,-0.000194
 82,-0.00014090,0.00250419,0.00244274,-0.00001373,-0.00302173,0.0011492
 2,-0.00517211,-0.01912700,-0.02888170,0.01685737,-0.06877077,0.0433147
 6,0.05137267,0.00417100,0.00050149,0.00141712,0.00032447,-0.00019079,0
 .00002309,0.00075458,-0.00050315,-0.00263504,0.00681976,-0.00174169,-0
 .00282993,0.02495924,0.02435695,-0.02443628,-0.00019230,0.00034039,-0.
 00051011,-0.00033711,0.00001701,0.00038262,0.00025776,-0.00035890,-0.0
 0022532,0.00017123,-0.00016284,0.00048172,-0.02919413,-0.00986788,0.00
 948855,-0.00073200,0.00006647,0.00043097,0.08027988,0.00049264,-0.0017
 5633,-0.00092924,0.00189802,-0.00425591,0.00456884,0.00235664,0.005217
 63,-0.00656692,-0.00867973,-0.03419336,-0.00393141,-0.04113843,0.02052
 773,0.02558997,0.00278921,0.00150969,-0.00026366,0.00013223,0.00053540
 ,0.00016272,0.00063350,-0.00022980,-0.00037585,0.00464234,0.00003256,-
 0.00190247,0.04140224,-0.00284814,-0.02073915,0.00012275,-0.00037193,-
 0.00037021,-0.00017421,0.00059802,0.00111833,0.00001836,0.00057984,-0.
 00001237,-0.00033184,0.00145346,-0.00040625,0.02373738,-0.47150871,-0.
 10829686,0.00238615,-0.00046273,-0.00182451,-0.03028725,0.48517258,-0.
 00037272,0.00009760,-0.00018425,-0.00138314,-0.00358561,0.00053409,0.0
 0522551,0.00030199,0.00123811,0.01405973,0.01163394,-0.00281767,0.0401
 4483,-0.02555251,-0.02439516,-0.00033767,-0.00083169,-0.00056898,-0.00
 045338,0.00028074,0.00015699,0.00028995,0.00062787,0.00195373,-0.00427
 711,0.00142557,0.00274887,-0.02373923,-0.01248506,-0.01092908,0.000035
 02,-0.00027330,0.00030003,0.00005250,0.00021856,0.00025546,-0.00019481
 ,0.00042412,0.00019178,-0.00012738,0.00057558,-0.00042644,0.01629932,-
 0.08675421,-0.04011892,-0.00073075,-0.00028266,0.00008432,-0.04449067,
 0.11417904,0.07197712\\0.00000644,0.00000225,-0.00001299,0.00000099,-0
 .00000290,0.00001942,0.00000205,0.00000468,-0.00001869,-0.00002784,-0.
 00001332,0.00004616,0.00009420,-0.00002377,-0.00008837,-0.00000679,-0.
 00000453,-0.00000817,-0.00000840,0.00000549,0.00000732,-0.00000006,-0.
 00000646,0.00000275,0.00000899,0.00000029,0.00000104,-0.00003999,-0.00
 004038,0.00002559,0.00001243,-0.00000234,-0.00000921,-0.00000253,0.000
 00197,0.00000707,0.00000284,0.00000067,-0.00000297,-0.00000230,-0.0000
 0167,-0.00000403,0.00004218,0.00014234,0.00000111,0.00001395,0.0000078
 6,-0.00001418,-0.00009615,-0.00007017,0.00004815\\\@


    WHAT WE HAVE LEARNED
 IS LIKE A HANDFUL OF EARTH;
  WHAT WE HAVE YET TO LEARN
   IS LIKE THE WHOLE WORLD.

         -- AVVAYIAR
 Job cpu time:       0 days  0 hours  0 minutes 31.2 seconds.
 Elapsed time:       0 days  0 hours  6 minutes 18.1 seconds.
 File lengths (MBytes):  RWF=    346 Int=      0 D2E=      0 Chk=     16 Scr=      1
 Normal termination of Gaussian 16 at Thu May 12 20:43:15 2022.
