 Entering Gaussian System, Link 0=g16
 Initial command:
 /apps/chpc/chem/gaussian16/B01/g16/l1.exe "/mnt/lustre/users/lmoskaleva/Kgalaletso/4180432.sched01/Gau-135683.inp" -scrdir="/mnt/lustre/users/lmoskaleva/Kgalaletso/4180432.sched01/"
 Entering Link 1 = /apps/chpc/chem/gaussian16/B01/g16/l1.exe PID=    135686.
  
 Copyright (c) 1988-2017, Gaussian, Inc.  All Rights Reserved.
  
 This is part of the Gaussian(R) 16 program.  It is based on
 the Gaussian(R) 09 system (copyright 2009, Gaussian, Inc.),
 the Gaussian(R) 03 system (copyright 2003, Gaussian, Inc.),
 the Gaussian(R) 98 system (copyright 1998, Gaussian, Inc.),
 the Gaussian(R) 94 system (copyright 1995, Gaussian, Inc.),
 the Gaussian 92(TM) system (copyright 1992, Gaussian, Inc.),
 the Gaussian 90(TM) system (copyright 1990, Gaussian, Inc.),
 the Gaussian 88(TM) system (copyright 1988, Gaussian, Inc.),
 the Gaussian 86(TM) system (copyright 1986, Carnegie Mellon
 University), and the Gaussian 82(TM) system (copyright 1983,
 Carnegie Mellon University). Gaussian is a federally registered
 trademark of Gaussian, Inc.
  
 This software contains proprietary and confidential information,
 including trade secrets, belonging to Gaussian, Inc.
  
 This software is provided under written license and may be
 used, copied, transmitted, or stored only in accord with that
 written license.
  
 The following legend is applicable only to US Government
 contracts under FAR:
  
                    RESTRICTED RIGHTS LEGEND
  
 Use, reproduction and disclosure by the US Government is
 subject to restrictions as set forth in subparagraphs (a)
 and (c) of the Commercial Computer Software - Restricted
 Rights clause in FAR 52.227-19.
  
 Gaussian, Inc.
 340 Quinnipiac St., Bldg. 40, Wallingford CT 06492
  
  
 ---------------------------------------------------------------
 Warning -- This program may not be used in any manner that
 competes with the business of Gaussian, Inc. or will provide
 assistance to any competitor of Gaussian, Inc.  The licensee
 of this program is prohibited from giving any competitor of
 Gaussian, Inc. access to this program.  By using this program,
 the user acknowledges that Gaussian, Inc. is engaged in the
 business of creating and licensing software in the field of
 computational chemistry and represents and warrants to the
 licensee that it is not a competitor of Gaussian, Inc. and that
 it will not use this program in any manner prohibited above.
 ---------------------------------------------------------------
  

 Cite this work as:
 Gaussian 16, Revision B.01,
 M. J. Frisch, G. W. Trucks, H. B. Schlegel, G. E. Scuseria, 
 M. A. Robb, J. R. Cheeseman, G. Scalmani, V. Barone, 
 G. A. Petersson, H. Nakatsuji, X. Li, M. Caricato, A. V. Marenich, 
 J. Bloino, B. G. Janesko, R. Gomperts, B. Mennucci, H. P. Hratchian, 
 J. V. Ortiz, A. F. Izmaylov, J. L. Sonnenberg, D. Williams-Young, 
 F. Ding, F. Lipparini, F. Egidi, J. Goings, B. Peng, A. Petrone, 
 T. Henderson, D. Ranasinghe, V. G. Zakrzewski, J. Gao, N. Rega, 
 G. Zheng, W. Liang, M. Hada, M. Ehara, K. Toyota, R. Fukuda, 
 J. Hasegawa, M. Ishida, T. Nakajima, Y. Honda, O. Kitao, H. Nakai, 
 T. Vreven, K. Throssell, J. A. Montgomery, Jr., J. E. Peralta, 
 F. Ogliaro, M. J. Bearpark, J. J. Heyd, E. N. Brothers, K. N. Kudin, 
 V. N. Staroverov, T. A. Keith, R. Kobayashi, J. Normand, 
 K. Raghavachari, A. P. Rendell, J. C. Burant, S. S. Iyengar, 
 J. Tomasi, M. Cossi, J. M. Millam, M. Klene, C. Adamo, R. Cammi, 
 J. W. Ochterski, R. L. Martin, K. Morokuma, O. Farkas, 
 J. B. Foresman, and D. J. Fox, Gaussian, Inc., Wallingford CT, 2016.
 
 ******************************************
 Gaussian 16:  ES64L-G16RevB.01 20-Dec-2017
                12-May-2022 
 ******************************************
 %nprocshared=24
 Will use up to   24 processors via shared memory.
 %lindaworkers=cnode0087.cm.cluster,cnode0090.cm.cluster,cnode0103.cm.cluster
 %mem=20GB
 %chk=QOOH-1-cyclohexenyl-OOH-Elim-QST2-b3lyp-c.chk
 SetLPE:    new flags="-opt 'Tsnet.Node.lindarsharg: ssh'  -nodelist 'cnode0087.cm.cluster cnode0090.cm.cluster cnode0103.cm.cluster' -env GAUSS_MDEF=2684354560 -env GAUSS_EXEDIR="/apps/chpc/chem/gaussian16/B01/g16/bsd:/apps/chpc/chem/gaussian16/B01/g16""
 Will use up to    3 processors via Linda.
 ----------------------------------------------------------------------
 # opt=(calcfc,qst2,modredundant) freq ub3lyp cc-pvtz+d int=grid=ultraf
 ine
 ----------------------------------------------------------------------
 1/5=1,10=4,18=120,26=4,27=202,38=1/1,3;
 2/9=110,12=2,17=6,18=5,40=1/2;
 3/5=16,6=1,7=9,11=2,25=1,30=1,71=2,74=-5,75=-5,116=2,140=1/1,2,3;
 4//1;
 5/5=2,38=5/2;
 8/6=4,10=90,11=11/1;
 11/6=1,8=1,9=11,15=111,16=1/1,2,10;
 10/6=1,13=1/2;
 6/7=2,8=2,9=2,10=2,28=1/1;
 7/10=1,18=20,25=1/1,2,3,16;
 1/5=1,10=4,18=20,26=4,27=202/3(2);
 2/9=110/2;
 99//99;
 2/9=110/2;
 3/5=16,6=1,7=9,11=2,25=1,30=1,71=1,74=-5,75=-5,116=2/1,2,3;
 4/5=5,16=3,69=1/1;
 5/5=2,38=5/2;
 7//1,2,3,16;
 1/5=1,18=20,26=4,27=202/3(-5);
 2/9=110/2;
 6/7=2,8=2,9=2,10=2,19=2,28=1/1;
 99/9=1/99;
 -----------------------------------------
 QOOH-1-cyclohexenyl-OOH-Elim-QST2-b3lyp-c
 -----------------------------------------
 Symbolic Z-matrix:
 Charge =  0 Multiplicity = 2
 C                    -2.26882  -0.2709   -0.0989 
 C                    -1.68202   1.11065  -0.08725 
 C                    -0.40194   1.37209   0.16029 
 C                     0.60367   0.3111    0.50023 
 C                     0.02102  -1.05453   0.54222 
 C                    -1.19013  -1.35465  -0.26766 
 H                    -1.59195  -2.33911  -0.02609 
 H                    -0.91335  -1.38787  -1.33292 
 H                     0.58812  -1.84896   1.00672 
 H                     2.84729  -1.00178  -0.61971 
 H                    -0.03167   2.38908   0.14363 
 H                    -2.35997   1.93493  -0.27953 
 H                    -3.00905  -0.35064  -0.89849 
 H                    -2.81896  -0.43513   0.8345 
 O                     1.6305    0.44149  -0.5384 
 H                     1.10313   0.55532   1.44204 
 O                     2.83146  -0.2163   -0.05706 
 
 The following ModRedundant input section has been read:
 B       4      15 B                                                           
 
 -------------------
 Title Card Required
 -------------------
 Symbolic Z-matrix:
 Charge =  0 Multiplicity = 2
 C                    -2.36136  -0.17672  -0.42471 
 C                    -1.69126   1.17238  -0.45396 
 C                    -0.57256   1.39413   0.24261 
 C                     0.03292   0.32062   1.03175 
 C                    -0.32759  -0.95691   0.84049 
 C                    -1.3524   -1.31239  -0.2083 
 H                    -1.87209  -2.23219   0.06201 
 H                    -0.83334  -1.52753  -1.15211 
 H                     0.12424  -1.75182   1.4215 
 H                     1.6842   -0.59809  -0.22931 
 H                    -0.11011   2.37187   0.25835 
 H                    -2.16592   1.97536  -1.00376 
 H                    -2.92381  -0.3481   -1.34331 
 H                    -3.10148  -0.17708   0.38685 
 O                     3.1845    0.46729  -0.1317 
 H                     0.78631   0.57959   1.76483 
 O                     2.57119  -0.58463  -0.65985 
 
 Add virtual bond connecting atoms H10        and C4         Dist= 4.29D+00.
 Add virtual bond connecting atoms H10        and C5         Dist= 4.36D+00.
 The following ModRedundant input section has been read:
 B       4      15 B                                                           
 
 Iteration  1 RMS(Cart)=  0.06395520 RMS(Int)=  0.71079276
 Iteration  2 RMS(Cart)=  0.04018902 RMS(Int)=  0.69309787
 Iteration  3 RMS(Cart)=  0.03555916 RMS(Int)=  0.68334562
 Iteration  4 RMS(Cart)=  0.03465133 RMS(Int)=  0.67948505
 Iteration  5 RMS(Cart)=  0.03262925 RMS(Int)=  0.67885179
 Iteration  6 RMS(Cart)=  0.02718229 RMS(Int)=  0.67974522
 Iteration  7 RMS(Cart)=  0.02361116 RMS(Int)=  0.68116104
 Iteration  8 RMS(Cart)=  0.01717995 RMS(Int)=  0.68256689
 Iteration  9 RMS(Cart)=  0.00365888 RMS(Int)=  0.68347306
 Iteration 10 RMS(Cart)=  0.00197838 RMS(Int)=  0.68402695
 Iteration 11 RMS(Cart)=  0.00114771 RMS(Int)=  0.68436538
 Iteration 12 RMS(Cart)=  0.00066999 RMS(Int)=  0.68457126
 Iteration 13 RMS(Cart)=  0.00039215 RMS(Int)=  0.68469579
 Iteration 14 RMS(Cart)=  0.00022974 RMS(Int)=  0.68477075
 Iteration 15 RMS(Cart)=  0.00013465 RMS(Int)=  0.68481570
 Iteration 16 RMS(Cart)=  0.00007893 RMS(Int)=  0.68484258
 Iteration 17 RMS(Cart)=  0.00004628 RMS(Int)=  0.68485861
 Iteration 18 RMS(Cart)=  0.00002714 RMS(Int)=  0.68486815
 Iteration 19 RMS(Cart)=  0.00001592 RMS(Int)=  0.68487383
 Iteration 20 RMS(Cart)=  0.00000934 RMS(Int)=  0.68487719
 Iteration 21 RMS(Cart)=  0.00000548 RMS(Int)=  0.68487919
 Iteration 22 RMS(Cart)=  0.00000322 RMS(Int)=  0.68488037
 Iteration 23 RMS(Cart)=  0.00000189 RMS(Int)=  0.68488106
 Iteration 24 RMS(Cart)=  0.00000111 RMS(Int)=  0.68488148
 Iteration 25 RMS(Cart)=  0.00000065 RMS(Int)=  0.68488172
 Iteration  1 RMS(Cart)=  0.00000038 RMS(Int)=  0.68488186
 Iteration  1 RMS(Cart)=  0.00000022 RMS(Int)=  0.68488195
 Iteration  1 RMS(Cart)=  0.00000013 RMS(Int)=  0.68488200
 Iteration  1 RMS(Cart)=  0.00000008 RMS(Int)=  0.68488203
 Iteration  1 RMS(Cart)=  0.00000005 RMS(Int)=  0.68488205
 Iteration  1 RMS(Cart)=  0.00000003 RMS(Int)=  0.68488206
 Iteration  1 RMS(Cart)=  0.00000002 RMS(Int)=  0.68488206
 Iteration  1 RMS(Cart)=  0.00000001 RMS(Int)=  0.68488207
 Iteration  1 RMS(Cart)=  0.00000001 RMS(Int)=  0.68488207
   Var     Old X     New X   DQ Goal   DQ Act.  Rel. Err.   Overall
     1    2.8366    2.8609    0.0053    0.0243
     2    2.9071    2.9278   -0.0037    0.0207
     3    2.0646    2.0628   -0.0018   -0.0018
     4    2.0708    2.0732    0.0024    0.0024
     5    2.5129    2.5237    0.0063    0.0109
     6    2.0493    2.0477   -0.0016   -0.0016
     7    2.8362    2.7854   -0.0353   -0.0508    1.4395
     8    2.0455    2.0439   -0.0007   -0.0016
     9    2.8069    2.6494   -0.1362   -0.1574    1.1556
    10    5.3489    4.8740   -0.5279   -0.4749    0.8996
    11    2.7710    4.5803    1.7918    1.8093    1.0098
    12    2.0667    2.0563   -0.0104   -0.0104    1.0000
    13    2.8111    2.8194    0.0201    0.0083    0.4153
    14    2.0427    2.0450    0.0022    0.0022
    15    5.7755    5.0505   -0.7083   -0.7250    1.0236
    16    2.0606    2.0607    0.0001    0.0001
    17    2.0808    2.0783   -0.0026   -0.0026
    18    1.8261    1.7434    0.0186   -0.0827   -4.4398
    19    2.7428    2.5942   -0.1173   -0.1486    1.2666
    20    1.9553    2.0064   -0.0011    0.0510
    21    1.9153    1.9221    0.0085    0.0068
    22    1.9045    1.8663   -0.0070   -0.0382
    23    1.9213    1.9084   -0.0010   -0.0129
    24    1.9176    1.8993   -0.0007   -0.0183
    25    1.8466    1.8548    0.0013    0.0082
    26    2.1636    2.1254   -0.0284   -0.0382    1.3479
    27    2.0418    2.0440    0.0142    0.0021    0.1514
    28    2.0776    2.1047    0.0134    0.0272    2.0296
    29    2.1510    2.0776   -0.0250   -0.0734    2.9338
    30    2.1073    2.1299    0.0025    0.0226
    31    2.0247    2.0624    0.0224    0.0377    1.6839
    32    1.9753    2.1218    0.0657    0.1465    2.2288
    33    2.4487    2.2943   -0.2876   -0.1543    0.5366
    34    1.8193    1.7339   -0.0392   -0.0854    2.1766
    35    1.9211    1.8950    0.0738   -0.0261   -0.3540
    36    1.9568    2.0761   -0.0697    0.1193   -1.7118
    37    1.9392    2.0359    0.0843    0.0967    1.1476
    38    0.6533    0.7229   -0.0547    0.0696   -1.2731
    39    1.6532    1.6879   -0.0578    0.0347   -0.6002
    40    1.8445    1.4827   -0.3582   -0.3618    1.0100
    41    2.0823    2.0900    0.0096    0.0077
    42    2.0738    2.1645    0.0163    0.0907    5.5635
    43    2.1093    2.0286   -0.0171   -0.0807    4.7236
    44    2.1525    2.0804   -0.1350   -0.0720    0.5335
    45    1.2566    1.4326    0.1567    0.1761    1.1238
    46    1.9488    1.9163    0.0007   -0.0325
    47    1.9319    1.9154   -0.0040   -0.0165
    48    1.8793    1.9285    0.0163    0.0492    3.0193
    49    1.9407    1.9619   -0.0061    0.0211
    50    1.9051    1.8950   -0.0030   -0.0101
    51    1.8543    1.8458   -0.0035   -0.0085
    52    0.9016    1.7890    0.8840    0.8874    1.0038
    53    1.6422    2.4418    0.8226    0.7996    0.9720
    54    2.0359    2.5984    0.5421    0.5625    1.0376
    55    1.8799    1.6874   -0.3227   -0.1925    0.5967
    56    1.7608    1.7355    0.0328   -0.0253   -0.7725
    57   -0.3365   -0.4684   -0.0924   -0.1319    1.4263
    58    2.8218    2.8167   -0.0697   -0.0051    0.0733
    59   -2.4763   -2.6331   -0.0965   -0.1568    1.6248
    60    0.6820    0.6519   -0.0738   -0.0301    0.4079
    61    1.7910    1.6419   -0.0988   -0.1491    1.5086
    62   -1.3339   -1.3562   -0.0761   -0.0223    0.2933
    63    0.7219    0.6989    0.0080   -0.0230
    64    2.8941    2.8636   -0.0023   -0.0305
    65   -1.3691   -1.3908    0.0006   -0.0217
    66    2.8582    2.8709    0.0175    0.0127    0.7251
    67   -1.2527   -1.2476    0.0071    0.0051
    68    0.7672    0.7811    0.0101    0.0140    1.3805
    69   -1.3981   -1.3932    0.0181    0.0049    0.2710
    70    0.7741    0.7714    0.0077   -0.0027
    71    2.7940    2.8002    0.0107    0.0062    0.5768
    72   -0.0336    0.1017    0.0249    0.1353    5.4317
    73    3.1287   -2.8629   -3.1126   -5.9916    1.9249
    74    3.0910    3.0949    0.0017    0.0040
    75   -0.0299    0.1303    0.0058    0.1602
    76   -0.0082   -0.0128    0.1372   -0.0046   -0.0338
    77    1.9074    1.7833   -0.1066   -0.1241    1.1639
    78    2.1225    2.3015    0.0575    0.1789    3.1094
    79   -2.1897   -2.4497   -0.3491   -0.2600    0.7449
    80    3.1136    2.9587   -3.0086   -0.1549    0.0515
    81   -1.2541   -1.5284   -0.1108   -0.2744    2.4772
    82   -1.0389   -1.0102    0.0534    0.0287    0.5367
    83    0.9321    0.5218   -0.3532   -0.4103    1.1616
    84    0.4585    0.3207   -0.2216   -0.1378    0.6218
    85   -2.8831   -2.8357    3.0098    0.0474    0.0158
    86   -1.5933   -1.8416   -0.1612   -0.2483    1.5404
    87    1.3483    1.2852   -0.0714   -0.0631    0.8835
    88    2.6302    2.7049   -2.8720    0.0747   -0.0260
    89   -0.7114   -0.4515    0.3594    0.2599    0.7231
    90    1.6179    1.4078   -0.1863   -0.2102    1.1281
    91    1.2705    0.5764   -0.7106   -0.6940    0.9766
    92   -0.6455   -0.7238   -0.0961   -0.0783    0.8148
    93    2.8168   -2.9141   -2.3195   -5.7310    2.4708
    94   -1.3235   -0.5717    0.8439    0.7518    0.8909
    95   -0.5511   -0.3683    0.3024    0.1828    0.6043
    96    0.7916    1.4835    0.8132    0.6920    0.8509
    97   -0.8246   -0.6460    0.1527    0.1785    1.1695
    98   -2.9919   -2.7834    0.1618    0.2085    1.2882
    99    1.2512    1.4640    0.1714    0.2128    1.2418
   100    2.5212    2.5092    0.0606   -0.0120   -0.1979
   101    0.3539    0.3719    0.0698    0.0179    0.2573
   102   -1.6862   -1.6639    0.0793    0.0223    0.2810
   103   -2.2293   -2.1035    0.1685    0.1258    0.7465
   104    1.8866    2.0423    0.1777    0.1557    0.8765
   105   -0.1536    0.0065    0.1872    0.1601    0.8550
   106    0.9159    1.4393    0.7539    0.5234    0.6943
   107    3.0544   -2.7594   -2.4124   -5.8138    2.4100
   108   -0.6401   -0.7015    0.4226   -0.0614   -0.1452
   109    1.8907    0.7410   -0.9785   -1.1497    1.1749

 GradGradGradGradGradGradGradGradGradGradGradGradGradGradGradGradGradGrad
 Berny optimization.
 Initialization pass.
                           ----------------------------
                           !    Initial Parameters    !
                           ! (Angstroms and Degrees)  !
 --------------------------                            --------------------------
 ! Name  Definition         TS        Reactant Product Derivative Info.         !
 --------------------------------------------------------------------------------
 ! R1    R(1,2)             1.5139    1.5011    1.5066 calculate D2E/DX2 analyti!
 ! R2    R(1,6)             1.5493    1.5384    1.5345 calculate D2E/DX2 analyti!
 ! R3    R(1,13)            1.0916    1.0925    1.0907 calculate D2E/DX2 analyti!
 ! R4    R(1,14)            1.0971    1.0958    1.0984 calculate D2E/DX2 analyti!
 ! R5    R(2,3)             1.3355    1.3297    1.3364 calculate D2E/DX2 analyti!
 ! R6    R(2,12)            1.0836    1.0844    1.0828 calculate D2E/DX2 analyti!
 ! R7    R(3,4)             1.4739    1.5008    1.4635 calculate D2E/DX2 analyti!
 ! R8    R(3,11)            1.0816    1.0824    1.0817 calculate D2E/DX2 analyti!
 ! R9    R(4,5)             1.402     1.4853    1.3411 calculate D2E/DX2 analyti!
 ! R10   R(4,10)            2.5792    2.8305    2.2718 calculate D2E/DX2 analyti!
 ! R11   R(4,15)            2.4238    1.4663    3.3627 calculate D2E/DX2 analyti!
 ! R12   R(4,16)            1.0881    1.0937    1.0826 calculate D2E/DX2 analyti!
 ! R13   R(5,6)             1.492     1.4876    1.5088 calculate D2E/DX2 analyti!
 ! R14   R(5,9)             1.0821    1.081     1.0833 calculate D2E/DX2 analyti!
 ! R15   R(5,10)            2.6726    3.0563    2.3066 calculate D2E/DX2 analyti!
 ! R16   R(6,7)             1.0905    1.0904    1.0905 calculate D2E/DX2 analyti!
 ! R17   R(6,8)             1.0998    1.1011    1.0984 calculate D2E/DX2 analyti!
 ! R18   R(10,17)           0.9226    0.9663    0.9861 calculate D2E/DX2 analyti!
 ! R19   R(15,17)           1.3728    1.4514    1.3273 calculate D2E/DX2 analyti!
 ! A1    A(2,1,6)         114.9561  112.0327  111.9011 calculate D2E/DX2 analyti!
 ! A2    A(2,1,13)        110.1263  109.7374  110.7148 calculate D2E/DX2 analyti!
 ! A3    A(2,1,14)        106.9335  109.122   108.3208 calculate D2E/DX2 analyti!
 ! A4    A(6,1,13)        109.343   110.0828  109.9729 calculate D2E/DX2 analyti!
 ! A5    A(6,1,14)        108.8241  109.8701  109.7926 calculate D2E/DX2 analyti!
 ! A6    A(13,1,14)       106.2727  105.801   105.9486 calculate D2E/DX2 analyti!
 ! A7    A(1,2,3)         121.7766  123.9673  120.7168 calculate D2E/DX2 analyti!
 ! A8    A(1,2,12)        117.1123  116.9891  118.6164 calculate D2E/DX2 analyti!
 ! A9    A(3,2,12)        120.5927  119.0368  120.57   calculate D2E/DX2 analyti!
 ! A10   A(2,3,4)         119.0382  123.2424  120.3764 calculate D2E/DX2 analyti!
 ! A11   A(2,3,11)        122.037   120.7406  121.028  calculate D2E/DX2 analyti!
 ! A12   A(4,3,11)        118.1696  116.0072  118.5755 calculate D2E/DX2 analyti!
 ! A13   A(3,4,5)         121.5678  113.1745  120.7062 calculate D2E/DX2 analyti!
 ! A14   A(3,4,10)        131.4563  140.2991  107.3399 calculate D2E/DX2 analyti!
 ! A15   A(3,4,15)         99.3438  104.2358   99.7408 calculate D2E/DX2 analyti!
 ! A16   A(3,4,16)        108.5743  110.071   118.5265 calculate D2E/DX2 analyti!
 ! A17   A(5,4,15)        118.9499  112.1156  104.1308 calculate D2E/DX2 analyti!
 ! A18   A(5,4,16)        116.6476  111.1067  120.7634 calculate D2E/DX2 analyti!
 ! A19   A(10,4,15)        41.4172   37.4308   31.1682 calculate D2E/DX2 analyti!
 ! A20   A(10,4,16)        96.7091   94.7211   88.0969 calculate D2E/DX2 analyti!
 ! A21   A(15,4,16)        84.9538  105.6823   64.6363 calculate D2E/DX2 analyti!
 ! A22   A(4,5,6)         119.7463  119.3065  120.4065 calculate D2E/DX2 analyti!
 ! A23   A(4,5,9)         124.0186  118.8193  120.6884 calculate D2E/DX2 analyti!
 ! A24   A(6,5,9)         116.23    120.852   118.895  calculate D2E/DX2 analyti!
 ! A25   A(6,5,10)        119.2007  123.3268  107.858  calculate D2E/DX2 analyti!
 ! A26   A(9,5,10)         82.0835   71.995    89.9499 calculate D2E/DX2 analyti!
 ! A27   A(1,6,5)         109.7931  111.6565  111.7325 calculate D2E/DX2 analyti!
 ! A28   A(1,6,7)         109.7436  110.6912  110.2342 calculate D2E/DX2 analyti!
 ! A29   A(1,6,8)         110.4932  107.6767  109.5424 calculate D2E/DX2 analyti!
 ! A30   A(5,6,7)         112.4061  111.1964  110.4941 calculate D2E/DX2 analyti!
 ! A31   A(5,6,8)         108.5779  109.1554  108.8112 calculate D2E/DX2 analyti!
 ! A32   A(7,6,8)         105.7554  106.2428  105.8416 calculate D2E/DX2 analyti!
 ! A33   A(4,10,17)       102.5006   51.6558  152.9601 calculate D2E/DX2 analyti!
 ! A34   L(5,10,17,11,-1)  139.9068   94.0923  188.361 calculate D2E/DX2 analyti!
 ! A35   L(5,10,17,11,-2)  148.8747  116.648  178.7676 calculate D2E/DX2 analyti!
 ! A36   A(4,15,17)        96.68    107.7116   70.7333 calculate D2E/DX2 analyti!
 ! A37   A(10,17,15)       99.4348  100.885   104.6395 calculate D2E/DX2 analyti!
 ! D1    D(6,1,2,3)       -26.835   -19.2804  -29.874  calculate D2E/DX2 analyti!
 ! D2    D(6,1,2,12)      161.3823  161.6754  153.6847 calculate D2E/DX2 analyti!
 ! D3    D(13,1,2,3)     -150.8658 -141.879  -152.9409 calculate D2E/DX2 analyti!
 ! D4    D(13,1,2,12)      37.3515   39.0767   30.6177 calculate D2E/DX2 analyti!
 ! D5    D(14,1,2,3)       94.0764  102.6164   91.2948 calculate D2E/DX2 analyti!
 ! D6    D(14,1,2,12)     -77.7063  -76.4279  -85.1466 calculate D2E/DX2 analyti!
 ! D7    D(2,1,6,5)        40.0461   41.3613   42.2803 calculate D2E/DX2 analyti!
 ! D8    D(2,1,6,7)       164.0721  165.8205  165.5525 calculate D2E/DX2 analyti!
 ! D9    D(2,1,6,8)       -79.6884  -78.4464  -78.372  calculate D2E/DX2 analyti!
 ! D10   D(13,1,6,5)      164.4898  163.7636  165.7664 calculate D2E/DX2 analyti!
 ! D11   D(13,1,6,7)      -71.4842  -71.7772  -70.9613 calculate D2E/DX2 analyti!
 ! D12   D(13,1,6,8)       44.7553   43.9558   45.1141 calculate D2E/DX2 analyti!
 ! D13   D(14,1,6,5)      -79.8254  -80.1062  -78.0335 calculate D2E/DX2 analyti!
 ! D14   D(14,1,6,7)       44.2007   44.3529   45.2387 calculate D2E/DX2 analyti!
 ! D15   D(14,1,6,8)      160.4402  160.086   161.3142 calculate D2E/DX2 analyti!
 ! D16   D(1,2,3,4)         5.826    -1.9271    0.9276 calculate D2E/DX2 analyti!
 ! D17   D(1,2,3,11)     -164.0337  179.2614 -177.4205 calculate D2E/DX2 analyti!
 ! D18   D(12,2,3,4)      177.3268  177.0988  177.2993 calculate D2E/DX2 analyti!
 ! D19   D(12,2,3,11)       7.4672   -1.7126   -1.0489 calculate D2E/DX2 analyti!
 ! D20   D(2,3,4,5)        -0.7326   -0.467    15.2496 calculate D2E/DX2 analyti!
 ! D21   D(2,3,4,10)      102.1741  109.2839   97.067  calculate D2E/DX2 analyti!
 ! D22   D(2,3,4,15)      131.8654  121.6127  128.2074 calculate D2E/DX2 analyti!
 ! D23   D(2,3,4,16)     -140.3553 -125.458  -165.4567 calculate D2E/DX2 analyti!
 ! D24   D(11,3,4,5)      169.5203  178.3964 -166.3622 calculate D2E/DX2 analyti!
 ! D25   D(11,3,4,10)     -87.5729  -71.8527  -84.5448 calculate D2E/DX2 analyti!
 ! D26   D(11,3,4,15)     -57.8817  -59.5239  -53.4044 calculate D2E/DX2 analyti!
 ! D27   D(11,3,4,16)      29.8976   53.4054   12.9314 calculate D2E/DX2 analyti!
 ! D28   D(3,4,5,6)        18.3764   26.272     0.8744 calculate D2E/DX2 analyti!
 ! D29   D(3,4,5,9)      -162.4711 -165.1889  179.7049 calculate D2E/DX2 analyti!
 ! D30   D(15,4,5,6)     -105.5169  -91.2894 -109.7621 calculate D2E/DX2 analyti!
 ! D31   D(15,4,5,9)       73.6355   77.2496   69.0684 calculate D2E/DX2 analyti!
 ! D32   D(16,4,5,6)      154.9791  150.7014 -178.4034 calculate D2E/DX2 analyti!
 ! D33   D(16,4,5,9)      -25.8684  -40.7596    0.4271 calculate D2E/DX2 analyti!
 ! D34   D(3,4,10,17)      80.6586   92.6996   71.3524 calculate D2E/DX2 analyti!
 ! D35   D(15,4,10,17)     33.028    72.7915   -8.6429 calculate D2E/DX2 analyti!
 ! D36   D(16,4,10,17)    -41.4727  -36.9842  -48.0016 calculate D2E/DX2 analyti!
 ! D37   D(3,4,15,17)    -166.9677  161.393  -104.4044 calculate D2E/DX2 analyti!
 ! D38   D(5,4,15,17)     -32.7548  -75.8319   20.8699 calculate D2E/DX2 analyti!
 ! D39   D(10,4,15,17)    -21.1036  -31.5748    3.082  calculate D2E/DX2 analyti!
 ! D40   D(16,4,15,17)     85.0006   45.3545  138.5396 calculate D2E/DX2 analyti!
 ! D41   D(4,5,6,1)       -37.0159  -47.2456  -29.7514 calculate D2E/DX2 analyti!
 ! D42   D(4,5,6,7)      -159.4764 -171.4215 -152.8763 calculate D2E/DX2 analyti!
 ! D43   D(4,5,6,8)        83.8809   71.6872   91.3264 calculate D2E/DX2 analyti!
 ! D44   D(9,5,6,1)       143.7672  144.4542  151.3973 calculate D2E/DX2 analyti!
 ! D45   D(9,5,6,7)        21.3067   20.2783   28.2724 calculate D2E/DX2 analyti!
 ! D46   D(9,5,6,8)       -95.336   -96.6129  -87.5249 calculate D2E/DX2 analyti!
 ! D47   D(10,5,6,1)     -120.5234 -127.7308 -108.4212 calculate D2E/DX2 analyti!
 ! D48   D(10,5,6,7)      117.0161  108.0933  128.454  calculate D2E/DX2 analyti!
 ! D49   D(10,5,6,8)        0.3734   -8.7979   12.6566 calculate D2E/DX2 analyti!
 ! D50   D(6,5,17,15)      82.4678   52.4777  138.8628 calculate D2E/DX2 analyti!
 ! D51   D(9,5,17,15)    -158.1046  175.0041 -101.4385 calculate D2E/DX2 analyti!
 ! D52   D(4,10,17,15)    -40.1916  -36.6764   11.751  calculate D2E/DX2 analyti!
 ! D53   D(4,15,17,10)     42.456   108.3279   -3.7993 calculate D2E/DX2 analyti!
 --------------------------------------------------------------------------------
 Trust Radius=3.00D-01 FncErr=1.00D-07 GrdErr=1.00D-06 EigMax=2.50D+02 EigMin=1.00D-04
 Number of steps in this run=    102 maximum allowed number of steps=    102.
 Search for a saddle point of order  1.
 GradGradGradGradGradGradGradGradGradGradGradGradGradGradGradGradGradGrad

                          Input orientation:                          
 ---------------------------------------------------------------------
 Center     Atomic      Atomic             Coordinates (Angstroms)
 Number     Number       Type             X           Y           Z
 ---------------------------------------------------------------------
      1          6           0       -2.257476   -0.283814   -0.147387
      2          6           0       -1.682905    1.116437   -0.181602
      3          6           0       -0.441782    1.377765    0.236588
      4          6           0        0.434042    0.256829    0.622544
      5          6           0       -0.010489   -1.071989    0.574956
      6          6           0       -1.210700   -1.422360   -0.239126
      7          1           0       -1.663104   -2.364615    0.071635
      8          1           0       -0.895183   -1.572190   -1.281953
      9          1           0        0.473787   -1.891210    1.090121
     10          1           0        2.372896   -0.902211   -0.622323
     11          1           0       -0.109740    2.383744    0.454800
     12          1           0       -2.362327    1.923079   -0.430415
     13          1           0       -2.995656   -0.406440   -0.942150
     14          1           0       -2.804872   -0.381577    0.798355
     15          8           0        2.427440    0.872011   -0.611427
     16          1           0        1.004408    0.549453    1.501814
     17          8           0        3.079009   -0.328101   -0.470827
 ---------------------------------------------------------------------
                    Distance matrix (angstroms):
                    1          2          3          4          5
     1  C    0.000000
     2  C    1.513938   0.000000
     3  C    2.490990   1.335500   0.000000
     4  C    2.851204   2.422198   1.473949   0.000000
     5  C    2.488363   2.856320   2.510338   1.402009   0.000000
     6  C    1.549336   2.582978   2.942488   2.503463   1.491977
     7  H    2.175082   3.490308   3.940082   3.401984   2.157627
     8  H    2.191574   3.009983   3.348698   2.956224   2.116837
     9  H    3.402197   3.913380   3.500426   2.198700   1.082147
    10  H    4.695564   4.551779   3.722691   2.579190   2.672606
    11  H    3.477251   2.118000   1.081602   2.201728   3.459245
    12  H    2.227437   1.083603   2.104936   3.421227   3.938572
    13  H    1.091602   2.149628   3.330928   3.827665   3.414057
    14  H    1.097099   2.112622   2.999176   3.305910   2.887066
    15  O    4.847650   4.139979   3.034361   2.423792   3.336186
    16  H    3.748878   3.221337   2.092453   1.088146   2.125595
    17  O    5.346462   4.984593   3.975724   2.921208   3.345450
                    6          7          8          9         10
     6  C    0.000000
     7  H    1.090453   0.000000
     8  H    1.099768   1.746380   0.000000
     9  H    2.196409   2.414069   2.757279   0.000000
    10  H    3.641367   4.348506   3.400636   2.741751   0.000000
    11  H    4.022446   5.010656   4.391202   4.361121   4.256897
    12  H    3.543275   4.373247   3.885169   4.990428   5.517375
    13  H    2.170807   2.576413   2.426196   4.286222   5.400873
    14  H    2.168174   2.400874   3.064662   3.621287   5.394318
    15  O    4.317268   5.260692   4.178941   3.787799   1.775094
    16  H    3.438840   4.201527   3.982358   2.531380   2.914111
    17  O    4.433136   5.189345   4.242627   3.415707   0.922578
                   11         12         13         14         15
    11  H    0.000000
    12  H    2.463731   0.000000
    13  H    4.250307   2.467718   0.000000
    14  H    3.876696   2.648992   1.751106   0.000000
    15  O    3.139978   4.907074   5.581557   5.562019   0.000000
    16  H    2.387926   4.117677   4.784057   3.984003   2.568045
    17  O    4.287075   5.888768   6.093426   6.019447   1.372800
                   16         17
    16  H    0.000000
    17  O    2.994225   0.000000
 Stoichiometry    C6H9O2(2)
 Framework group  C1[X(C6H9O2)]
 Deg. of freedom    45
 Full point group                 C1      NOp   1
 Largest Abelian subgroup         C1      NOp   1
 Largest concise Abelian subgroup C1      NOp   1
                         Standard orientation:                         
 ---------------------------------------------------------------------
 Center     Atomic      Atomic             Coordinates (Angstroms)
 Number     Number       Type             X           Y           Z
 ---------------------------------------------------------------------
      1          6           0       -2.358844   -0.161128   -0.264180
      2          6           0       -1.698152    1.200896   -0.244538
      3          6           0       -0.474826    1.381938    0.259702
      4          6           0        0.301848    0.206324    0.692407
      5          6           0       -0.219359   -1.091971    0.600738
      6          6           0       -1.380338   -1.361927   -0.296617
      7          1           0       -1.910105   -2.276187   -0.027244
      8          1           0       -1.004024   -1.524489   -1.317132
      9          1           0        0.177165   -1.942943    1.138937
     10          1           0        2.246291   -1.063091   -0.430067
     11          1           0       -0.097185    2.363939    0.510550
     12          1           0       -2.307996    2.049759   -0.530400
     13          1           0       -3.047052   -0.232619   -1.108486
     14          1           0       -2.974653   -0.230651    0.641122
     15          8           0        2.409103    0.704207   -0.396793
     16          1           0        0.827640    0.457376    1.611416
     17          8           0        2.974390   -0.534943   -0.224927
 ---------------------------------------------------------------------
 Rotational constants (GHZ):           3.6728834           1.1992575           0.9921519
 Standard basis: CC-pVTZ+d (5D, 7F)
 There are   415 symmetry adapted cartesian basis functions of A   symmetry.
 There are   366 symmetry adapted basis functions of A   symmetry.
   366 basis functions,   569 primitive gaussians,   415 cartesian basis functions
    31 alpha electrons       30 beta electrons
       nuclear repulsion energy       353.9453956500 Hartrees.
 NAtoms=   17 NActive=   17 NUniq=   17 SFac= 1.00D+00 NAtFMM=   60 NAOKFM=F Big=F
 Integral buffers will be    131072 words long.
 Raffenetti 2 integral format.
 Two-electron integral symmetry is turned on.
 One-electron integrals computed using PRISM.
 NBasis=   366 RedAO= T EigKep=  1.44D-04  NBF=   366
 NBsUse=   366 1.00D-06 EigRej= -1.00D+00 NBFU=   366
 ExpMin= 1.03D-01 ExpMax= 1.53D+04 ExpMxC= 5.22D+02 IAcc=3 IRadAn=         5 AccDes= 0.00D+00
 Harris functional with IExCor=  402 and IRadAn=       5 diagonalized for initial guess.
 HarFok:  IExCor=  402 AccDes= 0.00D+00 IRadAn=         5 IDoV= 1 UseB2=F ITyADJ=14
 ICtDFT=  3500011 ScaDFX=  1.000000  1.000000  1.000000  1.000000
 FoFCou: FMM=F IPFlag=           0 FMFlag=      100000 FMFlg1=           0
         NFxFlg=           0 DoJE=T BraDBF=F KetDBF=T FulRan=T
         wScrn=  0.000000 ICntrl=       500 IOpCl=  0 I1Cent=   200000004 NGrid=           0
         NMat0=    1 NMatS0=      1 NMatT0=    0 NMatD0=    1 NMtDS0=    0 NMtDT0=    0
 Petite list used in FoFCou.
 Initial guess <Sx>= 0.0000 <Sy>= 0.0000 <Sz>= 0.5000 <S**2>= 0.7500 S= 0.5000
 Requested convergence on RMS density matrix=1.00D-08 within 128 cycles.
 Requested convergence on MAX density matrix=1.00D-06.
 Requested convergence on             energy=1.00D-06.
 No special actions if energy rises.
 Integral accuracy reduced to 1.0D-05 until final iterations.
 Initial convergence to 1.0D-05 achieved.  Increase integral accuracy.
 SCF Done:  E(UB3LYP) =  -384.442528233     A.U. after   25 cycles
            NFock= 25  Conv=0.88D-08     -V/T= 2.0066
 <Sx>= 0.0000 <Sy>= 0.0000 <Sz>= 0.5000 <S**2>= 0.7567 S= 0.5033
 <L.S>= 0.000000000000E+00
 Annihilation of the first spin contaminant:
 S**2 before annihilation     0.7567,   after     0.7500
 DoSCS=F DFT=T ScalE2(SS,OS)=  1.000000  1.000000
 Range of M.O.s used for correlation:     1   366
 NBasis=   366 NAE=    31 NBE=    30 NFC=     0 NFV=     0
 NROrb=    366 NOA=    31 NOB=    30 NVA=   335 NVB=   336

 **** Warning!!: The largest alpha MO coefficient is  0.13523055D+02


 **** Warning!!: The largest beta MO coefficient is  0.13478609D+02


 **** Warning!!: The smallest beta delta epsilon is  0.89416720D-01

 Symmetrizing basis deriv contribution to polar:
 IMax=3 JMax=2 DiffMx= 0.00D+00
 G2DrvN: will do    18 centers at a time, making    1 passes.
 Calling FoFCou, ICntrl=  3107 FMM=F I1Cent=   0 AccDes= 0.00D+00.
 End of G2Drv F.D. properties file   721 does not exist.
 End of G2Drv F.D. properties file   722 does not exist.
 End of G2Drv F.D. properties file   788 does not exist.
          IDoAtm=11111111111111111
          Differentiating once with respect to nuclear coordinates.
 CalDSu exits because no D1Ps are significant.
          There are    54 degrees of freedom in the 1st order CPHF.  IDoFFX=6 NUNeed=     0.
     48 vectors produced by pass  0 Test12= 3.79D-14 1.85D-09 XBig12= 1.76D-01 1.68D-01.
 AX will form    48 AO Fock derivatives at one time.
     48 vectors produced by pass  1 Test12= 3.79D-14 1.85D-09 XBig12= 3.23D-02 3.48D-02.
     48 vectors produced by pass  2 Test12= 3.79D-14 1.85D-09 XBig12= 4.19D-04 4.42D-03.
     48 vectors produced by pass  3 Test12= 3.79D-14 1.85D-09 XBig12= 6.48D-06 6.04D-04.
     48 vectors produced by pass  4 Test12= 3.79D-14 1.85D-09 XBig12= 4.70D-08 2.34D-05.
     48 vectors produced by pass  5 Test12= 3.79D-14 1.85D-09 XBig12= 2.85D-10 1.40D-06.
     35 vectors produced by pass  6 Test12= 3.79D-14 1.85D-09 XBig12= 1.62D-12 1.37D-07.
     12 vectors produced by pass  7 Test12= 3.79D-14 1.85D-09 XBig12= 8.10D-15 6.89D-09.
 InvSVY:  IOpt=1 It=  1 EMax= 5.00D-16
 Solved reduced A of dimension   335 with    54 vectors.
 End of Minotr F.D. properties file   721 does not exist.
 End of Minotr F.D. properties file   722 does not exist.
 End of Minotr F.D. properties file   788 does not exist.

 **********************************************************************

            Population analysis using the SCF Density.

 **********************************************************************

 Orbital symmetries:
 Alpha Orbitals:
       Occupied  (A) (A) (A) (A) (A) (A) (A) (A) (A) (A) (A) (A)
                 (A) (A) (A) (A) (A) (A) (A) (A) (A) (A) (A) (A)
                 (A) (A) (A) (A) (A) (A) (A)
       Virtual   (A) (A) (A) (A) (A) (A) (A) (A) (A) (A) (A) (A)
                 (A) (A) (A) (A) (A) (A) (A) (A) (A) (A) (A) (A)
                 (A) (A) (A) (A) (A) (A) (A) (A) (A) (A) (A) (A)
                 (A) (A) (A) (A) (A) (A) (A) (A) (A) (A) (A) (A)
                 (A) (A) (A) (A) (A) (A) (A) (A) (A) (A) (A) (A)
                 (A) (A) (A) (A) (A) (A) (A) (A) (A) (A) (A) (A)
                 (A) (A) (A) (A) (A) (A) (A) (A) (A) (A) (A) (A)
                 (A) (A) (A) (A) (A) (A) (A) (A) (A) (A) (A) (A)
                 (A) (A) (A) (A) (A) (A) (A) (A) (A) (A) (A) (A)
                 (A) (A) (A) (A) (A) (A) (A) (A) (A) (A) (A) (A)
                 (A) (A) (A) (A) (A) (A) (A) (A) (A) (A) (A) (A)
                 (A) (A) (A) (A) (A) (A) (A) (A) (A) (A) (A) (A)
                 (A) (A) (A) (A) (A) (A) (A) (A) (A) (A) (A) (A)
                 (A) (A) (A) (A) (A) (A) (A) (A) (A) (A) (A) (A)
                 (A) (A) (A) (A) (A) (A) (A) (A) (A) (A) (A) (A)
                 (A) (A) (A) (A) (A) (A) (A) (A) (A) (A) (A) (A)
                 (A) (A) (A) (A) (A) (A) (A) (A) (A) (A) (A) (A)
                 (A) (A) (A) (A) (A) (A) (A) (A) (A) (A) (A) (A)
                 (A) (A) (A) (A) (A) (A) (A) (A) (A) (A) (A) (A)
                 (A) (A) (A) (A) (A) (A) (A) (A) (A) (A) (A) (A)
                 (A) (A) (A) (A) (A) (A) (A) (A) (A) (A) (A) (A)
                 (A) (A) (A) (A) (A) (A) (A) (A) (A) (A) (A) (A)
                 (A) (A) (A) (A) (A) (A) (A) (A) (A) (A) (A) (A)
                 (A) (A) (A) (A) (A) (A) (A) (A) (A) (A) (A) (A)
                 (A) (A) (A) (A) (A) (A) (A) (A) (A) (A) (A) (A)
                 (A) (A) (A) (A) (A) (A) (A) (A) (A) (A) (A) (A)
                 (A) (A) (A) (A) (A) (A) (A) (A) (A) (A) (A) (A)
                 (A) (A) (A) (A) (A) (A) (A) (A) (A) (A) (A)
 Beta  Orbitals:
       Occupied  (A) (A) (A) (A) (A) (A) (A) (A) (A) (A) (A) (A)
                 (A) (A) (A) (A) (A) (A) (A) (A) (A) (A) (A) (A)
                 (A) (A) (A) (A) (A) (A)
       Virtual   (A) (A) (A) (A) (A) (A) (A) (A) (A) (A) (A) (A)
                 (A) (A) (A) (A) (A) (A) (A) (A) (A) (A) (A) (A)
                 (A) (A) (A) (A) (A) (A) (A) (A) (A) (A) (A) (A)
                 (A) (A) (A) (A) (A) (A) (A) (A) (A) (A) (A) (A)
                 (A) (A) (A) (A) (A) (A) (A) (A) (A) (A) (A) (A)
                 (A) (A) (A) (A) (A) (A) (A) (A) (A) (A) (A) (A)
                 (A) (A) (A) (A) (A) (A) (A) (A) (A) (A) (A) (A)
                 (A) (A) (A) (A) (A) (A) (A) (A) (A) (A) (A) (A)
                 (A) (A) (A) (A) (A) (A) (A) (A) (A) (A) (A) (A)
                 (A) (A) (A) (A) (A) (A) (A) (A) (A) (A) (A) (A)
                 (A) (A) (A) (A) (A) (A) (A) (A) (A) (A) (A) (A)
                 (A) (A) (A) (A) (A) (A) (A) (A) (A) (A) (A) (A)
                 (A) (A) (A) (A) (A) (A) (A) (A) (A) (A) (A) (A)
                 (A) (A) (A) (A) (A) (A) (A) (A) (A) (A) (A) (A)
                 (A) (A) (A) (A) (A) (A) (A) (A) (A) (A) (A) (A)
                 (A) (A) (A) (A) (A) (A) (A) (A) (A) (A) (A) (A)
                 (A) (A) (A) (A) (A) (A) (A) (A) (A) (A) (A) (A)
                 (A) (A) (A) (A) (A) (A) (A) (A) (A) (A) (A) (A)
                 (A) (A) (A) (A) (A) (A) (A) (A) (A) (A) (A) (A)
                 (A) (A) (A) (A) (A) (A) (A) (A) (A) (A) (A) (A)
                 (A) (A) (A) (A) (A) (A) (A) (A) (A) (A) (A) (A)
                 (A) (A) (A) (A) (A) (A) (A) (A) (A) (A) (A) (A)
                 (A) (A) (A) (A) (A) (A) (A) (A) (A) (A) (A) (A)
                 (A) (A) (A) (A) (A) (A) (A) (A) (A) (A) (A) (A)
                 (A) (A) (A) (A) (A) (A) (A) (A) (A) (A) (A) (A)
                 (A) (A) (A) (A) (A) (A) (A) (A) (A) (A) (A) (A)
                 (A) (A) (A) (A) (A) (A) (A) (A) (A) (A) (A) (A)
                 (A) (A) (A) (A) (A) (A) (A) (A) (A) (A) (A) (A)
 The electronic state is 2-A.
 Alpha  occ. eigenvalues --  -19.23331 -19.21281 -10.18818 -10.18680 -10.18313
 Alpha  occ. eigenvalues --  -10.18277 -10.17866 -10.17437  -1.17542  -0.87975
 Alpha  occ. eigenvalues --   -0.84239  -0.75365  -0.74237  -0.62551  -0.59817
 Alpha  occ. eigenvalues --   -0.55552  -0.51178  -0.49734  -0.47570  -0.47213
 Alpha  occ. eigenvalues --   -0.45094  -0.42935  -0.42362  -0.39464  -0.38163
 Alpha  occ. eigenvalues --   -0.34157  -0.33044  -0.32019  -0.30273  -0.28568
 Alpha  occ. eigenvalues --   -0.21987
 Alpha virt. eigenvalues --   -0.04451   0.02157   0.04055   0.04732   0.06725
 Alpha virt. eigenvalues --    0.06765   0.07570   0.09105   0.09757   0.10474
 Alpha virt. eigenvalues --    0.13031   0.14141   0.17688   0.20607   0.20826
 Alpha virt. eigenvalues --    0.24199   0.25485   0.27372   0.28205   0.28764
 Alpha virt. eigenvalues --    0.30350   0.31723   0.33357   0.34195   0.35529
 Alpha virt. eigenvalues --    0.36194   0.38590   0.40036   0.40476   0.40767
 Alpha virt. eigenvalues --    0.42150   0.43231   0.43862   0.44340   0.45130
 Alpha virt. eigenvalues --    0.46080   0.47376   0.48086   0.48879   0.49385
 Alpha virt. eigenvalues --    0.49910   0.51480   0.53154   0.53532   0.54843
 Alpha virt. eigenvalues --    0.56662   0.57511   0.58678   0.61369   0.63050
 Alpha virt. eigenvalues --    0.64481   0.66229   0.66850   0.68678   0.70794
 Alpha virt. eigenvalues --    0.71225   0.73322   0.75949   0.76964   0.78756
 Alpha virt. eigenvalues --    0.81884   0.84696   0.85239   0.89332   0.90401
 Alpha virt. eigenvalues --    0.91916   0.93245   0.95136   0.98601   0.99123
 Alpha virt. eigenvalues --    1.00850   1.01502   1.02836   1.04129   1.05019
 Alpha virt. eigenvalues --    1.07292   1.07933   1.09312   1.10635   1.12055
 Alpha virt. eigenvalues --    1.13861   1.16385   1.16697   1.17220   1.18609
 Alpha virt. eigenvalues --    1.20291   1.21841   1.23339   1.24960   1.26144
 Alpha virt. eigenvalues --    1.28155   1.29428   1.29642   1.31158   1.32970
 Alpha virt. eigenvalues --    1.33829   1.35470   1.36826   1.38255   1.40242
 Alpha virt. eigenvalues --    1.41709   1.42104   1.42865   1.44404   1.46349
 Alpha virt. eigenvalues --    1.49297   1.49718   1.51471   1.52612   1.54682
 Alpha virt. eigenvalues --    1.56235   1.58266   1.61697   1.63359   1.71539
 Alpha virt. eigenvalues --    1.73191   1.76918   1.83068   1.85550   1.87068
 Alpha virt. eigenvalues --    1.90323   1.91968   1.98173   2.05028   2.09896
 Alpha virt. eigenvalues --    2.12312   2.14541   2.17127   2.21423   2.22134
 Alpha virt. eigenvalues --    2.24692   2.26425   2.32959   2.35683   2.36655
 Alpha virt. eigenvalues --    2.40000   2.42099   2.42823   2.44505   2.47505
 Alpha virt. eigenvalues --    2.48349   2.50259   2.52778   2.53891   2.56020
 Alpha virt. eigenvalues --    2.56245   2.58340   2.60138   2.61969   2.64625
 Alpha virt. eigenvalues --    2.67286   2.68741   2.69868   2.71897   2.72540
 Alpha virt. eigenvalues --    2.75167   2.77244   2.80298   2.82334   2.84373
 Alpha virt. eigenvalues --    2.86644   2.90541   2.92059   2.92901   2.94061
 Alpha virt. eigenvalues --    2.95099   2.97227   2.98015   2.99399   3.00649
 Alpha virt. eigenvalues --    3.02112   3.03036   3.05595   3.07755   3.08410
 Alpha virt. eigenvalues --    3.08741   3.10770   3.12895   3.13844   3.14583
 Alpha virt. eigenvalues --    3.17673   3.19334   3.20326   3.21301   3.22768
 Alpha virt. eigenvalues --    3.23618   3.25810   3.27401   3.28029   3.29028
 Alpha virt. eigenvalues --    3.31367   3.34048   3.34544   3.35350   3.38036
 Alpha virt. eigenvalues --    3.38701   3.41175   3.43134   3.44432   3.45905
 Alpha virt. eigenvalues --    3.47066   3.48225   3.53269   3.53543   3.54578
 Alpha virt. eigenvalues --    3.57099   3.59293   3.61012   3.61959   3.63761
 Alpha virt. eigenvalues --    3.65545   3.66713   3.68053   3.69559   3.70756
 Alpha virt. eigenvalues --    3.71623   3.74820   3.75371   3.76696   3.77436
 Alpha virt. eigenvalues --    3.80220   3.82126   3.83207   3.84338   3.86798
 Alpha virt. eigenvalues --    3.87781   3.88988   3.90099   3.91489   3.93333
 Alpha virt. eigenvalues --    3.95922   3.97497   3.99062   4.00308   4.01642
 Alpha virt. eigenvalues --    4.02997   4.05231   4.06700   4.08146   4.09282
 Alpha virt. eigenvalues --    4.11112   4.11555   4.14508   4.16720   4.17736
 Alpha virt. eigenvalues --    4.19552   4.22329   4.24196   4.25291   4.28193
 Alpha virt. eigenvalues --    4.28727   4.29546   4.32210   4.34677   4.38331
 Alpha virt. eigenvalues --    4.39159   4.42939   4.44311   4.47781   4.49651
 Alpha virt. eigenvalues --    4.53041   4.55834   4.56758   4.59614   4.63300
 Alpha virt. eigenvalues --    4.64601   4.66600   4.68106   4.71118   4.73747
 Alpha virt. eigenvalues --    4.75437   4.78225   4.80817   4.83656   4.84048
 Alpha virt. eigenvalues --    4.86683   4.87646   4.88927   4.92345   4.94971
 Alpha virt. eigenvalues --    4.97247   4.97924   5.01784   5.02608   5.07043
 Alpha virt. eigenvalues --    5.07452   5.09940   5.11441   5.15518   5.17045
 Alpha virt. eigenvalues --    5.18533   5.24107   5.26315   5.27215   5.29236
 Alpha virt. eigenvalues --    5.31630   5.34043   5.40037   5.41946   5.44125
 Alpha virt. eigenvalues --    5.49053   5.56487   5.59566   5.68460   5.70859
 Alpha virt. eigenvalues --    5.78989   5.84441   5.89506   5.96106   5.99412
 Alpha virt. eigenvalues --    6.02379   6.04878   6.17493   6.19456   6.27214
 Alpha virt. eigenvalues --    6.30597   6.31558   6.41449   6.46390   6.61806
 Alpha virt. eigenvalues --    6.65606   6.70122   6.84857   6.94535   7.12558
 Alpha virt. eigenvalues --    7.28154   7.53611   9.27739   9.83002  11.03397
 Alpha virt. eigenvalues --   11.57821  12.39284  12.58194  12.92450  14.14466
  Beta  occ. eigenvalues --  -19.22594 -19.19195 -10.18752 -10.18685 -10.18308
  Beta  occ. eigenvalues --  -10.18279 -10.17896 -10.17420  -1.15048  -0.84302
  Beta  occ. eigenvalues --   -0.83594  -0.75323  -0.74197  -0.62536  -0.59729
  Beta  occ. eigenvalues --   -0.54353  -0.51086  -0.49443  -0.45830  -0.45089
  Beta  occ. eigenvalues --   -0.42890  -0.42355  -0.40527  -0.39307  -0.38091
  Beta  occ. eigenvalues --   -0.34123  -0.32821  -0.31104  -0.27483  -0.21823
  Beta virt. eigenvalues --   -0.12882  -0.04031   0.02303   0.04573   0.04763
  Beta virt. eigenvalues --    0.06763   0.07526   0.07668   0.09130   0.10325
  Beta virt. eigenvalues --    0.10515   0.13047   0.14268   0.17701   0.20641
  Beta virt. eigenvalues --    0.20870   0.24272   0.25538   0.27454   0.28222
  Beta virt. eigenvalues --    0.28842   0.30414   0.31782   0.33428   0.34459
  Beta virt. eigenvalues --    0.35605   0.36215   0.38714   0.40110   0.40561
  Beta virt. eigenvalues --    0.40839   0.42282   0.43372   0.43900   0.44377
  Beta virt. eigenvalues --    0.45216   0.46135   0.47495   0.48187   0.48952
  Beta virt. eigenvalues --    0.49523   0.50025   0.51638   0.53263   0.54427
  Beta virt. eigenvalues --    0.55035   0.56796   0.57791   0.58951   0.61662
  Beta virt. eigenvalues --    0.63222   0.65279   0.66418   0.67379   0.69098
  Beta virt. eigenvalues --    0.71282   0.72794   0.73650   0.76041   0.77033
  Beta virt. eigenvalues --    0.78806   0.82305   0.85053   0.85458   0.89405
  Beta virt. eigenvalues --    0.90490   0.92075   0.93373   0.95211   0.98622
  Beta virt. eigenvalues --    0.99265   1.00981   1.01649   1.03010   1.04193
  Beta virt. eigenvalues --    1.05231   1.07349   1.07950   1.09443   1.10710
  Beta virt. eigenvalues --    1.12193   1.13939   1.16608   1.16786   1.17377
  Beta virt. eigenvalues --    1.18831   1.20703   1.21878   1.23900   1.25123
  Beta virt. eigenvalues --    1.26472   1.28619   1.29663   1.30003   1.31229
  Beta virt. eigenvalues --    1.33311   1.34041   1.35598   1.37158   1.38616
  Beta virt. eigenvalues --    1.40661   1.41787   1.42235   1.43115   1.44821
  Beta virt. eigenvalues --    1.46545   1.49505   1.49844   1.51599   1.52961
  Beta virt. eigenvalues --    1.54793   1.56360   1.59117   1.62100   1.64498
  Beta virt. eigenvalues --    1.72109   1.73928   1.77284   1.83529   1.86005
  Beta virt. eigenvalues --    1.88314   1.91157   1.92778   1.98308   2.06592
  Beta virt. eigenvalues --    2.11044   2.12395   2.14785   2.17410   2.21494
  Beta virt. eigenvalues --    2.22324   2.25479   2.26757   2.33064   2.35773
  Beta virt. eigenvalues --    2.36618   2.40023   2.42146   2.42866   2.44690
  Beta virt. eigenvalues --    2.47567   2.48388   2.50364   2.52807   2.53951
  Beta virt. eigenvalues --    2.56103   2.56304   2.58370   2.60308   2.61988
  Beta virt. eigenvalues --    2.64667   2.67312   2.68787   2.69884   2.71964
  Beta virt. eigenvalues --    2.72606   2.75158   2.77274   2.80380   2.82395
  Beta virt. eigenvalues --    2.84407   2.86706   2.90562   2.92095   2.92931
  Beta virt. eigenvalues --    2.94132   2.95120   2.97252   2.98096   2.99426
  Beta virt. eigenvalues --    3.00722   3.02146   3.03052   3.05634   3.07776
  Beta virt. eigenvalues --    3.08482   3.08775   3.10812   3.12891   3.13919
  Beta virt. eigenvalues --    3.14667   3.17679   3.19381   3.20454   3.21614
  Beta virt. eigenvalues --    3.22839   3.23773   3.25897   3.27639   3.28201
  Beta virt. eigenvalues --    3.29088   3.31609   3.34201   3.34695   3.35395
  Beta virt. eigenvalues --    3.38132   3.38748   3.41247   3.43395   3.45345
  Beta virt. eigenvalues --    3.46092   3.47273   3.48478   3.53392   3.53851
  Beta virt. eigenvalues --    3.56476   3.58544   3.59471   3.61212   3.61984
  Beta virt. eigenvalues --    3.63928   3.65796   3.66935   3.68083   3.70052
  Beta virt. eigenvalues --    3.71386   3.73793   3.74877   3.75800   3.77456
  Beta virt. eigenvalues --    3.77946   3.80390   3.82220   3.83323   3.84534
  Beta virt. eigenvalues --    3.86887   3.87807   3.89046   3.90138   3.91542
  Beta virt. eigenvalues --    3.93617   3.95991   3.97598   3.99220   4.00349
  Beta virt. eigenvalues --    4.01714   4.03112   4.05371   4.07046   4.08248
  Beta virt. eigenvalues --    4.09438   4.11178   4.11997   4.14522   4.16942
  Beta virt. eigenvalues --    4.18014   4.19638   4.22375   4.24238   4.25338
  Beta virt. eigenvalues --    4.28317   4.28759   4.29583   4.32240   4.34774
  Beta virt. eigenvalues --    4.38513   4.39224   4.43203   4.44412   4.47864
  Beta virt. eigenvalues --    4.49730   4.53072   4.56214   4.57323   4.59758
  Beta virt. eigenvalues --    4.63379   4.64640   4.66679   4.69040   4.73186
  Beta virt. eigenvalues --    4.73883   4.75509   4.80012   4.81034   4.83807
  Beta virt. eigenvalues --    4.84274   4.87009   4.88453   4.89352   4.92933
  Beta virt. eigenvalues --    4.97048   4.97435   4.97985   5.01931   5.02715
  Beta virt. eigenvalues --    5.07417   5.08792   5.10723   5.15584   5.17316
  Beta virt. eigenvalues --    5.18542   5.19385   5.24425   5.26392   5.27739
  Beta virt. eigenvalues --    5.31559   5.31708   5.34127   5.40058   5.41983
  Beta virt. eigenvalues --    5.44146   5.49103   5.56514   5.61594   5.68485
  Beta virt. eigenvalues --    5.70905   5.79030   5.84550   5.89531   5.99922
  Beta virt. eigenvalues --    6.00824   6.02464   6.04943   6.17790   6.23982
  Beta virt. eigenvalues --    6.31789   6.34909   6.37285   6.43081   6.50023
  Beta virt. eigenvalues --    6.63235   6.67378   6.71775   6.85837   6.98149
  Beta virt. eigenvalues --    7.13288   7.28835   7.55190   9.30434   9.83106
  Beta virt. eigenvalues --   11.03501  11.58915  12.39295  12.58206  12.92487
  Beta virt. eigenvalues --   14.14472
          Condensed to atoms (all electrons):
               1          2          3          4          5          6
     1  C    4.854139   0.340603  -0.047073  -0.026107  -0.026739   0.341400
     2  C    0.340603   4.991554   0.598751  -0.043513  -0.038800  -0.022984
     3  C   -0.047073   0.598751   4.951357   0.326372  -0.042402  -0.010394
     4  C   -0.026107  -0.043513   0.326372   5.047735   0.538066  -0.053703
     5  C   -0.026739  -0.038800  -0.042402   0.538066   5.149912   0.321490
     6  C    0.341400  -0.022984  -0.010394  -0.053703   0.321490   4.849608
     7  H   -0.033362   0.006818  -0.000966   0.005911  -0.034414   0.419655
     8  H   -0.039157   0.001858   0.002630  -0.001535  -0.054788   0.397226
     9  H    0.006429  -0.000930   0.006783  -0.043808   0.419649  -0.046405
    10  H    0.000117   0.000049  -0.002221   0.007901   0.024284  -0.000922
    11  H    0.008062  -0.048574   0.423120  -0.043002   0.006132  -0.000831
    12  H   -0.044431   0.417876  -0.049282   0.008566  -0.000358   0.005407
    13  H    0.415909  -0.037378   0.006175  -0.000056   0.007737  -0.035342
    14  H    0.388959  -0.040523  -0.009706   0.006227   0.003737  -0.033213
    15  O   -0.000086  -0.000826   0.006741   0.003514  -0.015129   0.000501
    16  H   -0.000474   0.005259  -0.048020   0.418259  -0.048354   0.008178
    17  O    0.000002   0.000023   0.001358  -0.018959  -0.003451  -0.000117
               7          8          9         10         11         12
     1  C   -0.033362  -0.039157   0.006429   0.000117   0.008062  -0.044431
     2  C    0.006818   0.001858  -0.000930   0.000049  -0.048574   0.417876
     3  C   -0.000966   0.002630   0.006783  -0.002221   0.423120  -0.049282
     4  C    0.005911  -0.001535  -0.043808   0.007901  -0.043002   0.008566
     5  C   -0.034414  -0.054788   0.419649   0.024284   0.006132  -0.000358
     6  C    0.419655   0.397226  -0.046405  -0.000922  -0.000831   0.005407
     7  H    0.597415  -0.037101  -0.008059   0.000020   0.000075  -0.000357
     8  H   -0.037101   0.639319   0.003081  -0.001346  -0.000031   0.000188
     9  H   -0.008059   0.003081   0.534423   0.000643  -0.000247   0.000104
    10  H    0.000020  -0.001346   0.000643   0.471982   0.000018   0.000001
    11  H    0.000075  -0.000031  -0.000247   0.000018   0.551000  -0.009502
    12  H   -0.000357   0.000188   0.000104   0.000001  -0.009502   0.562648
    13  H   -0.001215  -0.008792  -0.000410  -0.000008  -0.000320  -0.005569
    14  H   -0.009650   0.010719   0.000183  -0.000029  -0.000417   0.001032
    15  O    0.000004   0.000461   0.000016  -0.041613   0.001308  -0.000014
    16  H   -0.000377   0.000110  -0.008157  -0.000409  -0.005102  -0.000618
    17  O   -0.000010   0.000331   0.000984   0.336789  -0.000036   0.000000
              13         14         15         16         17
     1  C    0.415909   0.388959  -0.000086  -0.000474   0.000002
     2  C   -0.037378  -0.040523  -0.000826   0.005259   0.000023
     3  C    0.006175  -0.009706   0.006741  -0.048020   0.001358
     4  C   -0.000056   0.006227   0.003514   0.418259  -0.018959
     5  C    0.007737   0.003737  -0.015129  -0.048354  -0.003451
     6  C   -0.035342  -0.033213   0.000501   0.008178  -0.000117
     7  H   -0.001215  -0.009650   0.000004  -0.000377  -0.000010
     8  H   -0.008792   0.010719   0.000461   0.000110   0.000331
     9  H   -0.000410   0.000183   0.000016  -0.008157   0.000984
    10  H   -0.000008  -0.000029  -0.041613  -0.000409   0.336789
    11  H   -0.000320  -0.000417   0.001308  -0.005102  -0.000036
    12  H   -0.005569   0.001032  -0.000014  -0.000618   0.000000
    13  H    0.600706  -0.034346   0.000010   0.000065   0.000000
    14  H   -0.034346   0.624859   0.000003   0.000303   0.000003
    15  O    0.000010   0.000003   8.074858  -0.003936   0.112704
    16  H    0.000065   0.000303  -0.003936   0.551266   0.000727
    17  O    0.000000   0.000003   0.112704   0.000727   7.644009
          Atomic-Atomic Spin Densities.
               1          2          3          4          5          6
     1  C    0.003271   0.001359  -0.000441   0.000811  -0.003409   0.003022
     2  C    0.001359  -0.025252   0.000306   0.000433   0.002002  -0.001556
     3  C   -0.000441   0.000306   0.007949   0.012217  -0.007006   0.002935
     4  C    0.000811   0.000433   0.012217  -0.057419   0.008477  -0.001893
     5  C   -0.003409   0.002002  -0.007006   0.008477   0.089908  -0.008717
     6  C    0.003022  -0.001556   0.002935  -0.001893  -0.008717   0.002176
     7  H    0.000320  -0.000046   0.000066  -0.000088  -0.000307   0.000291
     8  H   -0.001131   0.000521  -0.000600  -0.000081  -0.000064   0.000359
     9  H   -0.000036   0.000048  -0.000213   0.000282   0.000726   0.000801
    10  H    0.000028  -0.000085   0.000374   0.000077   0.000966  -0.000047
    11  H   -0.000107   0.000568  -0.001477   0.000983   0.000073  -0.000019
    12  H   -0.000064  -0.000291   0.000087  -0.000074   0.000041  -0.000024
    13  H   -0.000464   0.000357  -0.000140   0.000071   0.000047  -0.000138
    14  H   -0.001019   0.001307  -0.000530  -0.000316   0.001452  -0.000733
    15  O   -0.000049   0.000385  -0.005838  -0.006201   0.000189  -0.000127
    16  H    0.000052  -0.000120   0.002003   0.000358  -0.001882   0.000253
    17  O    0.000001  -0.000012   0.000181   0.003159   0.000588   0.000114
               7          8          9         10         11         12
     1  C    0.000320  -0.001131  -0.000036   0.000028  -0.000107  -0.000064
     2  C   -0.000046   0.000521   0.000048  -0.000085   0.000568  -0.000291
     3  C    0.000066  -0.000600  -0.000213   0.000374  -0.001477   0.000087
     4  C   -0.000088  -0.000081   0.000282   0.000077   0.000983  -0.000074
     5  C   -0.000307  -0.000064   0.000726   0.000966   0.000073   0.000041
     6  C    0.000291   0.000359   0.000801  -0.000047  -0.000019  -0.000024
     7  H    0.000459  -0.000405   0.000108   0.000003   0.000000  -0.000001
     8  H   -0.000405   0.006284  -0.000169  -0.000032   0.000011   0.000001
     9  H    0.000108  -0.000169  -0.004535   0.000167  -0.000009   0.000000
    10  H    0.000003  -0.000032   0.000167  -0.007112  -0.000000  -0.000000
    11  H    0.000000   0.000011  -0.000009  -0.000000  -0.000389   0.000017
    12  H   -0.000001   0.000001   0.000000  -0.000000   0.000017   0.001074
    13  H   -0.000013   0.000160  -0.000003   0.000000   0.000002   0.000001
    14  H   -0.000099   0.000079  -0.000026  -0.000000   0.000015  -0.000026
    15  O    0.000000  -0.000030  -0.000203  -0.000879   0.000431   0.000006
    16  H   -0.000000  -0.000040   0.000128   0.000073  -0.000223  -0.000008
    17  O    0.000001   0.000005   0.000006   0.003754  -0.000036  -0.000000
              13         14         15         16         17
     1  C   -0.000464  -0.001019  -0.000049   0.000052   0.000001
     2  C    0.000357   0.001307   0.000385  -0.000120  -0.000012
     3  C   -0.000140  -0.000530  -0.005838   0.002003   0.000181
     4  C    0.000071  -0.000316  -0.006201   0.000358   0.003159
     5  C    0.000047   0.001452   0.000189  -0.001882   0.000588
     6  C   -0.000138  -0.000733  -0.000127   0.000253   0.000114
     7  H   -0.000013  -0.000099   0.000000  -0.000000   0.000001
     8  H    0.000160   0.000079  -0.000030  -0.000040   0.000005
     9  H   -0.000003  -0.000026  -0.000203   0.000128   0.000006
    10  H    0.000000  -0.000000  -0.000879   0.000073   0.003754
    11  H    0.000002   0.000015   0.000431  -0.000223  -0.000036
    12  H    0.000001  -0.000026   0.000006  -0.000008  -0.000000
    13  H   -0.000466   0.000337  -0.000000  -0.000001   0.000000
    14  H    0.000337  -0.001157   0.000002  -0.000033  -0.000001
    15  O   -0.000000   0.000002   0.862139  -0.003936  -0.105590
    16  H   -0.000001  -0.000033  -0.003936   0.006018   0.000745
    17  O    0.000000  -0.000001  -0.105590   0.000745   0.321776
 Mulliken charges and spin densities:
               1          2
     1  C   -0.138191   0.002145
     2  C   -0.129263  -0.020076
     3  C   -0.113223   0.009873
     4  C   -0.131867  -0.039202
     5  C   -0.206572   0.083083
     6  C   -0.139554  -0.003302
     7  H    0.095615   0.000289
     8  H    0.086829   0.004869
     9  H    0.135722  -0.002926
    10  H    0.204744  -0.002715
    11  H    0.118348  -0.000158
    12  H    0.114308   0.000741
    13  H    0.092836  -0.000248
    14  H    0.091860  -0.000749
    15  O   -0.138515   0.740300
    16  H    0.131282   0.003385
    17  O   -0.074358   0.224691
 Sum of Mulliken charges =  -0.00000   1.00000
 Mulliken charges and spin densities with hydrogens summed into heavy atoms:
               1          2
     1  C    0.046505   0.001148
     2  C   -0.014955  -0.019335
     3  C    0.005125   0.009715
     4  C   -0.000585  -0.035817
     5  C   -0.070851   0.080157
     6  C    0.042890   0.001856
    15  O   -0.138515   0.740300
    17  O    0.130386   0.221976
 APT charges:
               1
     1  C   -0.931085
     2  C   -0.407635
     3  C   -0.604619
     4  C   -0.538336
     5  C   -0.412303
     6  C   -0.757845
     7  H    0.525169
     8  H    0.252955
     9  H    0.467169
    10  H    0.017209
    11  H    0.487654
    12  H    0.578162
    13  H    0.514629
    14  H    0.420356
    15  O   -0.147204
    16  H    0.415881
    17  O    0.119845
 Sum of APT charges =  -0.00000
 APT charges with hydrogens summed into heavy atoms:
               1
     1  C    0.003900
     2  C    0.170527
     3  C   -0.116966
     4  C   -0.122456
     5  C    0.054866
     6  C    0.020279
    15  O   -0.147204
    17  O    0.137054
 Electronic spatial extent (au):  <R**2>=           1177.7276
 Charge=             -0.0000 electrons
 Dipole moment (field-independent basis, Debye):
    X=             -2.0348    Y=             -1.5486    Z=              0.0549  Tot=              2.5576
 Quadrupole moment (field-independent basis, Debye-Ang):
   XX=            -52.7277   YY=            -44.7183   ZZ=            -48.5910
   XY=             -2.5511   XZ=              1.0606   YZ=              1.1749
 Traceless Quadrupole moment (field-independent basis, Debye-Ang):
   XX=             -4.0487   YY=              3.9607   ZZ=              0.0880
   XY=             -2.5511   XZ=              1.0606   YZ=              1.1749
 Octapole moment (field-independent basis, Debye-Ang**2):
  XXX=             -5.8536  YYY=             -1.3523  ZZZ=             -3.5903  XYY=              8.0122
  XXY=             -5.5741  XXZ=             -3.3141  XZZ=             10.3138  YZZ=             -1.3607
  YYZ=              0.5575  XYZ=              3.2868
 Hexadecapole moment (field-independent basis, Debye-Ang**3):
 XXXX=          -1070.9126 YYYY=           -353.1615 ZZZZ=           -128.7724 XXXY=            -11.8817
 XXXZ=             -2.5207 YYYX=             -8.0954 YYYZ=             -1.8428 ZZZX=             -4.2421
 ZZZY=              2.7021 XXYY=           -221.2586 XXZZ=           -184.1729 YYZZ=            -84.1290
 XXYZ=             -0.2562 YYXZ=             -1.0326 ZZXY=              0.8449
 N-N= 3.539453956500D+02 E-N=-1.605303998493D+03  KE= 3.819183799276D+02
  Exact polarizability:   0.000   0.000   0.000   0.000   0.000   0.000
 Approx polarizability: 149.676   6.978 149.014   9.283  -6.099  91.207
                          Isotropic Fermi Contact Couplings
        Atom                 a.u.       MegaHertz       Gauss      10(-4) cm-1
     1  C(13)              0.00223       2.50707       0.89459       0.83627
     2  C(13)             -0.00122      -1.37029      -0.48895      -0.45708
     3  C(13)              0.00112       1.25508       0.44785       0.41865
     4  C(13)             -0.00150      -1.68855      -0.60252      -0.56324
     5  C(13)              0.00517       5.81510       2.07497       1.93971
     6  C(13)             -0.00181      -2.03381      -0.72571      -0.67841
     7  H(1)               0.00029       1.31205       0.46817       0.43765
     8  H(1)               0.00283      12.63326       4.50786       4.21400
     9  H(1)              -0.00101      -4.52756      -1.61554      -1.51023
    10  H(1)              -0.00415     -18.53360      -6.61325      -6.18214
    11  H(1)              -0.00022      -0.99660      -0.35561      -0.33243
    12  H(1)               0.00029       1.28693       0.45921       0.42927
    13  H(1)              -0.00023      -1.03893      -0.37072      -0.34655
    14  H(1)              -0.00058      -2.57392      -0.91844      -0.85857
    15  O(17)              0.03512     -21.29131      -7.59727      -7.10201
    16  H(1)               0.00262      11.72073       4.18225       3.90962
    17  O(17)              0.02704     -16.39411      -5.84983      -5.46849
 --------------------------------------------------------
       Center         ----  Spin Dipole Couplings  ----
                      3XX-RR        3YY-RR        3ZZ-RR
 --------------------------------------------------------
     1   Atom        0.003058     -0.000224     -0.002833
     2   Atom        0.013169      0.010713     -0.023882
     3   Atom        0.002095     -0.008375      0.006279
     4   Atom        0.002926      0.015548     -0.018474
     5   Atom       -0.001726     -0.038382      0.040109
     6   Atom        0.001936     -0.003025      0.001090
     7   Atom        0.001617     -0.000262     -0.001355
     8   Atom        0.002054     -0.001648     -0.000406
     9   Atom       -0.000464      0.002294     -0.001830
    10   Atom        0.008223      0.012646     -0.020870
    11   Atom        0.002865      0.000113     -0.002977
    12   Atom        0.002209     -0.000977     -0.001232
    13   Atom        0.001579     -0.000977     -0.000602
    14   Atom        0.002055     -0.001166     -0.000889
    15   Atom       -1.029527     -1.642778      2.672305
    16   Atom        0.000325     -0.004656      0.004331
    17   Atom       -0.497165     -0.651191      1.148356
 --------------------------------------------------------
                        XY            XZ            YZ
 --------------------------------------------------------
     1   Atom       -0.002032      0.000637     -0.000212
     2   Atom       -0.000038      0.009175     -0.003743
     3   Atom       -0.001945     -0.009665     -0.000791
     4   Atom        0.008192      0.025392     -0.001179
     5   Atom       -0.016658     -0.061706      0.027783
     6   Atom        0.001789      0.000013      0.001285
     7   Atom        0.002066      0.000276      0.000328
     8   Atom        0.002217      0.001366      0.000781
     9   Atom       -0.001484     -0.002984     -0.004601
    10   Atom        0.046079      0.005372      0.011480
    11   Atom       -0.004616     -0.002640      0.001679
    12   Atom        0.000381      0.000228      0.000255
    13   Atom       -0.000202      0.000521     -0.000178
    14   Atom       -0.000381     -0.000258      0.000061
    15   Atom        0.028553     -1.612031     -0.107630
    16   Atom        0.000283     -0.011400     -0.000605
    17   Atom        0.020859     -0.506086      0.062113
 --------------------------------------------------------


 ---------------------------------------------------------------------------------
              Anisotropic Spin Dipole Couplings in Principal Axis System
 ---------------------------------------------------------------------------------

       Atom             a.u.   MegaHertz   Gauss  10(-4) cm-1        Axes

              Baa    -0.0029    -0.389    -0.139    -0.130 -0.1072 -0.0027  0.9942
     1 C(13)  Bbb    -0.0012    -0.160    -0.057    -0.053  0.4250  0.9039  0.0483
              Bcc     0.0041     0.549     0.196     0.183  0.8988 -0.4277  0.0958
 
              Baa    -0.0264    -3.541    -1.263    -1.181 -0.2248  0.0976  0.9695
     2 C(13)  Bbb     0.0109     1.462     0.522     0.488  0.2131  0.9758 -0.0488
              Bcc     0.0155     2.079     0.742     0.694  0.9508 -0.1956  0.2401
 
              Baa    -0.0095    -1.270    -0.453    -0.424  0.3809  0.8818  0.2781
     3 C(13)  Bbb    -0.0046    -0.621    -0.222    -0.207  0.6770 -0.4709  0.5657
              Bcc     0.0141     1.891     0.675     0.631 -0.6298  0.0272  0.7763
 
              Baa    -0.0359    -4.821    -1.720    -1.608 -0.5597  0.1079  0.8216
     4 C(13)  Bbb     0.0116     1.551     0.554     0.517 -0.4463  0.7961 -0.4086
              Bcc     0.0244     3.270     1.167     1.091  0.6982  0.5954  0.3974
 
              Baa    -0.0487    -6.541    -2.334    -2.182 -0.4517  0.7127 -0.5366
     5 C(13)  Bbb    -0.0436    -5.848    -2.087    -1.951  0.6930  0.6591  0.2921
              Bcc     0.0923    12.389     4.421     4.133 -0.5619  0.2399  0.7917
 
              Baa    -0.0039    -0.524    -0.187    -0.175 -0.2841  0.9287 -0.2383
     6 C(13)  Bbb     0.0013     0.169     0.060     0.056 -0.3578  0.1278  0.9250
              Bcc     0.0026     0.354     0.126     0.118  0.8895  0.3481  0.2960
 
              Baa    -0.0017    -0.882    -0.315    -0.294 -0.4548  0.7778 -0.4339
     7 H(1)   Bbb    -0.0013    -0.711    -0.254    -0.237 -0.3079  0.3198  0.8961
              Bcc     0.0030     1.593     0.568     0.531  0.8357  0.5411  0.0941
 
              Baa    -0.0027    -1.437    -0.513    -0.479 -0.4057  0.9114 -0.0690
     8 H(1)   Bbb    -0.0010    -0.532    -0.190    -0.178 -0.3537 -0.0869  0.9313
              Bcc     0.0037     1.970     0.703     0.657  0.8428  0.4023  0.3576
 
              Baa    -0.0066    -3.521    -1.257    -1.175  0.4755  0.4655  0.7465
     9 H(1)   Bbb     0.0013     0.691     0.247     0.231  0.8761 -0.3279 -0.3536
              Bcc     0.0053     2.830     1.010     0.944  0.0801  0.8221 -0.5637
 
              Baa    -0.0368   -19.648    -7.011    -6.554 -0.6728  0.6891 -0.2693
    10 H(1)   Bbb    -0.0216   -11.507    -4.106    -3.838 -0.2974  0.0814  0.9513
              Bcc     0.0584    31.156    11.117    10.392  0.6774  0.7201  0.1502
 
              Baa    -0.0040    -2.135    -0.762    -0.712  0.4075  0.0861  0.9092
    11 H(1)   Bbb    -0.0033    -1.737    -0.620    -0.579  0.4899  0.8196 -0.2972
              Bcc     0.0073     3.872     1.382     1.292  0.7707 -0.5665 -0.2918
 
              Baa    -0.0014    -0.741    -0.265    -0.247  0.0019 -0.5268  0.8500
    12 H(1)   Bbb    -0.0009    -0.471    -0.168    -0.157 -0.1421  0.8412  0.5216
              Bcc     0.0023     1.212     0.433     0.404  0.9899  0.1218  0.0732
 
              Baa    -0.0010    -0.559    -0.200    -0.186 -0.0024  0.9280  0.3725
    13 H(1)   Bbb    -0.0007    -0.358    -0.128    -0.119 -0.2412 -0.3620  0.9004
              Bcc     0.0017     0.917     0.327     0.306  0.9705 -0.0877  0.2247
 
              Baa    -0.0012    -0.648    -0.231    -0.216  0.1074  0.9892 -0.0998
    14 H(1)   Bbb    -0.0009    -0.485    -0.173    -0.162  0.0979  0.0894  0.9912
              Bcc     0.0021     1.133     0.404     0.378  0.9894 -0.1162 -0.0872
 
              Baa    -1.6518   119.520    42.648    39.868  0.4688  0.8612  0.1962
    15 O(17)  Bbb    -1.6266   117.701    41.999    39.261  0.8108 -0.5077  0.2913
              Bcc     3.2784  -237.221   -84.646   -79.128 -0.3505 -0.0225  0.9363
 
              Baa    -0.0093    -4.937    -1.762    -1.647  0.7646  0.0377  0.6434
    16 H(1)   Bbb    -0.0047    -2.493    -0.889    -0.831 -0.0512  0.9987  0.0023
              Bcc     0.0139     7.430     2.651     2.478 -0.6424 -0.0347  0.7656
 
              Baa    -0.6840    49.494    17.661    16.509 -0.6162  0.7628 -0.1960
    17 O(17)  Bbb    -0.6090    44.070    15.725    14.700  0.7393  0.6460  0.1901
              Bcc     1.2930   -93.564   -33.386   -31.210 -0.2716  0.0278  0.9620
 

 ---------------------------------------------------------------------------------

 Calling FoFJK, ICntrl=    100147 FMM=F ISym2X=0 I1Cent= 0 IOpClX= 1 NMat=1 NMatS=1 NMatT=0.
 ***** Axes restored to original set *****
 -------------------------------------------------------------------
 Center     Atomic                   Forces (Hartrees/Bohr)
 Number     Number              X              Y              Z
 -------------------------------------------------------------------
      1        6           0.001829897   -0.002528847   -0.009221749
      2        6          -0.002021755   -0.001177648    0.001538937
      3        6          -0.001604728   -0.015884072   -0.009440737
      4        6          -0.044126923   -0.035173350    0.048393245
      5        6           0.017254298    0.041678681   -0.005336005
      6        6          -0.004371125    0.010791291   -0.009274227
      7        1           0.001615050    0.000240257    0.001702414
      8        1          -0.003590337    0.001050499   -0.000736841
      9        1           0.006540684    0.005366552    0.003176541
     10        1          -0.041424188   -0.042256802   -0.007660802
     11        1           0.002713318    0.000541353   -0.008197447
     12        1          -0.001142078    0.000256670    0.002748633
     13        1          -0.000887955   -0.000437300    0.000771559
     14        1          -0.001117900    0.000673800    0.000253413
     15        8           0.023465344   -0.015824040   -0.000939270
     16        1           0.019238133   -0.007636760   -0.011111244
     17        8           0.027630264    0.060319717    0.003333581
 -------------------------------------------------------------------
 Cartesian Forces:  Max     0.060319717 RMS     0.018668281
 FormGI is forming the generalized inverse of G from B-inverse, IUseBI=4.

 GradGradGradGradGradGradGradGradGradGradGradGradGradGradGradGradGradGrad
 Berny optimization.
 Internal  Forces:  Max     0.048852469 RMS     0.008209383
 Search for a saddle point.
 Step number   1 out of a maximum of  102
 All quantities printed in internal units (Hartrees-Bohrs-Radians)
 Second derivative matrix not updated -- analytic derivatives used.
 ITU=  0
 LST/QST climbing along tangent vector
     Eigenvalues ---   -0.00214  -0.00200   0.00170   0.00266   0.00381
     Eigenvalues ---    0.00575   0.00732   0.00812   0.01163   0.01386
     Eigenvalues ---    0.01649   0.01922   0.02606   0.03165   0.03637
     Eigenvalues ---    0.04069   0.04692   0.05721   0.06363   0.07276
     Eigenvalues ---    0.07371   0.08110   0.08204   0.09747   0.10808
     Eigenvalues ---    0.11517   0.12262   0.14207   0.18860   0.22600
     Eigenvalues ---    0.24501   0.28763   0.29475   0.30071   0.31560
     Eigenvalues ---    0.31820   0.33201   0.33585   0.33999   0.35039
     Eigenvalues ---    0.35214   0.35622   0.35913   0.55918   0.58398
     Eigenvalues --- 1000.000001000.000001000.000001000.000001000.00000
     Eigenvalues --- 1000.000001000.000001000.000001000.000001000.00000
     Eigenvalues --- 1000.000001000.000001000.000001000.000001000.00000
     Eigenvalues --- 1000.000001000.000001000.000001000.000001000.00000
     Eigenvalues --- 1000.000001000.000001000.000001000.000001000.00000
     Eigenvalues --- 1000.000001000.000001000.000001000.000001000.00000
     Eigenvalues --- 1000.000001000.000001000.000001000.000001000.00000
     Eigenvalues --- 1000.000001000.000001000.000001000.000001000.00000
     Eigenvalues --- 1000.000001000.000001000.000001000.000001000.00000
     Eigenvalues --- 1000.000001000.000001000.000001000.000001000.00000
     Eigenvalues --- 1000.000001000.000001000.000001000.000001000.00000
     Eigenvalues --- 1000.000001000.000001000.000001000.000001000.00000
     Eigenvalues --- 1000.000001000.000001000.000001000.00000
 Eigenvectors required to have negative eigenvalues:
                          A35       D34       D36       D38       R10
   1                    0.36973  -0.35624  -0.29344  -0.29197  -0.27501
                          D50       D40       D51       D37       R15
   1                   -0.26658  -0.25133  -0.25033  -0.24762  -0.24369
 QST in optimization variable space.
 Eigenvectors 1 and   2 swapped, overlap=  1.0000
                        Tangent   TS vect  // Eig F  Eigenval
   1         R1         0.00331   0.00331   0.01525  -0.00200
   2         R2         0.00136   0.00136   0.00105  -0.00214
   3         R3        -0.00052  -0.00052   0.00042   0.00170
   4         R4         0.00070   0.00070   0.00204   0.00266
   5         R5         0.00213   0.00213   0.00149   0.00381
   6         R6        -0.00047  -0.00047   0.00116   0.00575
   7         R7        -0.01394  -0.01394   0.00256   0.00732
   8         R8         0.00082   0.00082   0.00292   0.00812
   9         R9        -0.04536  -0.04536   0.00413   0.01163
  10         R10       -0.15329  -0.15329  -0.00204   0.01386
  11         R11        0.52280   0.52280  -0.00187   0.01649
  12         R12       -0.00307  -0.00307   0.00153   0.01922
  13         R13        0.00493   0.00493   0.01069   0.02606
  14         R14        0.00066   0.00066   0.00005   0.03165
  15         R15       -0.20372  -0.20372  -0.00083   0.03637
  16         R16        0.00003   0.00003  -0.00064   0.04069
  17         R17       -0.00076  -0.00076  -0.00001   0.04692
  18         R18        0.01636   0.01636  -0.00304   0.05721
  19         R19       -0.04235  -0.04235   0.00179   0.06363
  20         A1         0.00261   0.00261  -0.00041   0.07276
  21         A2         0.00246   0.00246   0.00764   0.07371
  22         A3        -0.00386  -0.00386   0.00169   0.08110
  23         A4        -0.00112  -0.00112  -0.00378   0.08204
  24         A5        -0.00108  -0.00108   0.00635   0.09747
  25         A6         0.00078   0.00078  -0.00113   0.10808
  26         A7        -0.01004  -0.01004  -0.00194   0.11517
  27         A8         0.00383   0.00383   0.00149   0.12262
  28         A9         0.00471   0.00471  -0.00365   0.14207
  29         A10       -0.01093  -0.01093   0.00176   0.18860
  30         A11        0.00475   0.00475   0.00072   0.22600
  31         A12        0.00472   0.00472  -0.00351   0.24501
  32         A13        0.02939   0.02939   0.00977   0.28763
  33         A14       -0.07298  -0.07298  -0.00384   0.29475
  34         A15       -0.01467  -0.01467  -0.00367   0.30071
  35         A16        0.01926   0.01926  -0.00102   0.31560
  36         A17       -0.01747  -0.01747   0.00542   0.31820
  37         A18        0.03804   0.03804   0.00631   0.33201
  38         A19       -0.00934  -0.00934   0.00481   0.33585
  39         A20       -0.01441  -0.01441   0.00920   0.33999
  40         A21       -0.10267  -0.10267   0.01688   0.35039
  41         A22        0.00184   0.00184   0.00089   0.35214
  42         A23        0.00554   0.00554   0.00474   0.35622
  43         A24       -0.00698  -0.00698  -0.01403   0.35913
  44         A25       -0.03311  -0.03311  -0.00319   0.55918
  45         A26        0.04330   0.04330   0.02510   0.58398
  46         A27       -0.00303  -0.00303   0.000001000.00000
  47         A28       -0.00167  -0.00167   0.000001000.00000
  48         A29        0.00726   0.00726  -0.000001000.00000
  49         A30        0.00018   0.00018  -0.000001000.00000
  50         A31       -0.00090  -0.00090  -0.000001000.00000
  51         A32       -0.00150  -0.00150  -0.000001000.00000
  52         A33        0.26834   0.26834  -0.000001000.00000
  53         A34        0.25821   0.25821   0.000001000.00000
  54         A35        0.13215   0.13215  -0.000001000.00000
  55         A36       -0.08075  -0.08075   0.000001000.00000
  56         A37        0.04744   0.04744  -0.000001000.00000
  57         D1        -0.02888  -0.02888   0.000001000.00000
  58         D2        -0.01754  -0.01754  -0.000001000.00000
  59         D3        -0.03134  -0.03134  -0.000001000.00000
  60         D4        -0.02000  -0.02000   0.000001000.00000
  61         D5        -0.03140  -0.03140   0.000001000.00000
  62         D6        -0.02006  -0.02006   0.000001000.00000
  63         D7         0.00048   0.00048  -0.000001000.00000
  64         D8        -0.00247  -0.00247   0.000001000.00000
  65         D9        -0.00104  -0.00104   0.000001000.00000
  66         D10        0.00479   0.00479  -0.000001000.00000
  67         D11        0.00184   0.00184   0.000001000.00000
  68         D12        0.00327   0.00327   0.000001000.00000
  69         D13        0.00451   0.00451  -0.000001000.00000
  70         D14        0.00156   0.00156  -0.000001000.00000
[...]
   zx        -0.205718D+02     -0.304843D+01     -0.339184D+01
   zy         0.121828D+02      0.180530D+01      0.200867D+01
   zz         0.103170D+03      0.152881D+02      0.170104D+02

 ----------------------------------------------------------------------
 1\1\GINC-CNODE0087\Freq\UB3LYP\CC-pVTZ+d\C6H9O2(2)\LMOSKALEVA\12-May-2
 022\0\\#N Geom=AllCheck Guess=TCheck SCRF=Check GenChk UB3LYP/CC-pVTZ+
 d Freq\\QOOH-1-cyclohexenyl-OOH-Elim-QST2-b3lyp-c\\0,2\C,-2.3070911944
 ,-0.2510727868,-0.1466009572\C,-1.6970561713,1.1223829064,-0.110439712
 5\C,-0.4407979327,1.3378447653,0.2836314682\C,0.4290184416,0.232776829
 9,0.7048176358\C,-0.0515858875,-1.0661770159,0.6059148208\C,-1.2430800
 393,-1.3553139471,-0.2499186713\H,-1.6725111778,-2.3275881083,-0.00573
 89621\H,-0.90719637,-1.4213657595,-1.2946641233\H,0.5161728463,-1.8841
 145065,1.028868741\H,3.1339590362,-0.8806695104,-0.5764378947\H,-0.029
 280704,2.3372847958,0.3108011032\H,-2.3277877162,1.9606856101,-0.38188
 70142\H,-3.0064109864,-0.3301277283,-0.9809975953\H,-2.9085046549,-0.3
 920903942,0.7604537192\O,1.6968087581,0.3079373,-0.7241734373\H,1.1932
 659889,0.4529263039,1.4365217331\O,2.9794267634,0.0114932455,-0.236548
 8533\\Version=ES64L-G16RevB.01\State=2-A\HF=-384.4579152\S2=0.782521\S
 2-1=0.\S2A=0.750202\RMSD=5.214e-09\RMSF=1.519e-05\ZeroPoint=0.1376498\
 Thermal=0.1458058\Dipole=-0.6496217,-0.7317408,0.194298\DipoleDeriv=0.
 0668185,-0.0188429,-0.0419453,-0.104214,-0.0249679,0.0154181,0.0651081
 ,0.0131568,0.2102243,0.1864427,0.0236666,0.0871487,0.2252054,0.0814996
 ,-0.0437874,-0.0103011,-0.028705,-0.157206,-0.1982948,0.0730173,0.0389
 075,0.0308194,0.1009039,-0.02021,-0.0809988,-0.0439301,-0.1627328,-0.3
 617282,-0.0464987,0.2917021,-0.8333795,0.1942394,0.2589916,0.5345593,-
 0.0393907,-0.031091,0.3123685,0.0323749,0.0391708,0.6043037,-0.0294018
 ,-0.2711362,0.3341265,0.0504918,-0.1449192,0.0116304,0.0564591,-0.0828
 243,0.0566397,0.1004702,-0.0094053,-0.2490689,-0.0807544,0.141154,-0.0
 135766,-0.0749609,0.0061931,-0.0609865,-0.1291564,0.0190414,0.022931,0
 .0613593,0.0638972,-0.0424954,-0.0275048,0.0676244,-0.0020937,0.056232
 8,0.0206347,-0.0079159,-0.0736042,-0.1017301,-0.0037247,0.0665953,-0.0
 786736,0.0426901,-0.0407258,0.04772,-0.0789599,0.026736,0.0748373,0.25
 86257,0.0028743,-0.0412818,-0.0774567,0.1396802,-0.0330604,-0.1192158,
 -0.0847,0.2921031,0.0271169,-0.0529093,-0.0246956,-0.0095473,-0.071168
 ,-0.01219,-0.0475952,0.0185564,0.1245387,-0.0011977,0.0580027,-0.03982
 02,0.075514,-0.0778924,0.0285062,-0.0459715,0.041924,0.1084357,-0.0462
 074,-0.005085,-0.0777411,-0.0231737,0.036606,-0.0095262,-0.1440137,-0.
 0232279,-0.0445407,-0.0337481,0.0010096,0.0725405,-0.0750114,0.0073327
 ,-0.0059101,0.1586742,0.0225083,-0.0756714,1.2007333,0.0283946,-0.4412
 673,-0.3172102,-0.288738,0.040879,0.06743,0.1010729,-0.2033349,0.00820
 11,-0.0135896,-0.1053171,0.02085,0.0410899,-0.0154952,-0.0861557,-0.01
 36378,0.0484029,-1.3709641,-0.1030032,0.3302792,0.4470509,-0.0960044,-
 0.0104703,-0.3126324,0.0521445,-0.1423672\Polar=126.1604886,3.3380121,
 79.4223906,-3.7029249,-1.663644,61.6243889\Quadrupole=-0.0562874,1.915
 4565,-1.8591691,-3.6966351,1.0612219,0.8688081\PG=C01 [X(C6H9O2)]\NIma
 g=1\\0.52249501,0.01907072,0.44647496,0.02758356,0.00283870,0.55165673
 ,-0.10396074,-0.04237969,-0.00764540,0.76569316,-0.03651330,-0.1862791
 6,-0.00488537,-0.00966328,0.57097774,-0.00786089,0.00031954,-0.0747634
 2,0.19564057,-0.04411714,0.21460550,-0.01715529,-0.01462871,-0.0044699
 5,-0.46328292,-0.05789494,-0.12545974,0.73042819,-0.03244430,-0.004147
 68,-0.00782975,-0.07068049,-0.12900036,-0.01926671,0.10301376,0.641217
 81,-0.00093831,-0.00212786,0.00765207,-0.12670361,-0.01328983,-0.09366
 677,0.18739679,-0.01796319,0.20115701,0.00496224,-0.00153621,0.0035548
 4,-0.03175100,0.02710280,-0.01846388,-0.12442413,0.05681765,-0.0467866
 4,0.38368601,-0.00121205,-0.00283873,-0.00079877,0.01891187,0.01693015
 ,0.00759351,0.04685137,-0.18357382,0.01818548,0.00507200,0.59700390,0.
 00269122,0.00127803,-0.00755890,-0.01182378,0.00592685,0.00386945,-0.0
 4657029,0.03792318,-0.08427897,0.33452868,0.07296384,0.27964725,-0.024
 20312,0.00553825,-0.01756216,-0.00146380,-0.00129560,-0.00182765,0.015
 63836,0.01770661,0.00499817,-0.08864977,-0.06432161,-0.06599049,0.4215
 7904,0.01881867,0.00761277,0.01590004,-0.00580252,-0.00502046,-0.00014
 502,0.00381252,-0.03544976,0.01132814,-0.02682213,-0.30118689,-0.07480
 353,-0.01491817,0.65874169,-0.00569895,0.00542097,-0.00028384,-0.00007
 351,0.00149386,-0.00065361,0.00479067,0.00875498,0.00625017,-0.0407237
 0,-0.02157890,-0.06972211,0.20180798,-0.04970420,0.27202060,-0.1247367
 0,0.04150173,0.00427168,0.01373686,-0.00312425,-0.00066891,-0.00348386
 ,-0.00043239,0.00100427,-0.01229548,-0.01518407,-0.00726069,-0.1564277
 9,-0.01668530,-0.07079227,0.46732931,0.04356273,-0.12533479,-0.0081684
 7,0.02140291,-0.03139480,-0.00012155,0.00092409,0.00313960,-0.00030710
 ,-0.02591356,-0.00529392,-0.02345974,-0.02074098,-0.09505250,-0.008926
 05,0.05933085,0.54707093,0.00874251,-0.00891886,-0.07285109,-0.0005151
 0,0.00253818,0.00118173,0.00096038,0.00173142,-0.00279478,-0.00990808,
 -0.00649828,0.00527977,-0.06338052,-0.00966251,-0.10708010,-0.01897832
 ,-0.01903539,0.48896548,0.01020045,0.02229312,-0.00454450,-0.00430012,
 0.00261307,-0.00026669,0.00004753,0.00038629,0.00021786,-0.00449738,0.
 00041373,-0.00318096,-0.00966868,-0.02418592,0.00695231,-0.08995016,-0
 .09024186,0.02321437,0.09843887,-0.00888241,-0.01973121,0.00437363,0.0
 0477670,-0.00163515,0.00034433,0.00013516,0.00046862,0.00004026,-0.000
 87902,0.00100655,-0.00020110,-0.00251717,-0.00507675,-0.00005732,-0.08
 999363,-0.25030236,0.05412284,0.09816927,0.27315195,-0.00088502,-0.004
 06785,-0.00058708,0.00060510,-0.00084419,0.00078766,-0.00005231,0.0000
 8728,0.00019789,-0.00328159,0.00046711,-0.00222017,-0.00990968,-0.0211
 9943,0.00298931,0.02482151,0.05693259,-0.05926636,-0.02455008,-0.05851
 655,0.06475901,-0.01102744,0.00351238,0.02241610,0.00006350,-0.0014276
 5,0.00004482,0.00022269,0.00104993,-0.00085925,0.00004527,0.00074273,-
 0.00073347,0.00623724,-0.00350119,-0.02582712,-0.06259712,0.00177577,0
 .06356282,-0.00411031,0.00015671,0.01269986,0.07567980,0.01042025,-0.0
 0302344,-0.02267710,0.00054736,0.00173903,0.00013868,-0.00084523,0.000
 28119,0.00028316,-0.00170882,-0.00026621,0.00041266,0.00062064,-0.0000
 0663,-0.00750972,0.00268389,-0.04596192,-0.00996440,-0.00859733,0.0011
 4049,0.02777118,-0.00628847,0.04788442,0.00205927,-0.00015772,-0.00241
 063,-0.00037885,-0.00041010,-0.00009166,0.00061971,-0.00043069,0.00000
 352,-0.00005417,0.00300936,-0.00089652,-0.00551838,-0.00469120,-0.0221
 7638,0.07599455,-0.01033629,-0.25717926,0.00307110,0.00088401,-0.00777
 758,-0.07445899,0.01304373,0.28681992,-0.00216842,-0.00130508,-0.00378
 443,-0.00001078,-0.00073248,0.00038732,0.00071658,-0.00164201,-0.00244
 784,0.00900817,-0.01189347,0.00351281,-0.12407146,0.11376041,-0.072398
 89,-0.00736247,0.01596563,-0.00731649,0.00092872,0.00015131,0.00104554
 ,-0.00133265,0.00042062,-0.00080585,0.12501124,-0.00119203,0.00020030,
 -0.00104450,-0.00038733,0.00005971,-0.00026035,-0.00444432,-0.00341074
 ,-0.00052392,0.01798449,-0.01962216,0.01206766,0.10771627,-0.21533490,
 0.08500284,-0.00530293,0.00782052,-0.00339300,0.00040957,0.00098831,0.
 00042842,0.00029296,-0.00015337,-0.00047082,-0.11627263,0.22808850,-0.
 00098547,-0.00210563,-0.00199197,-0.00010453,-0.00055492,-0.00044683,-
 0.00203476,-0.00108597,0.00471373,0.00193197,0.00055539,0.00482316,-0.
 07222532,0.08149782,-0.07959039,-0.00846319,0.01433419,0.00046864,0.00
 028348,-0.00070975,0.00058244,0.00072642,-0.00068817,-0.00080916,0.079
 84734,-0.09126888,0.07301137,-0.00013320,0.00018716,0.00006784,0.00010
 589,0.00018404,0.00010925,-0.00100632,-0.00005417,0.00082867,0.0012142
 3,0.00413423,-0.00245502,-0.00076788,-0.00137891,-0.00002457,-0.000044
 31,-0.00010456,0.00038496,0.00006585,-0.00002745,-0.00004090,-0.000005
 34,0.00003951,-0.00014086,-0.00008236,-0.00034751,0.00031820,0.0655293
 3,-0.00003076,-0.00005517,0.00010513,0.00010140,0.00029971,-0.00018007
 ,-0.00026219,-0.00008764,0.00022983,-0.00116304,-0.00047248,0.00068204
 ,-0.00031647,0.00095379,0.00082488,0.00012679,0.00000630,-0.00001062,-
 0.00007598,-0.00004564,-0.00001743,-0.00002233,0.00006419,-0.00021579,
 -0.00001310,-0.00020397,0.00008893,-0.06824847,0.42352819,0.00002309,-
 0.00024056,-0.00009711,0.00012500,0.00000618,0.00008663,0.00030563,0.0
 0007176,-0.00053026,-0.00237057,-0.00431057,0.00188865,0.00163161,0.00
 186075,0.00023802,-0.00010747,0.00024981,-0.00041423,-0.00006731,0.000
 02276,0.00002897,-0.00042700,-0.00011922,-0.00009207,0.00015799,0.0003
 4895,-0.00019309,-0.00447352,0.16191499,0.07846041,-0.00249475,0.00133
 897,-0.00529346,-0.00893749,-0.03054950,-0.00101209,-0.09346034,-0.098
 36956,-0.00928814,0.00835896,0.01892410,0.00177577,-0.00228574,0.00295
 383,-0.00171806,-0.00029881,0.00012340,0.00003392,0.00013551,-0.000110
 34,0.00003202,0.00002751,-0.00003107,0.00002516,0.00036346,0.00105240,
 0.00006989,0.00005652,-0.00002866,-0.00004597,0.09759627,-0.00009306,0
 .00183935,0.00088590,-0.00030376,-0.00107900,0.00060898,-0.09868072,-0
 .29646505,-0.00487671,-0.00914887,-0.01734755,-0.00206476,0.00304362,-
 0.00243061,0.00212228,0.00029566,0.00047258,0.00031436,-0.00005439,0.0
 0002711,-0.00001735,0.00000223,-0.00001067,-0.00003999,-0.00039046,-0.
 00101291,-0.00039658,-0.00015687,0.00004366,0.00010597,0.10640640,0.31
 338026,-0.00427885,0.00117217,0.01057434,-0.00457552,-0.00996639,0.004
 03281,-0.00921711,-0.00306292,-0.04007332,0.00352956,0.00862685,0.0027
 6244,-0.00213445,0.00098029,0.00022106,0.00044760,0.00058596,-0.000037
 12,0.00001299,0.00007424,-0.00005620,0.00013976,-0.00007637,-0.0000092
 9,0.00018573,0.00045983,0.00013339,-0.00000280,-0.00002623,-0.00006866
 ,0.01340661,0.00343694,0.02938307,0.01058945,-0.01058337,0.00216907,-0
 .14731564,0.11976273,-0.04417010,-0.01450079,0.02598938,-0.00900030,-0
 .00379118,-0.00364755,-0.00472937,-0.00015774,-0.00018101,0.00000528,-
 0.00083458,-0.00240982,0.00024114,0.00058189,-0.00065613,-0.00016948,0
 .00003396,0.00004242,-0.00001534,0.00003596,0.00017518,0.00018311,0.00
 005776,-0.00001264,-0.00004420,0.00024114,0.00003704,0.00245991,0.1547
 5012,0.01682294,-0.01670029,0.00518075,0.12468788,-0.22124414,0.056130
 93,-0.00534585,0.00694664,-0.00169810,-0.00126215,0.00081944,0.0005508
 2,-0.00075095,0.00043230,-0.00043401,-0.00427947,-0.00343385,0.0010543
 2,0.00130192,-0.00110253,-0.00021214,0.00008296,0.00003053,-0.00010136
 ,0.00013102,0.00007596,0.00003882,-0.00006667,-0.00000752,0.00005097,0
 .00044278,0.00110358,-0.00058913,-0.13121368,0.23209314,-0.00131038,-0
 .00282845,0.00267002,-0.04321221,0.05565272,-0.05682393,-0.00829614,0.
 00854489,0.00319103,-0.00141513,0.00073155,0.00990498,0.00003538,-0.00
 016849,-0.00024060,-0.00102096,-0.00071451,0.00094395,-0.00000209,-0.0
 0011977,0.00019466,0.00009788,-0.00008245,-0.00000410,0.00032116,0.000
 00473,-0.00052351,-0.00016134,-0.00004739,0.00008250,0.00246903,-0.000
 95403,-0.00639812,0.05314489,-0.05959240,0.04606819,-0.14665703,-0.010
 55434,-0.12486222,-0.01128459,-0.00306183,-0.00993477,0.00140260,-0.00
 218355,0.00028731,0.00062574,0.00053430,-0.00039471,-0.00155794,0.0043
 8028,0.00068322,-0.01639155,-0.00122506,-0.01608438,0.00018866,0.00029
 434,-0.00000864,0.00070768,-0.00095656,0.00010245,-0.00087574,-0.00040
 796,-0.00083698,0.00005470,-0.00000217,-0.00009461,-0.00075708,-0.0000
 1721,0.00033536,0.00082363,0.00005438,0.00069266,0.16250704,-0.0106951
 7,-0.04814291,-0.01439549,-0.02187431,-0.00302444,-0.02604860,-0.00061
 003,-0.00526042,0.00056361,0.00015248,-0.00127823,0.00002066,0.0021104
 8,-0.00362231,-0.00091425,0.01726917,0.00168263,0.01782655,-0.00053993
 ,-0.00003434,0.00023884,-0.00072123,0.00147375,0.00020518,0.00093328,0
 .00033697,0.00094531,-0.00008030,-0.00004168,0.00007480,-0.00160212,0.
 00009316,0.00131641,0.00055235,0.00118205,0.00046840,0.01177406,0.0556
 0332,-0.12723635,-0.01493846,-0.19959350,0.00152138,0.00107331,0.00117
 856,0.00027200,-0.00015017,-0.00005253,0.00066011,-0.00021014,-0.00008
 775,0.00070966,-0.00078018,0.00084262,0.00448562,0.00019616,0.00264694
 ,-0.00037527,0.00031817,-0.00015968,0.00009598,0.00016891,0.00137627,0
 .00013129,0.00002514,0.00036660,0.00000546,-0.00002172,-0.00003202,0.0
 0001249,0.00012187,-0.00002875,-0.00013108,-0.00064404,0.00060263,0.13
 675553,0.01671118,0.21581728,-0.11478575,-0.01318774,0.10813778,-0.011
 59879,-0.00750137,0.01049140,0.00190720,-0.00232970,0.00031775,-0.0011
 7814,0.00009551,0.00073766,0.00133718,0.00006535,0.00025496,-0.0123086
 5,-0.00119595,0.01913347,0.00154441,-0.00048005,-0.00042522,-0.0026279
 3,0.00314725,0.00019284,-0.00018431,0.00003457,0.00015764,0.00003926,-
 0.00001171,0.00001889,0.00010042,-0.00017182,-0.00110389,-0.00027362,-
 0.00044256,0.00026407,0.01132089,0.00300204,-0.01655061,0.12632999,-0.
 01850224,-0.04898708,0.03062526,-0.01959526,-0.00554949,0.02415826,-0.
 00009919,-0.00209495,-0.00036657,0.00106587,-0.00093181,0.00157392,-0.
 00164591,0.00013198,-0.00078330,0.01359597,0.00089106,-0.02041643,-0.0
 0055233,0.00118897,-0.00030489,0.00451302,-0.00296836,-0.00035349,0.00
 014025,0.00006950,-0.00012395,-0.00013193,-0.00005813,0.00003548,0.000
 45661,-0.00030660,-0.00243566,0.00081669,-0.00047455,-0.00090052,0.001
 53868,0.00044653,-0.00196053,0.01898947,0.05788666,0.10722279,0.024975
 67,-0.21345284,0.00007688,0.00313659,0.00361645,-0.00225762,0.00032203
 ,-0.00033538,0.00185784,-0.00062081,-0.00077129,0.00021966,-0.00041371
 ,0.00023958,0.00095059,-0.00121949,-0.00158096,-0.00009408,-0.00068310
 ,0.00064097,0.00026679,-0.00073585,0.00145249,0.00012604,0.00004426,0.
 00004505,-0.00007182,0.00004568,0.00004903,0.00015120,-0.00006113,-0.0
 0040343,0.00048948,0.00054995,-0.00006371,0.01306615,0.00355767,-0.023
 13633,-0.12097020,-0.02902868,0.23278532,-0.00151809,0.00192799,-0.001
 11389,0.00150021,-0.00338623,0.00390449,-0.01658234,0.00754940,0.01119
 049,0.07949103,0.05998139,-0.06349536,-0.03485671,-0.06231690,0.003039
 47,0.00236388,-0.00040506,0.00471914,0.00084413,-0.00004351,0.00014884
 ,0.00053975,0.00086694,0.00069748,0.00061620,0.00127664,-0.00137469,-0
 .03054633,0.00914758,-0.01112140,0.00126588,-0.00202676,0.00041354,0.0
 0070725,-0.00021836,-0.00163333,0.00005243,0.00043962,-0.00009005,0.00
 056944,-0.00050921,-0.00140109,0.19193329,0.00077710,-0.00093815,-0.00
 016836,-0.00085130,-0.00063010,-0.00038045,0.00924950,-0.00148567,-0.0
 0601825,-0.00913208,-0.01865307,0.00972529,-0.00412708,0.00321006,0.00
 974189,0.00059868,0.00060487,-0.00139986,-0.00027323,0.00005706,0.0000
 7600,-0.00061001,-0.00032686,-0.00047480,0.00007909,0.00052444,-0.0003
 4969,0.04054908,0.00037913,0.02310611,-0.00047457,0.00104551,-0.000293
 17,-0.00013038,0.00018764,0.00069198,-0.00015292,0.00031235,-0.0000374
 5,0.00003013,0.00039935,0.00027534,-0.07384380,0.06393876,0.00025489,0
 .00024673,0.00116675,-0.00207517,0.00239326,-0.00164357,0.00285267,-0.
 00377420,0.00119055,-0.05904781,-0.02053782,0.00131587,0.02334890,0.03
 439068,-0.00924788,-0.00269369,-0.00033934,-0.00129117,0.00006345,0.00
 000701,0.00010733,0.00137879,-0.00019863,0.00164019,-0.00033277,-0.000
 26174,0.00105227,0.00673738,0.00338312,0.00294681,-0.00041185,0.000262
 88,-0.00001039,-0.00007253,-0.00017222,-0.00008190,0.00032084,-0.00055
 809,0.00024035,-0.00053368,0.00007553,0.00045683,0.10668096,-0.0318285
 2,0.09369755,0.00046717,0.00030358,0.00005480,0.00101462,0.00256607,-0
 .00073228,-0.01170105,-0.00316337,-0.01173289,-0.18318493,-0.03800470,
 -0.15095223,-0.00708061,-0.00625370,-0.00713999,0.00313273,-0.00145862
 ,-0.00187748,0.00013784,0.00000203,-0.00012276,-0.00064033,-0.00008448
 ,-0.00046367,-0.00065330,0.00017883,0.00256809,-0.00010760,-0.00014384
 ,-0.00009362,0.00041306,0.00024417,0.00085181,-0.00077449,-0.00007765,
 0.00047450,0.00000612,-0.00005489,-0.00004059,0.00001448,-0.00007754,-
 0.00015803,-0.00574751,0.00213505,0.01655235,0.20241412,0.00006027,-0.
 00015075,0.00035958,0.00148401,-0.00414129,0.00112658,0.01727684,0.008
 20170,0.01752711,-0.04092124,-0.06902942,-0.03701588,-0.02346442,-0.00
 230757,-0.02123103,-0.00016720,-0.00482236,0.00125428,-0.00120454,-0.0
 0019843,-0.00087422,0.00009693,0.00001301,-0.00008518,0.00045429,0.001
 04694,0.00020752,0.00009350,0.00002649,-0.00023930,-0.00060604,0.00071
 642,-0.00034930,0.00146619,0.00006778,-0.00097966,-0.00004874,0.000151
 26,0.00003532,-0.00001645,0.00012878,0.00001427,0.00063107,0.00109645,
 -0.00089741,0.04452179,0.06952570,0.00016220,-0.00038716,-0.00023792,-
 0.00088842,0.00181003,-0.00036004,-0.00290480,-0.00322442,-0.00066979,
 -0.15608100,-0.04437028,-0.16222877,0.00251786,0.00628894,0.00322940,-
 0.00203807,0.00033242,0.00384899,-0.00048133,0.00008716,-0.00025327,0.
 00084954,0.00013778,0.00049280,0.00158598,-0.00053320,-0.00186347,0.00
 030284,-0.00005275,0.00001999,0.00009628,0.00017854,0.00006022,-0.0003
 0363,-0.00019177,0.00004646,-0.00002552,0.00001396,0.00002254,-0.00005
 394,0.00005860,0.00016933,0.00797351,-0.00097782,-0.02305839,0.1519269
 2,0.04064992,0.17913287,0.00012620,-0.00149877,0.00102034,0.00179164,0
 .00292172,-0.00018085,-0.00476611,-0.00121349,0.00151567,-0.03761964,-
 0.02139781,0.01434023,0.00639943,0.01825470,0.00686316,0.00016870,0.00
 061009,-0.00293235,-0.00058722,-0.00009584,0.00009280,-0.00121629,-0.0
 0027692,-0.00092644,0.00006114,-0.00076619,-0.00006118,-0.03443019,0.0
 6095557,0.01658345,-0.00032455,0.00101481,-0.00047025,-0.00017313,0.00
 013346,-0.00044798,-0.00016556,-0.00005548,-0.00022556,-0.00020608,-0.
 00000295,0.00052543,-0.19063252,0.03617674,-0.09302272,0.00228966,0.00
 034374,-0.00263841,0.25928450,0.00003265,0.00020199,-0.00030117,-0.000
 37418,-0.00100794,0.00009908,0.00154793,0.00072051,-0.00098606,0.01029
 183,0.00473425,-0.00557994,-0.00263750,-0.00559422,-0.00222292,-0.0002
 3351,-0.00009201,0.00045741,0.00013853,0.00009736,0.00005263,0.0003452
 5,0.00009086,0.00062516,0.00021332,0.00052688,-0.00038442,0.02540933,-
 0.42432923,-0.18293888,0.00007335,-0.00006922,0.00014647,-0.00000740,0
 .00002382,0.00029340,0.00003429,0.00012230,0.00009265,-0.00002697,0.00
 022812,-0.00015869,0.06092920,-0.04972177,0.01780874,-0.00063274,-0.00
 032473,0.00018005,-0.09510337,0.47439302,0.00045467,-0.00047927,0.0001
 0839,0.00002716,0.00003699,-0.00090895,0.00406487,-0.00064752,-0.00195
 416,-0.00793044,-0.01320753,0.01827291,0.00327943,0.00932162,0.0029641
 6,0.00004774,-0.00000321,-0.00084043,-0.00025322,0.00001318,0.00003209
 ,0.00002706,0.00009580,-0.00033856,-0.00021492,-0.00062542,0.00022176,
 -0.00138376,-0.16670259,-0.08237356,-0.00030279,0.00037284,-0.00008206
 ,-0.00005684,0.00007860,0.00043145,-0.00000167,-0.00002614,-0.00000322
 ,-0.00006891,0.00014698,0.00028888,-0.05853811,-0.00168824,-0.06848119
 ,0.00088508,0.00049740,0.00164905,0.05996465,0.17281649,0.13101343\\-0
 .00000894,-0.00000013,0.00000041,0.00000526,0.00000264,0.00000210,-0.0
 0001176,0.00001558,0.00000135,0.00001720,-0.00000112,-0.00000914,-0.00
 000996,-0.00000634,0.00000178,0.00000419,-0.00000481,0.00000259,0.0000
 0101,-0.00000181,-0.00000072,0.00000067,-0.00000071,0.00000182,0.00000
 619,0.00000420,-0.00000426,-0.00000645,0.00005840,0.00002006,-0.000001
 62,-0.00000207,0.00000108,0.00000053,-0.00000037,-0.00000161,0.0000004
 4,-0.00000287,-0.00000049,-0.00000135,0.00000045,-0.00000162,-0.000024
 20,0.00000455,-0.00001694,-0.00000524,0.00000174,0.00000900,0.00003405
 ,-0.00006733,-0.00000541\\\@


 IT IS UNWORTHY OF EXCELLENT MEN TO LOSE HOURS LIKE SLAVES IN THE LABOR
 OF CALCULATION WHICH COULD BE SAFELY RELEGATED TO ANYONE ELSE
 IF A MACHINE WERE USED.
    -- G.W. VON LEIBNIZ
 Job cpu time:       0 days  0 hours  1 minutes 27.2 seconds.
 Elapsed time:       0 days  0 hours  5 minutes 46.2 seconds.
 File lengths (MBytes):  RWF=    346 Int=      0 D2E=      0 Chk=     16 Scr=      1
 Normal termination of Gaussian 16 at Thu May 12 22:15:44 2022.
