 Entering Gaussian System, Link 0=g16
 Initial command:
 /apps/chpc/chem/gaussian16/B01/g16/l1.exe "/mnt/lustre/users/lmoskaleva/Kgalaletso/4179944.sched01/Gau-47220.inp" -scrdir="/mnt/lustre/users/lmoskaleva/Kgalaletso/4179944.sched01/"
 Entering Link 1 = /apps/chpc/chem/gaussian16/B01/g16/l1.exe PID=     47221.
  
 Copyright (c) 1988-2017, Gaussian, Inc.  All Rights Reserved.
  
 This is part of the Gaussian(R) 16 program.  It is based on
 the Gaussian(R) 09 system (copyright 2009, Gaussian, Inc.),
 the Gaussian(R) 03 system (copyright 2003, Gaussian, Inc.),
 the Gaussian(R) 98 system (copyright 1998, Gaussian, Inc.),
 the Gaussian(R) 94 system (copyright 1995, Gaussian, Inc.),
 the Gaussian 92(TM) system (copyright 1992, Gaussian, Inc.),
 the Gaussian 90(TM) system (copyright 1990, Gaussian, Inc.),
 the Gaussian 88(TM) system (copyright 1988, Gaussian, Inc.),
 the Gaussian 86(TM) system (copyright 1986, Carnegie Mellon
 University), and the Gaussian 82(TM) system (copyright 1983,
 Carnegie Mellon University). Gaussian is a federally registered
 trademark of Gaussian, Inc.
  
 This software contains proprietary and confidential information,
 including trade secrets, belonging to Gaussian, Inc.
  
 This software is provided under written license and may be
 used, copied, transmitted, or stored only in accord with that
 written license.
  
 The following legend is applicable only to US Government
 contracts under FAR:
  
                    RESTRICTED RIGHTS LEGEND
  
 Use, reproduction and disclosure by the US Government is
 subject to restrictions as set forth in subparagraphs (a)
 and (c) of the Commercial Computer Software - Restricted
 Rights clause in FAR 52.227-19.
  
 Gaussian, Inc.
 340 Quinnipiac St., Bldg. 40, Wallingford CT 06492
  
  
 ---------------------------------------------------------------
 Warning -- This program may not be used in any manner that
 competes with the business of Gaussian, Inc. or will provide
 assistance to any competitor of Gaussian, Inc.  The licensee
 of this program is prohibited from giving any competitor of
 Gaussian, Inc. access to this program.  By using this program,
 the user acknowledges that Gaussian, Inc. is engaged in the
 business of creating and licensing software in the field of
 computational chemistry and represents and warrants to the
 licensee that it is not a competitor of Gaussian, Inc. and that
 it will not use this program in any manner prohibited above.
 ---------------------------------------------------------------
  

 Cite this work as:
 Gaussian 16, Revision B.01,
 M. J. Frisch, G. W. Trucks, H. B. Schlegel, G. E. Scuseria, 
 M. A. Robb, J. R. Cheeseman, G. Scalmani, V. Barone, 
 G. A. Petersson, H. Nakatsuji, X. Li, M. Caricato, A. V. Marenich, 
 J. Bloino, B. G. Janesko, R. Gomperts, B. Mennucci, H. P. Hratchian, 
 J. V. Ortiz, A. F. Izmaylov, J. L. Sonnenberg, D. Williams-Young, 
 F. Ding, F. Lipparini, F. Egidi, J. Goings, B. Peng, A. Petrone, 
 T. Henderson, D. Ranasinghe, V. G. Zakrzewski, J. Gao, N. Rega, 
 G. Zheng, W. Liang, M. Hada, M. Ehara, K. Toyota, R. Fukuda, 
 J. Hasegawa, M. Ishida, T. Nakajima, Y. Honda, O. Kitao, H. Nakai, 
 T. Vreven, K. Throssell, J. A. Montgomery, Jr., J. E. Peralta, 
 F. Ogliaro, M. J. Bearpark, J. J. Heyd, E. N. Brothers, K. N. Kudin, 
 V. N. Staroverov, T. A. Keith, R. Kobayashi, J. Normand, 
 K. Raghavachari, A. P. Rendell, J. C. Burant, S. S. Iyengar, 
 J. Tomasi, M. Cossi, J. M. Millam, M. Klene, C. Adamo, R. Cammi, 
 J. W. Ochterski, R. L. Martin, K. Morokuma, O. Farkas, 
 J. B. Foresman, and D. J. Fox, Gaussian, Inc., Wallingford CT, 2016.
 
 ******************************************
 Gaussian 16:  ES64L-G16RevB.01 20-Dec-2017
                12-May-2022 
 ******************************************
 %nprocshared=24
 Will use up to   24 processors via shared memory.
 %lindaworkers=cnode1083.cm.cluster,cnode1090.cm.cluster,cnode1104.cm.cluster
 %mem=20GB
 %chk=cyclohexenylO2-H-Shift-TS3-QST2-b3lyp-c.chk
 SetLPE:    new flags="-opt 'Tsnet.Node.lindarsharg: ssh'  -nodelist 'cnode1083.cm.cluster cnode1090.cm.cluster cnode1104.cm.cluster' -env GAUSS_MDEF=2684354560 -env GAUSS_EXEDIR="/apps/chpc/chem/gaussian16/B01/g16/bsd:/apps/chpc/chem/gaussian16/B01/g16""
 Will use up to    3 processors via Linda.
 ----------------------------------------------------------------------
 # opt=(calcfc,qst2,modredundant) freq ub3lyp cc-pvtz+d int=grid=ultraf
 ine
 ----------------------------------------------------------------------
 1/5=1,10=4,18=120,26=4,27=202,38=1/1,3;
 2/9=110,12=2,17=6,18=5,40=1/2;
 3/5=16,6=1,7=9,11=2,25=1,30=1,71=2,74=-5,75=-5,116=2,140=1/1,2,3;
 4//1;
 5/5=2,38=5/2;
 8/6=4,10=90,11=11/1;
 11/6=1,8=1,9=11,15=111,16=1/1,2,10;
 10/6=1,13=1/2;
 6/7=2,8=2,9=2,10=2,28=1/1;
 7/10=1,18=20,25=1/1,2,3,16;
 1/5=1,10=4,18=20,26=4,27=202/3(2);
 2/9=110/2;
 99//99;
 2/9=110/2;
 3/5=16,6=1,7=9,11=2,25=1,30=1,71=1,74=-5,75=-5,116=2/1,2,3;
 4/5=5,16=3,69=1/1;
 5/5=2,38=5/2;
 7//1,2,3,16;
 1/5=1,18=20,26=4,27=202/3(-5);
 2/9=110/2;
 6/7=2,8=2,9=2,10=2,19=2,28=1/1;
 99/9=1/99;
 ---------------------------------------
 cyclohexenylO2-H-Shift-TS3-QST2-b3lyp-c
 ---------------------------------------
 Symbolic Z-matrix:
 Charge =  0 Multiplicity = 2
 C                    -2.14352  -0.29637  -0.24824 
 C                    -1.62624   1.10606  -0.10958 
 C                    -0.37444   1.40615   0.22756 
 C                     0.64545   0.36142   0.55167 
 C                     0.061    -1.03448   0.71994 
 C                    -1.01187  -1.32367  -0.32938 
 H                    -1.40495  -2.33297  -0.20176 
 H                    -0.55889  -1.28258  -1.32259 
 H                    -0.37001  -1.0971    1.72339 
 H                     0.8749   -1.75836   0.67812 
 H                    -0.0552    2.43889   0.28913 
 H                    -2.32947   1.91126  -0.29215 
 H                    -2.78259  -0.36073  -1.13243 
 H                    -2.80031  -0.51748   0.60229 
 O                     1.61965   0.36789  -0.5766 
 H                     1.23977   0.64091   1.42126 
 O                     2.74092  -0.23747  -0.25304 
 
 The following ModRedundant input section has been read:
 B      10      17 B                                                           
 
 -------------------
 Title Card Required
 -------------------
 Symbolic Z-matrix:
 Charge =  0 Multiplicity = 2
 C                    -1.49724   0.86133  -0.38694 
 C                    -0.91045   2.24289  -0.3753 
 C                     0.36963   2.50433  -0.12776 
 C                     1.37524   1.44334   0.21218 
 C                     0.79259   0.07771   0.25417 
 C                    -0.41856  -0.22241  -0.55571 
 H                    -0.82038  -1.20687  -0.31414 
 H                    -0.14177  -0.25564  -1.62097 
 H                     1.35969  -0.71672   0.71868 
 H                     3.61886   0.13045  -0.90776 
 H                     0.7399    3.52132  -0.14442 
 H                    -1.5884    3.06717  -0.56758 
 H                    -2.23748   0.7816   -1.18653 
 H                    -2.04739   0.69711   0.54645 
 O                     2.40207   1.57373  -0.82645 
 H                     1.8747    1.68756   1.15399 
 O                     3.60303   0.91594  -0.3451 
 
 The following ModRedundant input section has been read:
 B      10      17 B                                                           
 
 Iteration  1 RMS(Cart)=  0.09337747 RMS(Int)=  0.48263935
 Iteration  2 RMS(Cart)=  0.04756729 RMS(Int)=  0.45934433
 Iteration  3 RMS(Cart)=  0.03938026 RMS(Int)=  0.44508020
 Iteration  4 RMS(Cart)=  0.03282093 RMS(Int)=  0.43833278
 Iteration  5 RMS(Cart)=  0.02961338 RMS(Int)=  0.43401865
 Iteration  6 RMS(Cart)=  0.02783906 RMS(Int)=  0.43091815
 Iteration  7 RMS(Cart)=  0.02654437 RMS(Int)=  0.42965330
 Iteration  8 RMS(Cart)=  0.01255453 RMS(Int)=  0.42993050
 Iteration  9 RMS(Cart)=  0.00128187 RMS(Int)=  0.43006085
 Iteration 10 RMS(Cart)=  0.00032838 RMS(Int)=  0.43008811
 Iteration 11 RMS(Cart)=  0.00008768 RMS(Int)=  0.43009318
 Iteration 12 RMS(Cart)=  0.00002339 RMS(Int)=  0.43009390
 Iteration 13 RMS(Cart)=  0.00000629 RMS(Int)=  0.43009391
 Iteration 14 RMS(Cart)=  0.00000170 RMS(Int)=  0.43009386
 Iteration 15 RMS(Cart)=  0.00000047 RMS(Int)=  0.43009383
 Iteration  1 RMS(Cart)=  0.00000013 RMS(Int)=  0.43009382
 Iteration  1 RMS(Cart)=  0.00000004 RMS(Int)=  0.43009381
 Iteration  1 RMS(Cart)=  0.00000001 RMS(Int)=  0.43009381
 Iteration  1 RMS(Cart)=  0.00000000 RMS(Int)=  0.43009381
 Iteration  1 RMS(Cart)=  0.00000000 RMS(Int)=  0.43009381
 Iteration  1 RMS(Cart)=  0.00000000 RMS(Int)=  0.43009381
 Iteration  1 RMS(Cart)=  0.00000000 RMS(Int)=  0.43009381
 Iteration  1 RMS(Cart)=  0.00000000 RMS(Int)=  0.43009381
 Iteration  1 RMS(Cart)=  0.00000000 RMS(Int)=  0.43009381
   Var     Old X     New X   DQ Goal   DQ Act.  Rel. Err.   Overall
     1    2.8369    2.8497   -0.0001    0.0129
     2    2.8923    2.8905    0.0074   -0.0018
     3    2.0652    2.0649   -0.0003   -0.0003
     4    2.0733    2.0720   -0.0012   -0.0012
     5    2.5146    2.5313   -0.0009    0.0167
     6    2.0495    2.0494   -0.0001   -0.0001
     7    2.8262    2.8373    0.0050    0.0111
     8    2.0460    2.0458   -0.0003   -0.0003
     9    2.8774    2.8144   -0.0353   -0.0630    1.7869
    10    2.8170    2.7386   -0.0230   -0.0783    3.4057
    11    2.0593    2.0630    0.0037    0.0037
    12    2.8881    2.8381   -0.0385   -0.0500    1.2973
    13    2.0672    2.0549   -0.0122   -0.0122    1.0000
    14    2.0599    3.9572    1.8578    1.8973    1.0213
    15    2.0610    2.0608   -0.0002   -0.0002
    16    2.0643    2.0726    0.0082    0.0082
    17    4.8776    3.3659   -1.5258   -1.5118    0.9908
    18    2.4844    2.6084    0.1292    0.1240    0.9594
    19    1.9575    1.9299   -0.0011   -0.0277
    20    1.9084    1.9140    0.0034    0.0056
    21    1.8996    1.9168    0.0025    0.0172
    22    1.9283    1.9294   -0.0035    0.0011
    23    1.9267    1.9324   -0.0046    0.0056
    24    1.8393    1.8394    0.0036    0.0001
    25    2.1630    2.1732    0.0003    0.0101
    26    2.0427    2.0375   -0.0004   -0.0053
    27    2.0774    2.0725    0.0001   -0.0048
    28    2.1399    2.1485    0.0055    0.0086
    29    2.1024    2.1034    0.0025    0.0011
    30    2.0408    2.0310   -0.0081   -0.0098
    31    1.9852    1.9520   -0.0049   -0.0331
    32    1.8531    1.8928   -0.0169    0.0397   -2.3424
    33    1.9452    1.9267   -0.0120   -0.0185    1.5333
    34    1.9161    1.8939    0.0203   -0.0222   -1.0927
    35    1.9351    1.9654    0.0020    0.0304
    36    1.8198    1.8271    0.0123    0.0073    0.5933
    37    1.9466    2.0419    0.0678    0.0953    1.4051
    38    1.8808    2.0974    0.0965    0.2166    2.2447
    39    1.8944    1.5683   -0.3618   -0.3261    0.9014
    40    1.9203    2.0700    0.0945    0.1498    1.5846
    41    1.9521    2.0004    0.1002    0.0482    0.4817
    42    1.8665    1.5062   -0.3050   -0.3602    1.1813
    43    1.9344    1.9345    0.0072    0.0001
    44    1.9267    1.9510    0.0026    0.0242
    45    1.9066    1.9293   -0.0137    0.0227   -1.6620
    46    1.9260    1.9184    0.0074   -0.0076
    47    1.9029    1.9011    0.0011   -0.0018
    48    1.8657    1.8261   -0.0057   -0.0396
    49    1.7339    1.6446   -0.1937   -0.0893    0.4608
    50    1.9488    1.8293   -0.0345   -0.1195    3.4689
    51    1.3114    1.6008    0.2247    0.2894    1.2880
    52   -0.2665   -0.3066   -0.0350   -0.0402    1.1473
    53    2.8824    2.8421   -0.0303   -0.0403    1.3296
    54   -2.4118   -2.4387   -0.0322   -0.0269    0.8349
    55    0.7371    0.7101   -0.0276   -0.0271    0.9824
    56    1.8706    1.8310   -0.0398   -0.0397    0.9960
    57   -1.2637   -1.3035   -0.0351   -0.0398    1.1332
    58    0.7786    0.7702   -0.0284   -0.0084    0.2963
    59    2.9180    2.9170   -0.0119   -0.0010    0.0840
    60   -1.3184   -1.3396   -0.0254   -0.0211    0.8334
    61    2.9126    2.8932   -0.0272   -0.0195    0.7153
    62   -1.2312   -1.2432   -0.0108   -0.0121    1.1175
    63    0.8156    0.7834   -0.0242   -0.0322    1.3297
    64   -1.3430   -1.3583   -0.0275   -0.0153    0.5541
    65    0.7964    0.7885   -0.0111   -0.0079    0.7067
    66    2.8431    2.8151   -0.0245   -0.0280    1.1406
    67   -0.0374   -0.0505    0.0019   -0.0131
    68    3.1168    3.1140    0.0059   -0.0028
    69    3.0968    3.0838   -0.0029   -0.0130
    70   -0.0322   -0.0349    0.0012   -0.0027
    71   -0.1929   -0.0846    0.0924    0.1083    1.1728
    72    1.9161    2.0033    0.1032    0.0871    0.8444
    73   -2.3960   -2.2875    0.1032    0.1084    1.0510
    74    2.9365    3.0349    0.0886    0.0985    1.1118
    75   -1.2377   -1.1604    0.0994    0.0773    0.7774
    76    0.7334    0.8320    0.0993    0.0985    0.9920
    77    0.7147    0.6070   -0.1281   -0.1077    0.8406
    78   -1.3947   -2.1258   -0.7442   -0.7311    0.9824
    79    2.8731    2.6628   -0.1903   -0.2103    1.1050
    80   -1.3586   -1.4802   -0.1173   -0.1215    1.0359
    81    2.8152    2.0702   -0.7334   -0.7450    1.0157
    82    0.7997    0.5755   -0.1795   -0.2242    1.2485
    83    2.9231    2.7887   -0.1464   -0.1344    0.9175
    84    0.8137    0.0559   -0.7626   -0.7578    0.9938
    85   -1.2017   -1.4387   -0.2086   -0.2370    1.1358
    86    2.8456    2.8140   -0.0144   -0.0316    2.1962
    87   -1.2846   -1.3453   -0.0195   -0.0607    3.1180
    88    0.7893    0.7571    0.0011   -0.0322
    89   -1.0184   -0.9759    0.0969    0.0425    0.4383
    90    3.1250   -3.1414   -3.0584   -6.2664    2.0489
    91    1.0809    1.1505    0.0851    0.0696    0.8171
    92    1.0678    1.7635    0.7267    0.6957    0.9574
    93   -1.0720   -0.4019    0.7130    0.6701    0.9398
    94   -3.1161   -2.3933    0.7149    0.7228    1.0110
    95    3.1395   -2.7791   -2.6844   -5.9186    2.2048
    96    0.9997    1.3386    0.4434    0.3389    0.7643
    97   -1.0444   -0.6527    0.4454    0.3917    0.8794
    98   -0.2379    0.0616    0.3408    0.2996    0.8791
    99    1.9171    2.1539    0.2317    0.2367    1.0217
   100   -2.2627   -2.0372    0.1886    0.2255    1.1959
   101   -0.3631   -0.6790   -0.2723   -0.3159    1.1599
   102    0.7563    1.2016    0.5672    0.4453    0.7852

 GradGradGradGradGradGradGradGradGradGradGradGradGradGradGradGradGradGrad
 Berny optimization.
 Initialization pass.
                           ----------------------------
                           !    Initial Parameters    !
                           ! (Angstroms and Degrees)  !
 --------------------------                            --------------------------
 ! Name  Definition         TS        Reactant Product Derivative Info.         !
 --------------------------------------------------------------------------------
 ! R1    R(1,2)             1.508     1.5012    1.5011 calculate D2E/DX2 analyti!
 ! R2    R(1,6)             1.5296    1.5305    1.5384 calculate D2E/DX2 analyti!
 ! R3    R(1,13)            1.0927    1.0929    1.0925 calculate D2E/DX2 analyti!
 ! R4    R(1,14)            1.0965    1.0971    1.0958 calculate D2E/DX2 analyti!
 ! R5    R(2,3)             1.3395    1.3307    1.3297 calculate D2E/DX2 analyti!
 ! R6    R(2,12)            1.0845    1.0845    1.0844 calculate D2E/DX2 analyti!
 ! R7    R(3,4)             1.5014    1.4956    1.5008 calculate D2E/DX2 analyti!
 ! R8    R(3,11)            1.0826    1.0827    1.0824 calculate D2E/DX2 analyti!
 ! R9    R(4,5)             1.4893    1.5226    1.4853 calculate D2E/DX2 analyti!
 ! R10   R(4,15)            1.4492    1.4907    1.4663 calculate D2E/DX2 analyti!
 ! R11   R(4,16)            1.0917    1.0897    1.0937 calculate D2E/DX2 analyti!
 ! R12   R(5,6)             1.5019    1.5283    1.4876 calculate D2E/DX2 analyti!
 ! R13   R(5,9)             1.0874    1.0939    1.081  calculate D2E/DX2 analyti!
 ! R14   R(5,10)            2.0941    1.09      3.0563 calculate D2E/DX2 analyti!
 ! R15   R(6,7)             1.0905    1.0906    1.0904 calculate D2E/DX2 analyti!
 ! R16   R(6,8)             1.0968    1.0924    1.1011 calculate D2E/DX2 analyti!
 ! R17   R(10,17)           1.7811    2.5811    0.9663 calculate D2E/DX2 analyti!
 ! R18   R(15,17)           1.3803    1.3147    1.4514 calculate D2E/DX2 analyti!
 ! A1    A(2,1,6)         110.5732  112.1579  112.0327 calculate D2E/DX2 analyti!
 ! A2    A(2,1,13)        109.6642  109.3445  109.7374 calculate D2E/DX2 analyti!
 ! A3    A(2,1,14)        109.825   108.8412  109.122  calculate D2E/DX2 analyti!
 ! A4    A(6,1,13)        110.5478  110.4836  110.0828 calculate D2E/DX2 analyti!
 ! A5    A(6,1,14)        110.7157  110.3928  109.8701 calculate D2E/DX2 analyti!
 ! A6    A(13,1,14)       105.3902  105.384   105.801  calculate D2E/DX2 analyti!
 ! A7    A(1,2,3)         124.5135  123.9331  123.9673 calculate D2E/DX2 analyti!
 ! A8    A(1,2,12)        116.7374  117.0401  116.9891 calculate D2E/DX2 analyti!
 ! A9    A(3,2,12)        118.7478  119.0254  119.0368 calculate D2E/DX2 analyti!
 ! A10   A(2,3,4)         123.1005  122.6086  123.2424 calculate D2E/DX2 analyti!
 ! A11   A(2,3,11)        120.5171  120.4562  120.7406 calculate D2E/DX2 analyti!
 ! A12   A(4,3,11)        116.3702  116.9315  116.0072 calculate D2E/DX2 analyti!
 ! A13   A(3,4,5)         111.8425  113.7409  113.1745 calculate D2E/DX2 analyti!
 ! A14   A(3,4,15)        108.4514  106.1774  104.2358 calculate D2E/DX2 analyti!
 ! A15   A(3,4,16)        110.3928  111.4502  110.071  calculate D2E/DX2 analyti!
 ! A16   A(5,4,15)        108.5103  109.7841  112.1156 calculate D2E/DX2 analyti!
 ! A17   A(5,4,16)        112.6112  110.8721  111.1067 calculate D2E/DX2 analyti!
 ! A18   A(15,4,16)       104.6871  104.2673  105.6823 calculate D2E/DX2 analyti!
 ! A19   A(4,5,6)         116.9944  111.5338  119.3065 calculate D2E/DX2 analyti!
 ! A20   A(4,5,9)         120.1722  107.7641  118.8193 calculate D2E/DX2 analyti!
 ! A21   A(4,5,10)         89.8571  108.5404   67.0847 calculate D2E/DX2 analyti!
 ! A22   A(6,5,9)         118.6029  110.0226  120.852  calculate D2E/DX2 analyti!
 ! A23   A(6,5,10)        114.6131  111.8486  123.3268 calculate D2E/DX2 analyti!
 ! A24   A(9,5,10)         86.2999  106.9399   71.995  calculate D2E/DX2 analyti!
 ! A25   A(1,6,5)         110.8397  110.8324  111.6565 calculate D2E/DX2 analyti!
 ! A26   A(1,6,7)         111.7814  110.3929  110.6912 calculate D2E/DX2 analyti!
 ! A27   A(1,6,8)         110.5416  109.2414  107.6767 calculate D2E/DX2 analyti!
 ! A28   A(5,6,7)         109.9184  110.3516  111.1964 calculate D2E/DX2 analyti!
 ! A29   A(5,6,8)         108.9264  109.0283  109.1554 calculate D2E/DX2 analyti!
 ! A30   A(7,6,8)         104.6304  106.8967  106.2428 calculate D2E/DX2 analyti!
 ! A31   A(5,10,17)        94.2281   99.3424   77.1454 calculate D2E/DX2 analyti!
 ! A32   A(4,15,17)       104.8112  111.6607  107.7116 calculate D2E/DX2 analyti!
 ! A33   A(10,17,15)       91.7189   75.1386  100.885  calculate D2E/DX2 analyti!
 ! D1    D(6,1,2,3)       -17.5695  -15.2675  -19.2804 calculate D2E/DX2 analyti!
 ! D2    D(6,1,2,12)      162.8404  165.1511  161.6754 calculate D2E/DX2 analyti!
 ! D3    D(13,1,2,3)     -139.7266 -138.1842 -141.879  calculate D2E/DX2 analyti!
 ! D4    D(13,1,2,12)      40.6834   42.2344   39.0767 calculate D2E/DX2 analyti!
 ! D5    D(14,1,2,3)      104.9067  107.1785  102.6164 calculate D2E/DX2 analyti!
 ! D6    D(14,1,2,12)     -74.6834  -72.4029  -76.4279 calculate D2E/DX2 analyti!
 ! D7    D(2,1,6,5)        44.1296   44.6111   41.3613 calculate D2E/DX2 analyti!
 ! D8    D(2,1,6,7)       167.1314  167.1889  165.8205 calculate D2E/DX2 analyti!
 ! D9    D(2,1,6,8)       -76.7516  -75.5409  -78.4464 calculate D2E/DX2 analyti!
 ! D10   D(13,1,6,5)      165.767   166.8824  163.7636 calculate D2E/DX2 analyti!
 ! D11   D(13,1,6,7)      -71.2312  -70.5398  -71.7772 calculate D2E/DX2 analyti!
 ! D12   D(13,1,6,8)       44.8857   46.7304   43.9558 calculate D2E/DX2 analyti!
 ! D13   D(14,1,6,5)      -77.8244  -76.95    -80.1062 calculate D2E/DX2 analyti!
 ! D14   D(14,1,6,7)       45.1773   45.6279   44.3529 calculate D2E/DX2 analyti!
 ! D15   D(14,1,6,8)      161.2943  162.898   160.086  calculate D2E/DX2 analyti!
 ! D16   D(1,2,3,4)        -2.8957   -2.1424   -1.9271 calculate D2E/DX2 analyti!
 ! D17   D(1,2,3,11)      178.4207  178.5817  179.2614 calculate D2E/DX2 analyti!
 ! D18   D(12,2,3,4)      176.6867  177.4312  177.0988 calculate D2E/DX2 analyti!
 ! D19   D(12,2,3,11)      -1.9969   -1.8447   -1.7126 calculate D2E/DX2 analyti!
 ! D20   D(2,3,4,5)        -4.8445  -11.0511   -0.467  calculate D2E/DX2 analyti!
 ! D21   D(2,3,4,15)      114.7794  109.7864  121.6127 calculate D2E/DX2 analyti!
 ! D22   D(2,3,4,16)     -131.0668 -137.2787 -125.458  calculate D2E/DX2 analyti!
 ! D23   D(11,3,4,5)      173.8898  168.2488  178.3964 calculate D2E/DX2 analyti!
 ! D24   D(11,3,4,15)     -66.4863  -70.9137  -59.5239 calculate D2E/DX2 analyti!
 ! D25   D(11,3,4,16)      47.6675   42.0212   53.4054 calculate D2E/DX2 analyti!
 ! D26   D(3,4,5,6)        34.7812   40.9501   26.272  calculate D2E/DX2 analyti!
 ! D27   D(3,4,5,9)      -121.7989  -79.9089 -165.1889 calculate D2E/DX2 analyti!
 ! D28   D(3,4,5,10)      152.5654  164.6139  142.8071 calculate D2E/DX2 analyti!
 ! D29   D(15,4,5,6)      -84.8081  -77.8444  -91.2894 calculate D2E/DX2 analyti!
 ! D30   D(15,4,5,9)      118.6118  161.2966   77.2496 calculate D2E/DX2 analyti!
 ! D31   D(15,4,5,10)      32.9761   45.8195   25.2457 calculate D2E/DX2 analyti!
 ! D32   D(16,4,5,6)      159.7832  167.4815  150.7014 calculate D2E/DX2 analyti!
 ! D33   D(16,4,5,9)        3.2031   46.6225  -40.7596 calculate D2E/DX2 analyti!
 ! D34   D(16,4,5,10)     -82.4325  -68.8547  -92.7635 calculate D2E/DX2 analyti!
 ! D35   D(3,4,15,17)     161.2312  163.0421  161.393  calculate D2E/DX2 analyti!
 ! D36   D(5,4,15,17)     -77.0788  -73.6014  -75.8319 calculate D2E/DX2 analyti!
 ! D37   D(16,4,15,17)     43.3786   45.2246   45.3545 calculate D2E/DX2 analyti!
 ! D38   D(4,5,6,1)       -55.9159  -58.3492  -47.2456 calculate D2E/DX2 analyti!
 ! D39   D(4,5,6,7)      -179.9882  179.049  -171.4215 calculate D2E/DX2 analyti!
 ! D40   D(4,5,6,8)        65.9163   61.9298   71.6872 calculate D2E/DX2 analyti!
 ! D41   D(9,5,6,1)       101.0436   61.1813  144.4542 calculate D2E/DX2 analyti!
 ! D42   D(9,5,6,7)       -23.0287  -61.4205   20.2783 calculate D2E/DX2 analyti!
 ! D43   D(9,5,6,8)      -137.1242 -178.5397  -96.6129 calculate D2E/DX2 analyti!
 ! D44   D(10,5,6,1)     -159.2296  179.8815 -127.7308 calculate D2E/DX2 analyti!
 ! D45   D(10,5,6,7)       76.698    57.2797  108.0933 calculate D2E/DX2 analyti!
 ! D46   D(10,5,6,8)      -37.3975  -59.8395   -8.7979 calculate D2E/DX2 analyti!
 ! D47   D(4,5,10,17)       3.532   -13.6313   25.4166 calculate D2E/DX2 analyti!
 ! D48   D(6,5,10,17)     123.408   109.8438  136.3969 calculate D2E/DX2 analyti!
 ! D49   D(9,5,10,17)    -116.7206 -129.6425 -108.0312 calculate D2E/DX2 analyti!
 ! D50   D(5,10,17,15)    -38.9057  -20.8069  -52.0138 calculate D2E/DX2 analyti!
 ! D51   D(4,15,17,10)     68.8479   43.3321  108.3279 calculate D2E/DX2 analyti!
 --------------------------------------------------------------------------------
 Trust Radius=3.00D-01 FncErr=1.00D-07 GrdErr=1.00D-06 EigMax=2.50D+02 EigMin=1.00D-04
 Number of steps in this run=    102 maximum allowed number of steps=    102.
 Search for a saddle point of order  1.
 GradGradGradGradGradGradGradGradGradGradGradGradGradGradGradGradGradGrad

                          Input orientation:                          
 ---------------------------------------------------------------------
 Center     Atomic      Atomic             Coordinates (Angstroms)
 Number     Number       Type             X           Y           Z
 ---------------------------------------------------------------------
      1          6           0       -2.261893   -0.223535   -0.223365
      2          6           0       -1.670641    1.163286   -0.188232
      3          6           0       -0.399787    1.438623    0.133393
      4          6           0        0.583247    0.388290    0.563209
      5          6           0       -0.057645   -0.949552    0.695340
      6          6           0       -1.155460   -1.278405   -0.275386
      7          1           0       -1.540560   -2.278940   -0.075724
      8          1           0       -0.730853   -1.341302   -1.284666
      9          1           0       -0.025900   -1.479445    1.644399
     10          1           0        1.778928   -1.864790    0.277740
     11          1           0       -0.036098    2.458071    0.113123
     12          1           0       -2.335174    1.983450   -0.436903
     13          1           0       -2.923947   -0.319220   -1.087381
     14          1           0       -2.902990   -0.376774    0.652860
     15          8           0        1.628107    0.301120   -0.437250
     16          1           0        1.097831    0.699032    1.474499
     17          8           0        2.677010   -0.328514    0.201938
 ---------------------------------------------------------------------
                    Distance matrix (angstroms):
                    1          2          3          4          5
     1  C    0.000000
     2  C    1.508007   0.000000
     3  C    2.521406   1.339523   0.000000
     4  C    3.014607   2.499058   1.501432   0.000000
     5  C    2.495963   2.801167   2.477140   1.489302   0.000000
     6  C    1.529592   2.496970   2.849628   2.550336   1.501882
     7  H    2.183302   3.446519   3.894274   3.468848   2.135614
     8  H    2.172520   2.891077   3.138228   2.851839   2.127698
     9  H    3.172620   3.612164   3.307273   2.242425   1.087432
    10  H    4.390109   4.613664   3.959819   2.566615   2.094051
    11  H    3.501200   2.106897   1.082569   2.206844   3.457070
    12  H    2.218502   1.084487   2.089928   3.473031   3.882217
    13  H    1.092700   2.139409   3.309333   3.940232   3.433817
    14  H    1.096475   2.144272   3.135528   3.570323   2.902734
    15  O    3.931045   3.418636   2.394139   1.449223   2.385100
    16  H    3.875773   3.262612   2.142059   1.091699   2.158713
    17  O    4.958293   4.612999   3.548823   2.242357   2.847362
                    6          7          8          9         10
     6  C    0.000000
     7  H    1.090522   0.000000
     8  H    1.096764   1.730991   0.000000
     9  H    2.236492   2.427387   3.015868   0.000000
    10  H    3.043095   3.363845   3.002358   2.296444   0.000000
    11  H    3.919842   4.973766   4.107522   4.224802   4.691327
    12  H    3.472393   4.350842   3.787680   4.653623   5.678512
    13  H    2.169544   2.603404   2.427598   4.148183   5.135112
    14  H    2.174498   2.450568   3.066349   3.236769   4.926993
    15  O    3.204582   4.102178   2.996724   3.199909   2.285853
    16  H    3.471264   4.269966   3.888449   2.457112   2.910208
    17  O    3.977179   4.655014   3.853474   3.272776   1.781135
                   11         12         13         14         15
    11  H    0.000000
    12  H    2.411130   0.000000
    13  H    4.182611   2.464156   0.000000
    14  H    4.067768   2.660950   1.741319   0.000000
    15  O    2.779375   4.305558   4.639902   4.709429   0.000000
    16  H    2.496669   4.133849   4.875937   4.223625   2.023441
    17  O    3.890231   5.556553   5.747447   5.598397   1.380289
                   16         17
    16  H    0.000000
    17  O    2.273559   0.000000
 Stoichiometry    C6H9O2(2)
 Framework group  C1[X(C6H9O2)]
 Deg. of freedom    45
 Full point group                 C1      NOp   1
 Largest Abelian subgroup         C1      NOp   1
 Largest concise Abelian subgroup C1      NOp   1
                         Standard orientation:                         
 ---------------------------------------------------------------------
 Center     Atomic      Atomic             Coordinates (Angstroms)
 Number     Number       Type             X           Y           Z
 ---------------------------------------------------------------------
      1          6           0       -2.214247   -0.342563   -0.114202
      2          6           0       -1.695069    1.072407   -0.065220
      3          6           0       -0.418058    1.404749    0.165247
      4          6           0        0.650407    0.394237    0.467809
      5          6           0        0.093082   -0.981300    0.591541
      6          6           0       -1.062503   -1.331520   -0.301553
      7          1           0       -1.377231   -2.359048   -0.116158
      8          1           0       -0.719949   -1.330424   -1.343450
      9          1           0        0.230575   -1.546085    1.510575
     10          1           0        1.934046   -1.775859   -0.012266
     11          1           0       -0.110817    2.442796    0.161045
     12          1           0       -2.419627    1.863723   -0.223163
     13          1           0       -2.939475   -0.440251   -0.925680
     14          1           0       -2.771994   -0.565986    0.803000
     15          8           0        1.612245    0.405168   -0.616163
     16          1           0        1.221580    0.696412    1.347728
     17          8           0        2.741657   -0.190335   -0.091757
 ---------------------------------------------------------------------
 Rotational constants (GHZ):           4.1304755           1.5415071           1.2450082
 Standard basis: CC-pVTZ+d (5D, 7F)
 There are   415 symmetry adapted cartesian basis functions of A   symmetry.
 There are   366 symmetry adapted basis functions of A   symmetry.
   366 basis functions,   569 primitive gaussians,   415 cartesian basis functions
    31 alpha electrons       30 beta electrons
       nuclear repulsion energy       376.4579162199 Hartrees.
 NAtoms=   17 NActive=   17 NUniq=   17 SFac= 1.00D+00 NAtFMM=   60 NAOKFM=F Big=F
 Integral buffers will be    131072 words long.
 Raffenetti 2 integral format.
 Two-electron integral symmetry is turned on.
 One-electron integrals computed using PRISM.
 NBasis=   366 RedAO= T EigKep=  1.43D-04  NBF=   366
 NBsUse=   366 1.00D-06 EigRej= -1.00D+00 NBFU=   366
 ExpMin= 1.03D-01 ExpMax= 1.53D+04 ExpMxC= 5.22D+02 IAcc=3 IRadAn=         5 AccDes= 0.00D+00
 Harris functional with IExCor=  402 and IRadAn=       5 diagonalized for initial guess.
 HarFok:  IExCor=  402 AccDes= 0.00D+00 IRadAn=         5 IDoV= 1 UseB2=F ITyADJ=14
 ICtDFT=  3500011 ScaDFX=  1.000000  1.000000  1.000000  1.000000
 FoFCou: FMM=F IPFlag=           0 FMFlag=      100000 FMFlg1=           0
         NFxFlg=           0 DoJE=T BraDBF=F KetDBF=T FulRan=T
         wScrn=  0.000000 ICntrl=       500 IOpCl=  0 I1Cent=   200000004 NGrid=           0
         NMat0=    1 NMatS0=      1 NMatT0=    0 NMatD0=    1 NMtDS0=    0 NMtDT0=    0
 Petite list used in FoFCou.
 Initial guess <Sx>= 0.0000 <Sy>= 0.0000 <Sz>= 0.5000 <S**2>= 0.7500 S= 0.5000
 Requested convergence on RMS density matrix=1.00D-08 within 128 cycles.
 Requested convergence on MAX density matrix=1.00D-06.
 Requested convergence on             energy=1.00D-06.
 No special actions if energy rises.
 Integral accuracy reduced to 1.0D-05 until final iterations.
 Initial convergence to 1.0D-05 achieved.  Increase integral accuracy.
 SCF Done:  E(UB3LYP) =  -384.365951649     A.U. after   22 cycles
            NFock= 22  Conv=0.56D-08     -V/T= 2.0071
 <Sx>= 0.0000 <Sy>= 0.0000 <Sz>= 0.5000 <S**2>= 0.9394 S= 0.5906
 <L.S>= 0.000000000000E+00
 Annihilation of the first spin contaminant:
 S**2 before annihilation     0.9394,   after     0.7518
 DoSCS=F DFT=T ScalE2(SS,OS)=  1.000000  1.000000
 Range of M.O.s used for correlation:     1   366
 NBasis=   366 NAE=    31 NBE=    30 NFC=     0 NFV=     0
 NROrb=    366 NOA=    31 NOB=    30 NVA=   335 NVB=   336

 **** Warning!!: The largest alpha MO coefficient is  0.17206166D+02


 **** Warning!!: The largest beta MO coefficient is  0.17070160D+02

 Symmetrizing basis deriv contribution to polar:
 IMax=3 JMax=2 DiffMx= 0.00D+00
 G2DrvN: will do    18 centers at a time, making    1 passes.
 Calling FoFCou, ICntrl=  3107 FMM=F I1Cent=   0 AccDes= 0.00D+00.
 End of G2Drv F.D. properties file   721 does not exist.
 End of G2Drv F.D. properties file   722 does not exist.
 End of G2Drv F.D. properties file   788 does not exist.
          IDoAtm=11111111111111111
          Differentiating once with respect to nuclear coordinates.
 CalDSu exits because no D1Ps are significant.
          There are    54 degrees of freedom in the 1st order CPHF.  IDoFFX=6 NUNeed=     0.
     48 vectors produced by pass  0 Test12= 3.79D-14 1.85D-09 XBig12= 2.46D-01 1.78D-01.
 AX will form    48 AO Fock derivatives at one time.
     48 vectors produced by pass  1 Test12= 3.79D-14 1.85D-09 XBig12= 5.28D-02 1.08D-01.
     48 vectors produced by pass  2 Test12= 3.79D-14 1.85D-09 XBig12= 9.52D-04 4.45D-03.
     48 vectors produced by pass  3 Test12= 3.79D-14 1.85D-09 XBig12= 9.32D-06 4.12D-04.
     48 vectors produced by pass  4 Test12= 3.79D-14 1.85D-09 XBig12= 1.34D-07 4.08D-05.
     48 vectors produced by pass  5 Test12= 3.79D-14 1.85D-09 XBig12= 7.80D-10 2.17D-06.
     41 vectors produced by pass  6 Test12= 3.79D-14 1.85D-09 XBig12= 3.01D-12 1.33D-07.
     16 vectors produced by pass  7 Test12= 3.79D-14 1.85D-09 XBig12= 1.14D-14 7.89D-09.
 InvSVY:  IOpt=1 It=  1 EMax= 5.00D-16
 Solved reduced A of dimension   345 with    54 vectors.
 End of Minotr F.D. properties file   721 does not exist.
 End of Minotr F.D. properties file   722 does not exist.
 End of Minotr F.D. properties file   788 does not exist.

 **********************************************************************

            Population analysis using the SCF Density.

 **********************************************************************

 Orbital symmetries:
 Alpha Orbitals:
       Occupied  (A) (A) (A) (A) (A) (A) (A) (A) (A) (A) (A) (A)
                 (A) (A) (A) (A) (A) (A) (A) (A) (A) (A) (A) (A)
                 (A) (A) (A) (A) (A) (A) (A)
       Virtual   (A) (A) (A) (A) (A) (A) (A) (A) (A) (A) (A) (A)
                 (A) (A) (A) (A) (A) (A) (A) (A) (A) (A) (A) (A)
                 (A) (A) (A) (A) (A) (A) (A) (A) (A) (A) (A) (A)
                 (A) (A) (A) (A) (A) (A) (A) (A) (A) (A) (A) (A)
                 (A) (A) (A) (A) (A) (A) (A) (A) (A) (A) (A) (A)
                 (A) (A) (A) (A) (A) (A) (A) (A) (A) (A) (A) (A)
                 (A) (A) (A) (A) (A) (A) (A) (A) (A) (A) (A) (A)
                 (A) (A) (A) (A) (A) (A) (A) (A) (A) (A) (A) (A)
                 (A) (A) (A) (A) (A) (A) (A) (A) (A) (A) (A) (A)
                 (A) (A) (A) (A) (A) (A) (A) (A) (A) (A) (A) (A)
                 (A) (A) (A) (A) (A) (A) (A) (A) (A) (A) (A) (A)
                 (A) (A) (A) (A) (A) (A) (A) (A) (A) (A) (A) (A)
                 (A) (A) (A) (A) (A) (A) (A) (A) (A) (A) (A) (A)
                 (A) (A) (A) (A) (A) (A) (A) (A) (A) (A) (A) (A)
                 (A) (A) (A) (A) (A) (A) (A) (A) (A) (A) (A) (A)
                 (A) (A) (A) (A) (A) (A) (A) (A) (A) (A) (A) (A)
                 (A) (A) (A) (A) (A) (A) (A) (A) (A) (A) (A) (A)
                 (A) (A) (A) (A) (A) (A) (A) (A) (A) (A) (A) (A)
                 (A) (A) (A) (A) (A) (A) (A) (A) (A) (A) (A) (A)
                 (A) (A) (A) (A) (A) (A) (A) (A) (A) (A) (A) (A)
                 (A) (A) (A) (A) (A) (A) (A) (A) (A) (A) (A) (A)
                 (A) (A) (A) (A) (A) (A) (A) (A) (A) (A) (A) (A)
                 (A) (A) (A) (A) (A) (A) (A) (A) (A) (A) (A) (A)
                 (A) (A) (A) (A) (A) (A) (A) (A) (A) (A) (A) (A)
                 (A) (A) (A) (A) (A) (A) (A) (A) (A) (A) (A) (A)
                 (A) (A) (A) (A) (A) (A) (A) (A) (A) (A) (A) (A)
                 (A) (A) (A) (A) (A) (A) (A) (A) (A) (A) (A) (A)
                 (A) (A) (A) (A) (A) (A) (A) (A) (A) (A) (A)
 Beta  Orbitals:
       Occupied  (A) (A) (A) (A) (A) (A) (A) (A) (A) (A) (A) (A)
                 (A) (A) (A) (A) (A) (A) (A) (A) (A) (A) (A) (A)
                 (A) (A) (A) (A) (A) (A)
       Virtual   (A) (A) (A) (A) (A) (A) (A) (A) (A) (A) (A) (A)
                 (A) (A) (A) (A) (A) (A) (A) (A) (A) (A) (A) (A)
                 (A) (A) (A) (A) (A) (A) (A) (A) (A) (A) (A) (A)
                 (A) (A) (A) (A) (A) (A) (A) (A) (A) (A) (A) (A)
                 (A) (A) (A) (A) (A) (A) (A) (A) (A) (A) (A) (A)
                 (A) (A) (A) (A) (A) (A) (A) (A) (A) (A) (A) (A)
                 (A) (A) (A) (A) (A) (A) (A) (A) (A) (A) (A) (A)
                 (A) (A) (A) (A) (A) (A) (A) (A) (A) (A) (A) (A)
                 (A) (A) (A) (A) (A) (A) (A) (A) (A) (A) (A) (A)
                 (A) (A) (A) (A) (A) (A) (A) (A) (A) (A) (A) (A)
                 (A) (A) (A) (A) (A) (A) (A) (A) (A) (A) (A) (A)
                 (A) (A) (A) (A) (A) (A) (A) (A) (A) (A) (A) (A)
                 (A) (A) (A) (A) (A) (A) (A) (A) (A) (A) (A) (A)
                 (A) (A) (A) (A) (A) (A) (A) (A) (A) (A) (A) (A)
                 (A) (A) (A) (A) (A) (A) (A) (A) (A) (A) (A) (A)
                 (A) (A) (A) (A) (A) (A) (A) (A) (A) (A) (A) (A)
                 (A) (A) (A) (A) (A) (A) (A) (A) (A) (A) (A) (A)
                 (A) (A) (A) (A) (A) (A) (A) (A) (A) (A) (A) (A)
                 (A) (A) (A) (A) (A) (A) (A) (A) (A) (A) (A) (A)
                 (A) (A) (A) (A) (A) (A) (A) (A) (A) (A) (A) (A)
                 (A) (A) (A) (A) (A) (A) (A) (A) (A) (A) (A) (A)
                 (A) (A) (A) (A) (A) (A) (A) (A) (A) (A) (A) (A)
                 (A) (A) (A) (A) (A) (A) (A) (A) (A) (A) (A) (A)
                 (A) (A) (A) (A) (A) (A) (A) (A) (A) (A) (A) (A)
                 (A) (A) (A) (A) (A) (A) (A) (A) (A) (A) (A) (A)
                 (A) (A) (A) (A) (A) (A) (A) (A) (A) (A) (A) (A)
                 (A) (A) (A) (A) (A) (A) (A) (A) (A) (A) (A) (A)
                 (A) (A) (A) (A) (A) (A) (A) (A) (A) (A) (A) (A)
 The electronic state is 2-A.
 Alpha  occ. eigenvalues --  -19.20764 -19.19623 -10.24299 -10.22385 -10.19993
 Alpha  occ. eigenvalues --  -10.19805 -10.19361 -10.19137  -1.14335  -0.88995
 Alpha  occ. eigenvalues --   -0.83764  -0.76652  -0.74766  -0.64261  -0.61858
 Alpha  occ. eigenvalues --   -0.53661  -0.53155  -0.50029  -0.48158  -0.46589
 Alpha  occ. eigenvalues --   -0.44412  -0.43555  -0.41748  -0.40567  -0.38822
 Alpha  occ. eigenvalues --   -0.35614  -0.34159  -0.29084  -0.28227  -0.26951
 Alpha  occ. eigenvalues --   -0.23977
 Alpha virt. eigenvalues --   -0.05982  -0.01826   0.02764   0.05241   0.05886
 Alpha virt. eigenvalues --    0.07029   0.08448   0.09180   0.09481   0.11770
 Alpha virt. eigenvalues --    0.12335   0.14992   0.18427   0.18563   0.20240
 Alpha virt. eigenvalues --    0.22010   0.24164   0.24369   0.26572   0.27755
 Alpha virt. eigenvalues --    0.29278   0.30057   0.31175   0.32625   0.33825
 Alpha virt. eigenvalues --    0.35737   0.36992   0.38219   0.39062   0.40865
 Alpha virt. eigenvalues --    0.41829   0.41867   0.43243   0.43770   0.44234
 Alpha virt. eigenvalues --    0.45165   0.45791   0.46886   0.47245   0.47940
 Alpha virt. eigenvalues --    0.49072   0.49665   0.51688   0.52403   0.55208
 Alpha virt. eigenvalues --    0.57782   0.59861   0.60132   0.62449   0.63430
 Alpha virt. eigenvalues --    0.65865   0.67823   0.68743   0.70553   0.72592
 Alpha virt. eigenvalues --    0.73512   0.75868   0.76681   0.79296   0.80977
 Alpha virt. eigenvalues --    0.82535   0.84654   0.87545   0.88214   0.91356
 Alpha virt. eigenvalues --    0.92969   0.93579   0.95027   0.96277   0.97692
 Alpha virt. eigenvalues --    0.98462   1.00535   1.01917   1.04094   1.06550
 Alpha virt. eigenvalues --    1.07991   1.09020   1.10080   1.11521   1.12571
 Alpha virt. eigenvalues --    1.13207   1.15540   1.17020   1.17625   1.19242
 Alpha virt. eigenvalues --    1.20652   1.21259   1.22816   1.23341   1.25998
 Alpha virt. eigenvalues --    1.26508   1.28382   1.28718   1.31272   1.32081
 Alpha virt. eigenvalues --    1.32838   1.34625   1.36439   1.38618   1.40369
 Alpha virt. eigenvalues --    1.41460   1.43497   1.44955   1.45946   1.47992
 Alpha virt. eigenvalues --    1.49046   1.51575   1.51937   1.53359   1.55847
 Alpha virt. eigenvalues --    1.58161   1.60730   1.67169   1.69390   1.73971
 Alpha virt. eigenvalues --    1.74456   1.80923   1.84119   1.88143   1.92425
 Alpha virt. eigenvalues --    1.95838   1.98671   2.05464   2.08422   2.10220
 Alpha virt. eigenvalues --    2.11575   2.15742   2.19462   2.24567   2.25993
 Alpha virt. eigenvalues --    2.27867   2.31224   2.34585   2.35518   2.37929
 Alpha virt. eigenvalues --    2.40106   2.40519   2.42498   2.47195   2.48217
 Alpha virt. eigenvalues --    2.48741   2.52736   2.55249   2.56360   2.57589
 Alpha virt. eigenvalues --    2.58511   2.59585   2.62579   2.64236   2.66440
 Alpha virt. eigenvalues --    2.67565   2.70090   2.72623   2.73947   2.75043
 Alpha virt. eigenvalues --    2.76413   2.77111   2.80488   2.83101   2.84122
 Alpha virt. eigenvalues --    2.86324   2.87995   2.90028   2.92318   2.93649
 Alpha virt. eigenvalues --    2.94759   2.96148   2.97397   2.99142   3.01126
 Alpha virt. eigenvalues --    3.02089   3.03268   3.05413   3.05880   3.08107
 Alpha virt. eigenvalues --    3.08354   3.09202   3.11762   3.13072   3.15405
 Alpha virt. eigenvalues --    3.17241   3.18726   3.19077   3.20967   3.22092
 Alpha virt. eigenvalues --    3.24126   3.27498   3.27968   3.28574   3.29938
 Alpha virt. eigenvalues --    3.31329   3.32661   3.34831   3.35794   3.37223
 Alpha virt. eigenvalues --    3.38629   3.39672   3.41258   3.43355   3.43805
 Alpha virt. eigenvalues --    3.46055   3.49073   3.50445   3.51956   3.53655
 Alpha virt. eigenvalues --    3.55021   3.55973   3.57021   3.61551   3.63611
 Alpha virt. eigenvalues --    3.64758   3.66087   3.67853   3.69857   3.70662
 Alpha virt. eigenvalues --    3.71567   3.73527   3.74498   3.75031   3.76162
 Alpha virt. eigenvalues --    3.78233   3.80757   3.82076   3.83110   3.84869
 Alpha virt. eigenvalues --    3.87361   3.88076   3.88455   3.90056   3.91938
 Alpha virt. eigenvalues --    3.93137   3.95670   3.98010   3.99389   4.00414
 Alpha virt. eigenvalues --    4.01392   4.03399   4.04497   4.06967   4.10842
 Alpha virt. eigenvalues --    4.11054   4.12140   4.13391   4.14254   4.16103
 Alpha virt. eigenvalues --    4.17243   4.19668   4.22238   4.23687   4.24909
 Alpha virt. eigenvalues --    4.27585   4.28754   4.32049   4.33686   4.35172
 Alpha virt. eigenvalues --    4.37676   4.40442   4.42493   4.47387   4.48185
 Alpha virt. eigenvalues --    4.52093   4.53546   4.58227   4.59042   4.61917
 Alpha virt. eigenvalues --    4.63226   4.66424   4.67283   4.68882   4.72032
 Alpha virt. eigenvalues --    4.73241   4.77743   4.78900   4.81440   4.81785
 Alpha virt. eigenvalues --    4.84764   4.86146   4.90074   4.91742   4.95568
 Alpha virt. eigenvalues --    4.97341   4.98684   5.01344   5.02939   5.04745
 Alpha virt. eigenvalues --    5.07254   5.12759   5.13641   5.15386   5.17803
 Alpha virt. eigenvalues --    5.22154   5.22943   5.24532   5.26689   5.27599
 Alpha virt. eigenvalues --    5.30873   5.31314   5.34730   5.40668   5.43295
 Alpha virt. eigenvalues --    5.44177   5.52528   5.56920   5.60760   5.62444
 Alpha virt. eigenvalues --    5.66704   5.69721   5.77929   5.81790   5.84470
 Alpha virt. eigenvalues --    5.93570   6.01302   6.02351   6.03392   6.07052
 Alpha virt. eigenvalues --    6.20263   6.29609   6.40859   6.43411   6.55610
 Alpha virt. eigenvalues --    6.70259   6.80196   6.81372   6.99461   7.24032
 Alpha virt. eigenvalues --    7.29394   7.32793   9.53912  10.06148  10.39750
 Alpha virt. eigenvalues --   11.27648  12.35635  12.55883  12.99511  13.84682
  Beta  occ. eigenvalues --  -19.20253 -19.17998 -10.24363 -10.21442 -10.19909
  Beta  occ. eigenvalues --  -10.19811 -10.19398 -10.19088  -1.12426  -0.87296
  Beta  occ. eigenvalues --   -0.82284  -0.76094  -0.73531  -0.64027  -0.60858
  Beta  occ. eigenvalues --   -0.53034  -0.52799  -0.48992  -0.47000  -0.45985
  Beta  occ. eigenvalues --   -0.43822  -0.43110  -0.40037  -0.39023  -0.38123
  Beta  occ. eigenvalues --   -0.34673  -0.33580  -0.28312  -0.27583  -0.25062
  Beta virt. eigenvalues --   -0.12506  -0.05092  -0.01530   0.02974   0.05450
  Beta virt. eigenvalues --    0.05915   0.07311   0.08673   0.09469   0.10238
  Beta virt. eigenvalues --    0.11955   0.12499   0.15463   0.18639   0.18945
  Beta virt. eigenvalues --    0.20551   0.22352   0.23811   0.24479   0.26328
  Beta virt. eigenvalues --    0.27871   0.28962   0.30119   0.31360   0.32816
  Beta virt. eigenvalues --    0.34112   0.35860   0.37399   0.38827   0.39460
  Beta virt. eigenvalues --    0.40982   0.41850   0.42143   0.43394   0.43877
  Beta virt. eigenvalues --    0.44356   0.45341   0.46162   0.46969   0.47517
  Beta virt. eigenvalues --    0.48356   0.49294   0.49893   0.51862   0.52605
  Beta virt. eigenvalues --    0.55385   0.58090   0.59991   0.60530   0.62572
  Beta virt. eigenvalues --    0.63816   0.65694   0.68097   0.68891   0.71689
  Beta virt. eigenvalues --    0.73017   0.73700   0.75996   0.77121   0.78993
  Beta virt. eigenvalues --    0.81370   0.83156   0.84605   0.87447   0.88362
  Beta virt. eigenvalues --    0.91558   0.93030   0.93372   0.95084   0.96069
  Beta virt. eigenvalues --    0.97612   0.98466   1.00754   1.02050   1.04161
  Beta virt. eigenvalues --    1.06690   1.08267   1.09237   1.10448   1.11619
  Beta virt. eigenvalues --    1.12714   1.13412   1.15890   1.17108   1.17692
  Beta virt. eigenvalues --    1.19406   1.20979   1.21080   1.22916   1.23688
  Beta virt. eigenvalues --    1.26208   1.26812   1.28507   1.29440   1.31772
  Beta virt. eigenvalues --    1.32529   1.33162   1.34952   1.36755   1.38778
  Beta virt. eigenvalues --    1.40490   1.41843   1.43809   1.45098   1.46226
  Beta virt. eigenvalues --    1.48622   1.49237   1.51791   1.52836   1.53856
  Beta virt. eigenvalues --    1.56476   1.58408   1.61405   1.67677   1.69971
  Beta virt. eigenvalues --    1.74314   1.74903   1.81619   1.84497   1.88578
  Beta virt. eigenvalues --    1.93421   1.96775   1.99445   2.06190   2.08773
  Beta virt. eigenvalues --    2.10940   2.12535   2.17007   2.19731   2.24786
  Beta virt. eigenvalues --    2.26288   2.28053   2.31745   2.34905   2.36136
  Beta virt. eigenvalues --    2.38244   2.40544   2.41064   2.42340   2.47505
  Beta virt. eigenvalues --    2.48558   2.48993   2.52962   2.55359   2.56457
  Beta virt. eigenvalues --    2.57783   2.58804   2.60315   2.62030   2.63344
  Beta virt. eigenvalues --    2.66189   2.67482   2.70385   2.72969   2.74112
  Beta virt. eigenvalues --    2.75385   2.77058   2.77453   2.80796   2.83303
  Beta virt. eigenvalues --    2.84511   2.86980   2.88223   2.90745   2.92391
  Beta virt. eigenvalues --    2.93587   2.95008   2.96284   2.97509   2.99612
  Beta virt. eigenvalues --    3.01293   3.02184   3.03682   3.05630   3.06134
  Beta virt. eigenvalues --    3.07995   3.08379   3.09275   3.12012   3.13093
  Beta virt. eigenvalues --    3.15676   3.17355   3.18350   3.19196   3.20913
  Beta virt. eigenvalues --    3.21799   3.24013   3.26108   3.27703   3.28395
  Beta virt. eigenvalues --    3.28903   3.31048   3.32305   3.34285   3.35655
  Beta virt. eigenvalues --    3.37063   3.38151   3.39601   3.41359   3.42685
  Beta virt. eigenvalues --    3.43721   3.46315   3.48970   3.50336   3.52094
  Beta virt. eigenvalues --    3.53738   3.55095   3.55464   3.57313   3.61267
  Beta virt. eigenvalues --    3.63599   3.64807   3.66422   3.68014   3.69178
  Beta virt. eigenvalues --    3.71138   3.71870   3.73177   3.74562   3.75105
  Beta virt. eigenvalues --    3.76195   3.77252   3.80775   3.81367   3.83478
  Beta virt. eigenvalues --    3.84434   3.87130   3.88197   3.88340   3.90235
  Beta virt. eigenvalues --    3.91815   3.93063   3.95826   3.97623   3.99211
  Beta virt. eigenvalues --    4.00381   4.01509   4.03326   4.04606   4.06977
  Beta virt. eigenvalues --    4.10883   4.11057   4.12161   4.13683   4.14320
  Beta virt. eigenvalues --    4.15888   4.17416   4.19771   4.22139   4.23108
  Beta virt. eigenvalues --    4.24844   4.27512   4.29050   4.32289   4.33429
  Beta virt. eigenvalues --    4.35333   4.37746   4.40460   4.42498   4.47251
  Beta virt. eigenvalues --    4.48033   4.52364   4.53717   4.58469   4.59330
  Beta virt. eigenvalues --    4.62283   4.63345   4.66905   4.67474   4.69159
  Beta virt. eigenvalues --    4.72326   4.73560   4.78620   4.79179   4.81826
  Beta virt. eigenvalues --    4.82765   4.85549   4.87479   4.90281   4.92253
  Beta virt. eigenvalues --    4.95808   4.97707   4.99536   5.01929   5.03259
  Beta virt. eigenvalues --    5.04954   5.07856   5.13159   5.15102   5.17206
  Beta virt. eigenvalues --    5.18456   5.23153   5.23609   5.25405   5.27560
  Beta virt. eigenvalues --    5.29706   5.31227   5.31798   5.35350   5.41092
  Beta virt. eigenvalues --    5.43578   5.44390   5.52674   5.58066   5.61331
  Beta virt. eigenvalues --    5.62971   5.67172   5.69843   5.79079   5.81911
  Beta virt. eigenvalues --    5.84829   5.93724   6.02807   6.03432   6.04267
  Beta virt. eigenvalues --    6.08272   6.20818   6.34820   6.42326   6.46423
  Beta virt. eigenvalues --    6.59902   6.72696   6.81577   6.82891   7.02035
  Beta virt. eigenvalues --    7.24458   7.30836   7.33486   9.55736  10.06663
  Beta virt. eigenvalues --   10.40471  11.28496  12.35976  12.55993  12.99695
  Beta virt. eigenvalues --   13.84734
          Condensed to atoms (all electrons):
               1          2          3          4          5          6
     1  C    4.873537   0.344364  -0.051757  -0.009381  -0.037794   0.325633
     2  C    0.344364   4.985608   0.575239  -0.025443  -0.027653  -0.038076
     3  C   -0.051757   0.575239   5.055941   0.293094  -0.025882  -0.010355
     4  C   -0.009381  -0.025443   0.293094   4.815660   0.280365  -0.039713
     5  C   -0.037794  -0.027653  -0.025882   0.280365   5.291816   0.327515
     6  C    0.325633  -0.038076  -0.010355  -0.039713   0.327515   4.849900
     7  H   -0.030053   0.006919  -0.000123   0.005001  -0.034520   0.412673
     8  H   -0.039181  -0.002445   0.006009  -0.003054  -0.043334   0.406110
     9  H    0.000278  -0.000651   0.004477  -0.024580   0.401741  -0.034501
    10  H    0.001980   0.000778  -0.001470  -0.027060   0.167318  -0.003992
    11  H    0.007730  -0.048454   0.418256  -0.041565   0.009333  -0.001473
    12  H   -0.043512   0.417358  -0.045933   0.007368  -0.001020   0.006474
    13  H    0.411566  -0.037588   0.004273  -0.000921   0.008490  -0.031681
    14  H    0.393279  -0.034231  -0.002240   0.000297  -0.001555  -0.026061
    15  O   -0.001051   0.000532  -0.020560   0.252869  -0.071644   0.002788
    16  H   -0.000460  -0.000695  -0.026731   0.422069  -0.051682   0.007615
    17  O   -0.000021  -0.000441   0.008720  -0.067284  -0.012163   0.001289
               7          8          9         10         11         12
     1  C   -0.030053  -0.039181   0.000278   0.001980   0.007730  -0.043512
     2  C    0.006919  -0.002445  -0.000651   0.000778  -0.048454   0.417358
     3  C   -0.000123   0.006009   0.004477  -0.001470   0.418256  -0.045933
     4  C    0.005001  -0.003054  -0.024580  -0.027060  -0.041565   0.007368
     5  C   -0.034520  -0.043334   0.401741   0.167318   0.009333  -0.001020
     6  C    0.412673   0.406110  -0.034501  -0.003992  -0.001473   0.006474
     7  H    0.595014  -0.035365  -0.008551   0.000102   0.000097  -0.000355
     8  H   -0.035365   0.591697   0.006319  -0.008755  -0.000204   0.000084
     9  H   -0.008551   0.006319   0.519420  -0.014728  -0.000390   0.000071
    10  H    0.000102  -0.008755  -0.014728   0.856726  -0.000089   0.000022
    11  H    0.000097  -0.000204  -0.000390  -0.000089   0.545316  -0.009956
    12  H   -0.000355   0.000084   0.000071   0.000022  -0.009956   0.553498
    13  H   -0.002075  -0.007986  -0.000275  -0.000074  -0.000270  -0.005745
    14  H   -0.007907   0.008296   0.001689  -0.000171  -0.000333   0.000367
    15  O   -0.000342   0.008765   0.004477  -0.050646   0.004475  -0.000138
    16  H   -0.000218   0.000992  -0.004948  -0.005008  -0.005818  -0.000347
    17  O   -0.000051   0.000139  -0.000024   0.071779   0.000098   0.000011
              13         14         15         16         17
     1  C    0.411566   0.393279  -0.001051  -0.000460  -0.000021
     2  C   -0.037588  -0.034231   0.000532  -0.000695  -0.000441
     3  C    0.004273  -0.002240  -0.020560  -0.026731   0.008720
     4  C   -0.000921   0.000297   0.252869   0.422069  -0.067284
     5  C    0.008490  -0.001555  -0.071644  -0.051682  -0.012163
     6  C   -0.031681  -0.026061   0.002788   0.007615   0.001289
     7  H   -0.002075  -0.007907  -0.000342  -0.000218  -0.000051
     8  H   -0.007986   0.008296   0.008765   0.000992   0.000139
     9  H   -0.000275   0.001689   0.004477  -0.004948  -0.000024
    10  H   -0.000074  -0.000171  -0.050646  -0.005008   0.071779
    11  H   -0.000270  -0.000333   0.004475  -0.005818   0.000098
    12  H   -0.005745   0.000367  -0.000138  -0.000347   0.000011
    13  H    0.596052  -0.035810   0.000059   0.000009   0.000001
    14  H   -0.035810   0.603639  -0.000025   0.000153   0.000008
    15  O    0.000059  -0.000025   7.910700  -0.039597   0.116131
    16  H    0.000009   0.000153  -0.039597   0.586992   0.016846
    17  O    0.000001   0.000008   0.116131   0.016846   8.059265
          Atomic-Atomic Spin Densities.
               1          2          3          4          5          6
     1  C    0.058440   0.003278  -0.000321   0.002505  -0.024732   0.007812
     2  C    0.003278  -0.006505   0.003835  -0.003554  -0.001379   0.002476
     3  C   -0.000321   0.003835   0.009415   0.017638  -0.012439   0.000705
     4  C    0.002505  -0.003554   0.017638  -0.038931  -0.003555   0.000376
     5  C   -0.024732  -0.001379  -0.012439  -0.003555   0.708376  -0.017332
     6  C    0.007812   0.002476   0.000705   0.000376  -0.017332  -0.028326
     7  H   -0.000375   0.000020  -0.000006  -0.000007  -0.000969   0.000557
     8  H   -0.008639  -0.000540  -0.000442  -0.001242  -0.007231   0.007400
     9  H   -0.001003  -0.000111  -0.001216  -0.000041   0.005598   0.001237
    10  H    0.000310  -0.000415   0.002191   0.013068   0.028094  -0.000941
    11  H   -0.000126   0.001945   0.000383  -0.003081   0.001450  -0.000040
    12  H   -0.000438   0.000978   0.000501   0.000396  -0.000890   0.000075
    13  H   -0.003060  -0.000983  -0.000055  -0.000334   0.001889  -0.000455
    14  H   -0.005011  -0.001091  -0.000626  -0.000342   0.005394  -0.000867
    15  O    0.000008   0.000373   0.000521  -0.007159  -0.002793  -0.000612
    16  H    0.000426  -0.000645  -0.000485   0.006058  -0.006968  -0.000004
    17  O   -0.000052   0.000025  -0.000980  -0.002985  -0.008279  -0.000148
               7          8          9         10         11         12
     1  C   -0.000375  -0.008639  -0.001003   0.000310  -0.000126  -0.000438
     2  C    0.000020  -0.000540  -0.000111  -0.000415   0.001945   0.000978
     3  C   -0.000006  -0.000442  -0.001216   0.002191   0.000383   0.000501
     4  C   -0.000007  -0.001242  -0.000041   0.013068  -0.003081   0.000396
     5  C   -0.000969  -0.007231   0.005598   0.028094   0.001450  -0.000890
     6  C    0.000557   0.007400   0.001237  -0.000941  -0.000040   0.000075
     7  H    0.000513  -0.000260   0.000480  -0.000075  -0.000005   0.000007
     8  H   -0.000260   0.026859   0.000319   0.000269   0.000123  -0.000123
     9  H    0.000480   0.000319  -0.031064   0.005227   0.000052  -0.000015
    10  H   -0.000075   0.000269   0.005227  -0.470580  -0.000040   0.000000
    11  H   -0.000005   0.000123   0.000052  -0.000040   0.002347  -0.000411
    12  H    0.000007  -0.000123  -0.000015   0.000000  -0.000411   0.001346
    13  H   -0.000007   0.001604   0.000073  -0.000030   0.000068  -0.000636
    14  H   -0.000049   0.000660   0.000162  -0.000014   0.000094  -0.000464
    15  O    0.000043   0.000065   0.000221   0.014213   0.000970  -0.000034
    16  H   -0.000003  -0.000189   0.000019   0.004537  -0.001031   0.000069
    17  O    0.000004   0.000056  -0.000184  -0.006075  -0.000181  -0.000000
              13         14         15         16         17
     1  C   -0.003060  -0.005011   0.000008   0.000426  -0.000052
     2  C   -0.000983  -0.001091   0.000373  -0.000645   0.000025
     3  C   -0.000055  -0.000626   0.000521  -0.000485  -0.000980
     4  C   -0.000334  -0.000342  -0.007159   0.006058  -0.002985
     5  C    0.001889   0.005394  -0.002793  -0.006968  -0.008279
     6  C   -0.000455  -0.000867  -0.000612  -0.000004  -0.000148
     7  H   -0.000007  -0.000049   0.000043  -0.000003   0.000004
     8  H    0.001604   0.000660   0.000065  -0.000189   0.000056
     9  H    0.000073   0.000162   0.000221   0.000019  -0.000184
    10  H   -0.000030  -0.000014   0.014213   0.004537  -0.006075
    11  H    0.000068   0.000094   0.000970  -0.001031  -0.000181
    12  H   -0.000636  -0.000464  -0.000034   0.000069  -0.000000
    13  H    0.003388   0.002081   0.000010  -0.000026   0.000002
    14  H    0.002081   0.002129   0.000015  -0.000100   0.000003
    15  O    0.000010   0.000015   0.229933  -0.006404  -0.076709
    16  H   -0.000026  -0.000100  -0.006404   0.013431   0.000147
    17  O    0.000002   0.000003  -0.076709   0.000147   0.677122
 Mulliken charges and spin densities:
               1          2
     1  C   -0.145157   0.029024
     2  C   -0.115122  -0.002292
     3  C   -0.180958   0.018619
     4  C    0.162280  -0.021190
     5  C   -0.179332   0.664236
     6  C   -0.154146  -0.028086
     7  H    0.099753  -0.000133
     8  H    0.111912   0.018688
     9  H    0.150177  -0.020245
    10  H    0.013288  -0.410258
    11  H    0.123247   0.002517
    12  H    0.121752   0.000362
    13  H    0.101973   0.003527
    14  H    0.100603   0.001972
    15  O   -0.116794   0.152662
    16  H    0.100828   0.008832
    17  O   -0.194303   0.581765
 Sum of Mulliken charges =  -0.00000   1.00000
 Mulliken charges and spin densities with hydrogens summed into heavy atoms:
               1          2
     1  C    0.057419   0.034523
     2  C    0.006630  -0.001930
     3  C   -0.057712   0.021136
     4  C    0.263107  -0.012358
     5  C   -0.029155   0.643991
     6  C    0.057519  -0.009531
    15  O   -0.116794   0.152662
    17  O   -0.181015   0.171506
 APT charges:
               1
     1  C   -0.884789
     2  C   -0.419667
     3  C   -0.649200
     4  C   -0.328475
     5  C   -0.585276
     6  C   -0.765777
     7  H    0.486751
     8  H    0.290241
     9  H    0.491535
    10  H    0.115170
    11  H    0.504361
    12  H    0.586969
    13  H    0.507449
    14  H    0.435066
    15  O   -0.013791
    16  H    0.385299
    17  O   -0.155863
 Sum of APT charges =  -0.00000
 APT charges with hydrogens summed into heavy atoms:
               1
     1  C    0.057726
     2  C    0.167301
     3  C   -0.144839
     4  C    0.056823
     5  C   -0.093741
     6  C    0.011214
    15  O   -0.013791
    17  O   -0.040694
 Electronic spatial extent (au):  <R**2>=            983.4953
 Charge=             -0.0000 electrons
 Dipole moment (field-independent basis, Debye):
    X=             -3.8596    Y=             -0.1040    Z=              1.1789  Tot=              4.0369
 Quadrupole moment (field-independent basis, Debye-Ang):
   XX=            -53.5527   YY=            -46.1352   ZZ=            -49.1058
   XY=              1.1803   XZ=              2.7343   YZ=              0.2262
 Traceless Quadrupole moment (field-independent basis, Debye-Ang):
   XX=             -3.9548   YY=              3.4627   ZZ=              0.4921
   XY=              1.1803   XZ=              2.7343   YZ=              0.2262
 Octapole moment (field-independent basis, Debye-Ang**2):
  XXX=            -16.5545  YYY=              6.5268  ZZZ=             -1.3972  XYY=              2.6444
  XXY=              3.4042  XXZ=              0.7283  XZZ=              4.3337  YZZ=             -2.4515
  YYZ=              0.1388  XYZ=              1.8599
 Hexadecapole moment (field-independent basis, Debye-Ang**3):
 XXXX=           -851.4392 YYYY=           -343.0637 ZZZZ=           -115.8813 XXXY=              6.3971
 XXXZ=              7.7688 YYYX=              7.4214 YYYZ=             -3.2166 ZZZX=             -0.6872
 ZZZY=             -1.5346 XXYY=           -189.3404 XXZZ=           -156.5552 YYZZ=            -80.9165
 XXYZ=             -0.8107 YYXZ=              1.0386 ZZXY=              5.3052
 N-N= 3.764579162199D+02 E-N=-1.649654357111D+03  KE= 3.816706874214D+02
  Exact polarizability:   0.000   0.000   0.000   0.000   0.000   0.000
 Approx polarizability: 181.635  -1.853 132.672  -1.097  -3.530  93.197
                          Isotropic Fermi Contact Couplings
        Atom                 a.u.       MegaHertz       Gauss      10(-4) cm-1
     1  C(13)              0.02798      31.45089      11.22246      10.49089
     2  C(13)             -0.00142      -1.59612      -0.56954      -0.53241
     3  C(13)              0.01193      13.41646       4.78733       4.47525
     4  C(13)             -0.02108     -23.69364      -8.45448      -7.90335
     5  C(13)              0.04138      46.52382      16.60086      15.51868
     6  C(13)             -0.01410     -15.85605      -5.65783      -5.28901
     7  H(1)               0.00056       2.52400       0.90063       0.84192
     8  H(1)               0.01142      51.05264      18.21685      17.02933
     9  H(1)              -0.01005     -44.93909     -16.03538     -14.99007
    10  H(1)              -0.13360    -597.15931    -213.08129    -199.19090
    11  H(1)               0.00133       5.93691       2.11844       1.98034
    12  H(1)               0.00067       2.98290       1.06437       0.99499
    13  H(1)               0.00079       3.52228       1.25684       1.17491
    14  H(1)              -0.00056      -2.48772      -0.88768      -0.82981
    15  O(17)              0.04293     -26.02154      -9.28513      -8.67985
    16  H(1)               0.00223       9.98533       3.56301       3.33075
    17  O(17)             -0.01931      11.70480       4.17657       3.90430
 --------------------------------------------------------
       Center         ----  Spin Dipole Couplings  ----
                      3XX-RR        3YY-RR        3ZZ-RR
 --------------------------------------------------------
     1   Atom        0.021084      0.007951     -0.029035
     2   Atom        0.004867      0.002297     -0.007164
     3   Atom       -0.003549      0.005012     -0.001463
     4   Atom        0.001160      0.008787     -0.009947
     5   Atom        0.160079     -0.090703     -0.069376
     6   Atom        0.015805     -0.010673     -0.005131
     7   Atom        0.002384      0.001812     -0.004196
     8   Atom       -0.002865     -0.006208      0.009073
     9   Atom       -0.023171     -0.003753      0.026925
    10   Atom        0.020804      0.014416     -0.035220
    11   Atom       -0.001238      0.005574     -0.004336
    12   Atom        0.001323      0.000596     -0.001919
    13   Atom        0.003729     -0.003494     -0.000235
    14   Atom        0.007202     -0.005410     -0.001792
    15   Atom       -0.341696      0.536305     -0.194609
    16   Atom        0.002361     -0.002709      0.000348
    17   Atom       -0.797261      1.958863     -1.161602
 --------------------------------------------------------
                        XY            XZ            YZ
 --------------------------------------------------------
     1   Atom       -0.039968      0.000276      0.001975
     2   Atom       -0.005148      0.001110     -0.001596
     3   Atom       -0.019372      0.011859     -0.017924
     4   Atom        0.009230     -0.011433     -0.013134
     5   Atom       -0.380122     -0.411177      0.294801
     6   Atom       -0.003552     -0.002616      0.007442
     7   Atom        0.008588      0.002938      0.003310
     8   Atom        0.004636      0.006519      0.002533
     9   Atom       -0.021931     -0.004085     -0.032421
    10   Atom        0.008447     -0.012630     -0.000905
    11   Atom       -0.001988      0.000052      0.000284
    12   Atom       -0.002326      0.001068     -0.001102
    13   Atom       -0.001027      0.004598      0.000583
    14   Atom       -0.001271     -0.003107     -0.000147
    15   Atom        0.278877     -0.011630      0.372757
    16   Atom        0.003547     -0.006076      0.007023
    17   Atom        1.239695      0.288379      0.716420
 --------------------------------------------------------


 ---------------------------------------------------------------------------------
              Anisotropic Spin Dipole Couplings in Principal Axis System
 ---------------------------------------------------------------------------------

       Atom             a.u.   MegaHertz   Gauss  10(-4) cm-1        Axes

              Baa    -0.0298    -3.998    -1.427    -1.334 -0.2530 -0.3157  0.9145
     1 C(13)  Bbb    -0.0252    -3.387    -1.209    -1.130  0.5961  0.6937  0.4043
              Bcc     0.0550     7.385     2.635     2.463  0.7620 -0.6474 -0.0127
 
              Baa    -0.0074    -0.998    -0.356    -0.333 -0.0274  0.1477  0.9887
     2 C(13)  Bbb    -0.0017    -0.224    -0.080    -0.075  0.6261  0.7735 -0.0982
              Bcc     0.0091     1.221     0.436     0.407  0.7793 -0.6163  0.1137
 
              Baa    -0.0197    -2.641    -0.942    -0.881  0.6494  0.7090  0.2748
     3 C(13)  Bbb    -0.0140    -1.874    -0.669    -0.625 -0.5557  0.1958  0.8080
              Bcc     0.0336     4.515     1.611     1.506 -0.5190  0.6774 -0.5212
 
              Baa    -0.0191    -2.558    -0.913    -0.853  0.3643  0.2957  0.8831
     4 C(13)  Bbb    -0.0048    -0.641    -0.229    -0.214  0.7705 -0.6284 -0.1074
              Bcc     0.0238     3.199     1.141     1.067  0.5232  0.7195 -0.4568
 
              Baa    -0.3827   -51.352   -18.324   -17.129  0.4837 -0.2244  0.8460
     5 C(13)  Bbb    -0.3654   -49.034   -17.496   -16.356  0.5390  0.8379 -0.0859
              Bcc     0.7481   100.386    35.820    33.485  0.6896 -0.4975 -0.5263
 
              Baa    -0.0159    -2.135    -0.762    -0.712  0.0465  0.8273 -0.5599
     6 C(13)  Bbb    -0.0010    -0.133    -0.047    -0.044  0.2393  0.5349  0.8103
              Bcc     0.0169     2.268     0.809     0.756  0.9698 -0.1717 -0.1731
 
              Baa    -0.0066    -3.513    -1.254    -1.172 -0.6230  0.7387 -0.2574
     7 H(1)   Bbb    -0.0053    -2.837    -1.012    -0.946 -0.3689  0.0128  0.9294
              Bcc     0.0119     6.350     2.266     2.118  0.6898  0.6740  0.2645
 
              Baa    -0.0097    -5.155    -1.840    -1.720 -0.6338  0.7646  0.1172
     8 H(1)   Bbb    -0.0032    -1.721    -0.614    -0.574  0.6446  0.6058 -0.4664
              Bcc     0.0129     6.877     2.454     2.294  0.4276  0.2201  0.8768
 
              Baa    -0.0448   -23.910    -8.532    -7.976  0.7026  0.6326  0.3259
     9 H(1)   Bbb    -0.0037    -1.964    -0.701    -0.655  0.7006 -0.5345 -0.4727
              Bcc     0.0485    25.874     9.233     8.631  0.1248 -0.5604  0.8187
 
              Baa    -0.0380   -20.249    -7.225    -6.754  0.2125 -0.0174  0.9770
    10 H(1)   Bbb     0.0094     5.007     1.787     1.670 -0.4981  0.8583  0.1236
              Bcc     0.0286    15.242     5.439     5.084  0.8407  0.5129 -0.1737
 
              Baa    -0.0043    -2.320    -0.828    -0.774 -0.0402 -0.0366  0.9985
    11 H(1)   Bbb    -0.0018    -0.944    -0.337    -0.315  0.9646  0.2593  0.0484
              Bcc     0.0061     3.264     1.165     1.089 -0.2606  0.9651  0.0249
 
              Baa    -0.0024    -1.255    -0.448    -0.419 -0.1030  0.2760  0.9556
    12 H(1)   Bbb    -0.0014    -0.734    -0.262    -0.245  0.6772  0.7232 -0.1359
              Bcc     0.0037     1.989     0.710     0.663  0.7286 -0.6331  0.2613
 
              Baa    -0.0044    -2.374    -0.847    -0.792  0.3937  0.7488 -0.5331
    13 H(1)   Bbb    -0.0023    -1.245    -0.444    -0.415 -0.3794  0.6606  0.6478
              Bcc     0.0068     3.619     1.291     1.207  0.8373 -0.0528  0.5442
 
              Baa    -0.0056    -2.990    -1.067    -0.997  0.1328  0.9803  0.1461
    14 H(1)   Bbb    -0.0027    -1.423    -0.508    -0.475  0.2746 -0.1780  0.9450
              Bcc     0.0083     4.413     1.575     1.472  0.9524 -0.0853 -0.2928
 
              Baa    -0.4941    35.751    12.757    11.925  0.7591 -0.3932  0.5188
    15 O(17)  Bbb    -0.2578    18.656     6.657     6.223 -0.6099 -0.1510  0.7780
              Bcc     0.7519   -54.408   -19.414   -18.148  0.2275  0.9070  0.3544
 
              Baa    -0.0116    -6.165    -2.200    -2.057 -0.4354  0.6603 -0.6119
    16 H(1)   Bbb     0.0035     1.867     0.666     0.623  0.6586  0.6970  0.2835
              Bcc     0.0081     4.299     1.534     1.434 -0.6137  0.2796  0.7384
 
              Baa    -1.3234    95.763    34.171    31.943 -0.2921 -0.0973  0.9514
    17 O(17)  Bbb    -1.2698    91.881    32.785    30.648  0.8895 -0.3932  0.2329
              Bcc     2.5932  -187.643   -66.956   -62.591  0.3514  0.9143  0.2014
 

 ---------------------------------------------------------------------------------

 Calling FoFJK, ICntrl=    100147 FMM=F ISym2X=0 I1Cent= 0 IOpClX= 1 NMat=1 NMatS=1 NMatT=0.
 ***** Axes restored to original set *****
 -------------------------------------------------------------------
 Center     Atomic                   Forces (Hartrees/Bohr)
 Number     Number              X              Y              Z
 -------------------------------------------------------------------
      1        6           0.001372620    0.007586215    0.000017307
      2        6           0.005394482    0.001937949    0.002262033
      3        6          -0.010722814   -0.002556242   -0.004666336
      4        6          -0.003714018    0.003368830    0.000549337
      5        6           0.018253387   -0.025120970    0.000653507
      6        6           0.010868077   -0.014417837    0.000512521
      7        1          -0.002382646    0.001246776    0.001803667
      8        1          -0.001933339    0.006095048    0.000524418
      9        1          -0.003637412    0.006795372   -0.001370520
     10        1          -0.011135524    0.027784657    0.008142351
     11        1          -0.000262624    0.000062390    0.000414886
     12        1           0.000329779    0.000033447   -0.000310176
     13        1           0.001010737   -0.000377553   -0.000445343
     14        1           0.001312564    0.000387404    0.000125276
     15        8           0.022172117    0.009097626    0.008598913
     16        1          -0.003700086   -0.002130458    0.000980674
     17        8          -0.023225301   -0.019792653   -0.017792519
 -------------------------------------------------------------------
 Cartesian Forces:  Max     0.027784657 RMS     0.009446681
 FormGI is forming the generalized inverse of G from B-inverse, IUseBI=4.

 GradGradGradGradGradGradGradGradGradGradGradGradGradGradGradGradGradGrad
 Berny optimization.
 Internal  Forces:  Max     0.022492763 RMS     0.004320699
 Search for a saddle point.
 Step number   1 out of a maximum of  102
 All quantities printed in internal units (Hartrees-Bohrs-Radians)
 Second derivative matrix not updated -- analytic derivatives used.
 ITU=  0
 LST/QST climbing along tangent vector
     Eigenvalues ---   -0.04523  -0.03637  -0.01119   0.00258   0.00725
     Eigenvalues ---    0.01063   0.01418   0.01742   0.01897   0.02998
     Eigenvalues ---    0.03337   0.03574   0.03922   0.04292   0.04494
     Eigenvalues ---    0.04813   0.06206   0.06600   0.07426   0.07528
     Eigenvalues ---    0.07647   0.08309   0.09837   0.11275   0.12000
     Eigenvalues ---    0.12455   0.15670   0.18408   0.19013   0.20225
     Eigenvalues ---    0.24034   0.24777   0.26767   0.27444   0.29208
     Eigenvalues ---    0.31049   0.31916   0.32069   0.33254   0.33431
     Eigenvalues ---    0.33726   0.34439   0.35073   0.35516   0.54474
     Eigenvalues --- 1000.000001000.000001000.000001000.000001000.00000
     Eigenvalues --- 1000.000001000.000001000.000001000.000001000.00000
     Eigenvalues --- 1000.000001000.000001000.000001000.000001000.00000
     Eigenvalues --- 1000.000001000.000001000.000001000.000001000.00000
     Eigenvalues --- 1000.000001000.000001000.000001000.000001000.00000
     Eigenvalues --- 1000.000001000.000001000.000001000.000001000.00000
     Eigenvalues --- 1000.000001000.000001000.000001000.000001000.00000
     Eigenvalues --- 1000.000001000.000001000.000001000.000001000.00000
     Eigenvalues --- 1000.000001000.000001000.000001000.000001000.00000
     Eigenvalues --- 1000.000001000.000001000.000001000.000001000.00000
     Eigenvalues --- 1000.000001000.000001000.000001000.000001000.00000
     Eigenvalues --- 1000.000001000.00000
 Eigenvectors required to have negative eigenvalues:
                          R14       R17       D33       D27       D30
   1                    0.56714  -0.46294  -0.23392  -0.22908  -0.22636
                          D41       D43       D42       D51       D44
   1                    0.21864   0.21617   0.21509   0.16937   0.13677
 QST in optimization variable space.
                        Tangent   TS vect  // Eig F  Eigenval
   1         R1        -0.00032  -0.00032  -0.00977  -0.04523
   2         R2         0.00296   0.00296  -0.01008  -0.03637
   3         R3        -0.00009  -0.00009  -0.01060  -0.01119
   4         R4        -0.00037  -0.00037  -0.00046   0.00258
   5         R5        -0.00095  -0.00095  -0.00141   0.00725
   6         R6        -0.00002  -0.00002  -0.00055   0.01063
   7         R7         0.00107   0.00107  -0.00165   0.01418
   8         R8        -0.00008  -0.00008   0.00020   0.01742
   9         R9        -0.01127  -0.01127   0.00029   0.01897
  10         R10       -0.01032  -0.01032   0.00018   0.02998
  11         R11        0.00113   0.00113  -0.00024   0.03337
  12         R12       -0.01147  -0.01147   0.00116   0.03574
  13         R13       -0.00371  -0.00371   0.00071   0.03922
  14         R14        0.56714   0.56714  -0.00158   0.04292
  15         R15       -0.00007  -0.00007  -0.00219   0.04494
  16         R16        0.00251   0.00251   0.00347   0.04813
  17         R17       -0.46294  -0.46294  -0.00241   0.06206
  18         R18        0.03907   0.03907  -0.00259   0.06600
  19         A1         0.00029   0.00029   0.00102   0.07426
  20         A2         0.00069   0.00069  -0.00634   0.07528
  21         A3         0.00066   0.00066   0.00032   0.07647
  22         A4        -0.00106  -0.00106  -0.00157   0.08309
  23         A5        -0.00171  -0.00171  -0.00025   0.09837
  24         A6         0.00119   0.00119   0.00117   0.11275
  25         A7        -0.00042  -0.00042   0.00047   0.12000
  26         A8         0.00013   0.00013  -0.00402   0.12455
  27         A9         0.00029   0.00029  -0.00470   0.15670
  28         A10        0.00109   0.00109  -0.00386   0.18408
  29         A11        0.00107   0.00107  -0.00413   0.19013
  30         A12       -0.00217  -0.00217  -0.00136   0.20225
  31         A13        0.00016   0.00016  -0.00277   0.24034
  32         A14       -0.00468  -0.00468   0.00047   0.24777
  33         A15       -0.00353  -0.00353  -0.00575   0.26767
  34         A16        0.00457   0.00457  -0.00272   0.27444
  35         A17       -0.00032  -0.00032   0.00223   0.29208
  36         A18        0.00402   0.00402   0.00001   0.31049
  37         A19        0.01968   0.01968  -0.00015   0.31916
  38         A20        0.02722   0.02722  -0.00101   0.32069
  39         A21       -0.10928  -0.10928  -0.00032   0.33254
  40         A22        0.02367   0.02367   0.00024   0.33431
  41         A23        0.03141   0.03141   0.00023   0.33726
  42         A24       -0.09060  -0.09060  -0.00227   0.34439
  43         A25        0.00235   0.00235   0.00027   0.35073
  44         A26        0.00042   0.00042   0.00014   0.35516
  45         A27       -0.00334  -0.00334  -0.00469   0.54474
  46         A28        0.00196   0.00196   0.000001000.00000
  47         A29        0.00028   0.00028   0.000001000.00000
  48         A30       -0.00192  -0.00192  -0.000001000.00000
  49         A31       -0.05441  -0.05441   0.000001000.00000
  50         A32       -0.01403  -0.01403  -0.000001000.00000
  51         A33        0.06674   0.06674   0.000001000.00000
  52         D1        -0.01014  -0.01014   0.000001000.00000
  53         D2        -0.00924  -0.00924  -0.000001000.00000
  54         D3        -0.00946  -0.00946  -0.000001000.00000
  55         D4        -0.00856  -0.00856  -0.000001000.00000
  56         D5        -0.01166  -0.01166  -0.000001000.00000
  57         D6        -0.01076  -0.01076   0.000001000.00000
  58         D7        -0.00812  -0.00812   0.000001000.00000
  59         D8        -0.00359  -0.00359  -0.000001000.00000
  60         D9        -0.00782  -0.00782  -0.000001000.00000
  61         D10       -0.00778  -0.00778  -0.000001000.00000
  62         D11       -0.00324  -0.00324   0.000001000.00000
  63         D12       -0.00747  -0.00747   0.000001000.00000
  64         D13       -0.00800  -0.00800  -0.000001000.00000
  65         D14       -0.00347  -0.00347   0.000001000.00000
  66         D15       -0.00769  -0.00769   0.000001000.00000
  67         D16        0.00018   0.00018   0.000001000.00000
  68         D17        0.00083   0.00083  -0.000001000.00000
  69         D18       -0.00073  -0.00073  -0.000001000.00000
  70         D19       -0.00009  -0.00009   0.000001000.00000
  71         D20        0.02729   0.02729   0.000001000.00000
  72         D21        0.03000   0.03000   0.000001000.00000
  73         D22        0.03031   0.03031  -0.000001000.00000
  74         D23        0.02671   0.02671  -0.000001000.00000
  75         D24        0.02942   0.02942   0.000001000.00000
  76         D25        0.02973   0.02973  -0.000001000.00000
  77         D26       -0.03785  -0.03785   0.000001000.00000
  78         D27       -0.22908  -0.22908   0.000001000.00000
  79         D28       -0.05918  -0.05918   0.000001000.00000
  80         D29       -0.03513  -0.03513   0.000001000.00000
  81         D30       -0.22636  -0.22636  -0.000001000.00000
  82         D31       -0.05646  -0.05646  -0.000001000.00000
  83         D32       -0.04269  -0.04269   0.000001000.00000
  84         D33       -0.23392  -0.23392  -0.000001000.00000
  85         D34       -0.06403  -0.06403  -0.000001000.00000
  86         D35       -0.00406  -0.00406  -0.000001000.00000
  87         D36       -0.00394  -0.00394  -0.000001000.00000
  88         D37        0.00015   0.00015  -0.000001000.00000
  89         D38        0.02963   0.02963   0.000001000.00000
  90         D39        0.02608   0.02608  -0.000001000.00000
  91         D40        0.02716   0.02716  -0.000001000.00000
  92         D41        0.21864   0.21864   0.000001000.00000
  93         D42        0.21509   0.21509  -0.000001000.00000
  94         D43        0.21617   0.21617   0.000001000.00000
  95         D44        0.13677   0.13677  -0.000001000.00000
  96         D45        0.13323   0.13323  -0.000001000.00000
  97         D46        0.13430   0.13430  -0.000001000.00000
  98         D47        0.09689   0.09689   0.000001000.00000
  99         D48        0.06973   0.06973  -0.000001000.00000
 100         D49        0.05757   0.05757   0.000001000.00000
 101         D50       -0.08915  -0.08915  -0.000001000.00000
 102         D51        0.16937   0.16937  -0.000001000.00000
[...]
   yy         0.774826D+02      0.114817D+02      0.127752D+02
   zx        -0.159615D+02     -0.236525D+01     -0.263170D+01
   zy        -0.128209D+01     -0.189986D+00     -0.211388D+00
   zz         0.960769D+02      0.142371D+02      0.158409D+02

 ----------------------------------------------------------------------
 1\1\GINC-CNODE1083\Freq\UB3LYP\CC-pVTZ+d\C6H9O2(2)\LMOSKALEVA\12-May-2
 022\0\\#N Geom=AllCheck Guess=TCheck SCRF=Check GenChk UB3LYP/CC-pVTZ+
 d Freq\\cyclohexenylO2-H-Shift-TS3-QST2-b3lyp-c\\0,2\C,-2.1477087714,-
 0.2714240137,-0.2246685937\C,-1.6360894172,1.1393929613,-0.166716339\C
 ,-0.3921021782,1.4697808632,0.1728895631\C,0.6236431092,0.4488707653,0
 .5790465688\C,0.0515123162,-0.9616619795,0.7312723249\C,-1.0011178052,
 -1.3048464264,-0.2827097668\H,-1.3894770911,-2.3115002487,-0.130163524
 3\H,-0.5619528252,-1.2630967099,-1.2822215377\H,-0.1377427994,-1.28928
 80147,1.7506332124\H,1.2875197766,-1.4095932571,0.3552614732\H,-0.0841
 556546,2.5078586655,0.1911707328\H,-2.3412178534,1.9252221776,-0.41419
 83407\H,-2.7945416215,-0.3919766847,-1.096993348\H,-2.7839826374,-0.46
 23338046,0.6467971016\O,1.6131430806,0.3108887564,-0.4703103034\H,1.13
 56560906,0.7421648111,1.5005963161\O,2.2827892814,-0.8870618612,-0.112
 0915394\\Version=ES64L-G16RevB.01\State=2-A\HF=-384.4426421\S2=0.75815
 8\S2-1=0.\S2A=0.750034\RMSD=2.029e-09\RMSF=1.666e-05\ZeroPoint=0.13568
 45\Thermal=0.1425804\Dipole=-1.4057586,0.014103,0.5271473\DipoleDeriv=
 0.1146312,-0.0608117,-0.0224991,-0.2143408,-0.0004261,-0.0044132,-0.07
 90756,-0.0097948,0.2277037,0.1513037,0.0177195,0.0958898,0.1392094,0.1
 099946,0.0113936,0.0778327,-0.0372025,-0.1501867,-0.0764789,0.0392474,
 0.0161881,0.0853543,0.0471977,-0.0373689,-0.0467912,-0.0404869,-0.2129
 63,0.2172912,-0.1347273,0.0479754,-0.1647872,0.2778996,0.0134057,0.152
 0337,0.2110053,0.3794599,0.6770614,0.2426473,-0.1610228,-0.3168812,-0.
 2551514,0.086958,-0.0701655,-0.1279941,0.2138785,-0.2584499,-0.0382419
 ,-0.037634,0.2729512,0.1754542,-0.0402778,-0.0162921,0.0466081,0.01242
 84,0.0311544,-0.0655601,-0.0077485,-0.0717102,-0.1383994,0.0015431,-0.
 0059587,0.0332648,0.0628495,0.020562,0.0240367,0.0574876,-0.0141702,0.
 0501154,0.0286515,0.0189849,-0.0124126,-0.0662781,0.0007227,-0.0997305
 ,0.0552279,0.0188577,0.0881937,-0.0083989,0.000381,0.055498,-0.110466,
 -0.6219697,-0.3397632,0.2081106,-0.1431321,0.1007558,0.0428766,0.38575
 58,0.1518096,0.0065137,0.0278464,-0.0295492,-0.0244713,-0.0148823,-0.0
 925784,0.0011742,-0.0800988,0.0335288,0.1212849,-0.0108099,0.069733,-0
 .0438898,0.0874168,-0.066602,0.0222919,-0.0247636,0.0233851,0.1098632,
 -0.0606892,-0.0117359,-0.0758543,0.0122769,0.0340862,-0.0152777,-0.129
 1669,-0.0302325,-0.0504421,-0.0367281,0.0044735,0.0634007,-0.0530241,-
 0.008995,0.0027904,0.127298,0.0266809,-0.0537559,0.1218406,0.2067895,-
 0.0476904,-0.5378872,-0.51927,0.2235749,0.1185811,-0.0338488,-0.318950
 3,-0.0802796,-0.0140933,-0.097639,0.0125145,-0.0067202,-0.040422,-0.04
 61483,-0.0789198,-0.1010045,-0.2170083,0.189566,-0.0258308,0.9022344,0
 .2044452,-0.2885015,-0.3824066,-0.2108888,-0.0699351\Polar=102.9539572
 ,0.866738,77.4506924,2.3278878,-1.1376422,59.7844771\Quadrupole=-2.897
 6481,2.4381718,0.4594763,1.0479905,2.3163373,-0.1903792\PG=C01 [X(C6H9
 O2)]\NImag=1\\0.50788990,0.03248737,0.43983097,0.01760456,-0.00177570,
 0.55148388,-0.09906514,-0.03589832,-0.00820020,0.78507392,-0.03152746,
 -0.19209991,-0.00781687,0.01435109,0.57290442,-0.00715275,-0.00172891,
 -0.07673027,0.17861292,-0.02118072,0.20579953,-0.01255998,-0.01402563,
 -0.00260059,-0.47172370,-0.09180797,-0.11255805,0.73366579,-0.03382108
 ,-0.00731556,-0.00681310,-0.10060938,-0.14263257,-0.02429724,0.1118291
 3,0.62959891,-0.00100329,-0.00368091,0.00764720,-0.11334719,-0.0202708
 0,-0.08367146,0.16448063,-0.00014752,0.19461002,0.00387794,-0.00020810
 ,0.00088091,-0.03062175,0.01831268,-0.01227058,-0.12222770,0.05163114,
 -0.03356560,0.43119448,-0.00196692,0.00033454,0.00029566,0.00469777,0.
 01468829,0.00232895,0.04351157,-0.15206007,0.02598489,-0.01861245,0.50
 032852,0.00270025,0.00211021,-0.00564490,-0.00903174,0.00612700,0.0027
 1948,-0.03536390,0.02625301,-0.08999544,0.13080888,0.02380690,0.485753
 19,-0.03128655,0.00883093,-0.01790883,0.00236574,0.00094795,-0.0002446
 8,0.00437774,0.01315378,0.00054972,-0.05234914,-0.04685762,-0.02974784
 ,0.29903325,0.01232448,0.00382053,0.01221477,-0.00112620,-0.00060726,0
 .00018010,0.00056895,-0.02461748,0.00311068,-0.03750292,-0.14203955,0.
 00813137,0.12957662,0.34164204,-0.00856036,0.00593761,-0.00262798,0.00
 089196,-0.00098161,-0.00004619,0.00490247,0.00969819,0.00007353,-0.015
 82471,0.00534118,-0.08000519,0.03537697,-0.09000503,0.56331740,-0.1163
 3180,0.03018532,-0.00102113,0.01006401,-0.00026541,-0.00007473,0.00035
 394,0.00018723,-0.00221294,-0.01293437,-0.00694489,-0.00576042,-0.1183
 6260,-0.03780264,-0.06478846,0.43984444,0.03960586,-0.10730466,-0.0003
 2277,0.02470763,-0.02937568,-0.00004618,0.00069985,0.00343595,0.001079
 14,-0.02146539,-0.00926286,-0.02593829,-0.03611895,-0.07717603,-0.0106
 3012,0.08476056,0.54136055,0.00950943,-0.00971671,-0.06981324,0.002061
 84,0.00368537,0.00009797,-0.00147536,0.00080410,0.00024486,0.00098415,
 -0.00620444,0.00550832,-0.05430439,-0.01025193,-0.13837919,-0.04092563
 ,-0.01985797,0.52934772,0.00874382,0.02524999,-0.00262925,-0.00457093,
 0.00242127,-0.00042914,-0.00000647,0.00026813,0.00004264,-0.00186866,0
 .00065198,-0.00468735,-0.01063587,-0.02251064,0.00470019,-0.07988906,-
 0.08803291,0.01490223,0.08946817,-0.00698868,-0.01953790,0.00267384,0.
 00449707,-0.00115924,0.00030575,0.00009152,0.00048014,0.00009115,-0.00
 017832,0.00136709,-0.00126667,-0.00226916,-0.00520780,0.00061848,-0.08
 761215,-0.26769095,0.03596878,0.09394784,0.29149852,0.00060331,-0.0026
 3330,-0.00051937,0.00019204,-0.00033468,0.00085768,-0.00008725,0.00045
 875,0.00001122,-0.00329352,0.00013670,-0.00364420,-0.00886484,-0.02314
 360,0.00398291,0.01518725,0.03818140,-0.05678601,-0.01373356,-0.039063
 35,0.05692093,-0.01466824,0.00238471,0.02345257,0.00024762,-0.00151169
 ,-0.00054661,0.00037776,0.00010538,0.00024275,0.00065619,-0.00024419,0
 .00071583,0.00909955,0.00321094,-0.02405216,-0.08443737,-0.00908655,0.
 09357679,-0.00493591,-0.00035650,0.00971442,0.09925861,0.01191687,-0.0
 0188498,-0.01972403,0.00075827,0.00128741,-0.00068299,-0.00022008,-0.0
 0012777,0.00010353,0.00056461,0.00000795,-0.00043347,0.00523543,0.0009
 6661,-0.00496898,-0.01032174,-0.05110236,0.00936223,-0.01133794,-0.000
 39419,0.02730004,0.00292117,0.05084538,0.00102298,0.00014909,-0.001128
 26,-0.00020236,0.00008668,0.00037352,-0.00019304,-0.00028220,-0.000030
 14,-0.00013787,0.00032480,0.00002046,0.00435133,0.00191753,-0.02485374
 ,0.09478511,0.00976357,-0.25821633,0.00149395,0.00105345,-0.00316008,-
 0.09908207,-0.01116626,0.28546818,0.00060118,-0.00023371,0.00063355,0.
 00000036,-0.00037175,-0.00009898,-0.00084292,-0.00007258,-0.00022146,0
 .00183372,0.00299100,0.00952927,-0.04678715,-0.02960355,0.04627647,0.0
 0779226,0.00593346,-0.02401934,0.00079061,0.00025627,0.00113353,-0.003
 21498,-0.00097127,-0.00271341,0.04663693,-0.00009851,-0.00011786,-0.00
 092155,0.00008355,0.00011090,0.00013720,-0.00130297,-0.00107935,-0.000
 16493,-0.00400499,-0.00235128,0.02279378,-0.02554089,-0.06654991,0.074
 06482,0.00063301,0.00425677,-0.00577682,0.00103418,0.00053095,0.000005
 98,-0.00112425,0.00090243,-0.00207671,0.02964490,0.06722596,0.00031281
 ,-0.00026136,-0.00026499,-0.00009735,-0.00000696,0.00003113,0.00021911
 ,-0.00000600,0.00015980,-0.00129737,-0.00371485,0.00068820,0.03997273,
 0.08279026,-0.28807647,0.00611806,0.00453029,-0.01579797,0.00007859,-0
 .00037383,0.00103074,-0.00338204,-0.00056385,-0.00164901,-0.04334700,-
 0.08512211,0.30586672,0.00084283,-0.00783484,-0.00498060,-0.00135258,-
 0.00233953,-0.00032467,0.00889494,0.00499326,-0.00217125,-0.02908307,0
 .02360853,0.02163462,0.09781873,-0.05333043,-0.03530244,-0.02516569,0.
 01802548,0.00127685,0.00095658,-0.00016638,0.00023541,0.00002854,-0.00
 066731,0.00074220,-0.00796843,0.00866969,0.00075668,-0.12225964,0.0003
 1877,-0.00096723,-0.00067646,-0.00044845,0.00016929,-0.00006534,0.0008
 2987,-0.00145196,0.00080634,0.00078417,-0.02083454,0.00465027,0.039485
 77,-0.03060852,-0.01140591,-0.00577968,0.00256271,0.00033961,0.0000327
 6,-0.00014651,-0.00013189,-0.00006048,0.00013260,0.00023558,-0.0039817
 5,0.00240050,0.00103513,-0.03915232,0.09828420,-0.00232032,0.00339241,
 0.00092329,0.00080843,0.00102788,0.00015944,-0.00472367,-0.00225892,0.
 00109203,0.01833592,-0.01002517,-0.00841208,-0.05398982,0.02289218,-0.
 01101901,-0.00041984,-0.00302075,0.00048877,-0.00018256,-0.00003665,-0
 .00007743,-0.00088815,0.00060777,-0.00046205,0.01272598,-0.00845917,-0
 .00406921,0.07251613,-0.00408248,0.01889180,-0.00279934,0.00120747,-0.
 00491724,-0.00681400,-0.03210470,-0.00131504,-0.07471660,-0.07194394,-
 0.00771615,0.00777757,0.02154854,0.00118022,-0.00149764,0.00108587,-0.
 00143746,-0.00032629,0.00017348,0.00015669,0.00018308,-0.00008851,0.00
 006434,0.00001580,-0.00003554,-0.00001148,0.00014441,0.00045095,-0.000
 01208,-0.00175046,0.00002595,0.00086141,0.07799514,-0.00039367,0.00192
 568,0.00063790,-0.00040137,-0.00441784,0.00031587,-0.07640175,-0.31048
 179,-0.00359547,-0.00690217,-0.01660988,-0.00091063,0.00198926,0.00020
 134,0.00132074,0.00036437,0.00028879,0.00006791,-0.00007903,0.00002579
 ,-0.00004260,0.00001051,-0.00001264,-0.00001285,-0.00005432,-0.0005308
 5,-0.00002638,0.00123460,-0.00008180,-0.00071075,0.08135792,0.32847861
 ,-0.00384474,0.00063885,0.01181509,-0.00312435,-0.00836946,0.00390865,
 -0.00683347,-0.00286042,-0.03875373,0.00133358,0.00928395,0.00194514,-
 0.00146741,0.00014519,0.00031591,0.00026534,0.00021552,-0.00029648,0.0
 0008395,0.00010689,-0.00006105,0.00014122,0.00006176,-0.00005136,0.000
 33352,-0.00024780,-0.00007442,-0.00090085,-0.00029879,0.00039944,0.011
 74838,0.00240130,0.02779526,0.00990591,-0.00883026,0.00177035,-0.16875
 479,0.12502410,-0.04410485,-0.01797488,0.02444005,-0.00839601,-0.00230
 304,-0.00360653,-0.00443134,-0.00022600,-0.00048760,0.00005898,-0.0004
 3787,-0.00213409,-0.00000812,0.00047827,-0.00047966,-0.00007391,0.0000
 3105,-0.00003063,-0.00004368,0.00008845,0.00003744,0.00001147,0.000099
 05,-0.00008189,-0.00005657,0.00029188,-0.00011107,0.00232618,0.1793029
 0,0.01920380,-0.01681634,0.00517257,0.12997458,-0.20022221,0.04720676,
 -0.00751050,0.00832585,-0.00239947,-0.00160569,0.00011568,0.00013599,-
 0.00117471,0.00034409,-0.00037130,-0.00352219,-0.00402777,0.00073711,0
 .00138386,-0.00103932,-0.00006008,-0.00006397,0.00015116,-0.00010934,0
 .00008882,0.00000257,0.00005257,0.00050151,0.00006581,-0.00027038,0.00
 022514,0.00126227,-0.00049714,-0.13635277,0.21041156,-0.00151198,-0.00
 103180,0.00282930,-0.04334569,0.04652285,-0.05604099,-0.00820989,0.005
 71041,0.00310272,-0.00213204,-0.00104479,0.01237567,-0.00066861,0.0004
 5639,0.00018940,0.00115460,-0.00140110,0.00114778,0.00005750,-0.000251
 36,0.00020205,-0.00038096,0.00032365,0.00001821,-0.00006145,0.00009352
 ,-0.00002264,0.00095011,0.00002793,-0.00047192,0.00246506,-0.00059525,
 -0.00678513,0.05275133,-0.04960390,0.04360993,-0.13064292,-0.01541426,
 -0.12001606,-0.00977414,-0.00437131,-0.00903637,0.00194869,-0.00164386
 ,0.00003266,0.00019629,0.00078083,-0.00001245,-0.00160854,0.00286973,0
 .00062043,-0.01666019,-0.00088732,-0.01793806,0.00064058,0.00006987,0.
 00012712,0.00069885,-0.00080037,0.00006546,-0.00014069,-0.00010009,-0.
 00022685,-0.00162309,-0.00030672,0.00028362,-0.00065585,-0.00007130,0.
 00054281,0.00074283,0.00002749,0.00069818,0.14462054,-0.01542069,-0.04
 925948,-0.02151674,-0.02056237,-0.00454881,-0.02737627,-0.00088920,-0.
 00444112,0.00063449,0.00142822,-0.00134836,-0.00104240,0.00130568,-0.0
 0199282,-0.00050875,0.01563252,0.00101542,0.01677226,-0.00076885,0.000
 26181,0.00020512,-0.00090487,0.00095164,0.00003512,-0.00009466,0.00015
 177,0.00014793,0.00201005,0.00029601,-0.00064684,-0.00150627,-0.000076
 97,0.00144998,0.00051605,0.00111571,0.00036717,0.01740799,0.05694650,-
 0.12062498,-0.02279813,-0.21147600,0.00031855,0.00039283,0.00093043,0.
 00088000,-0.00029610,-0.00001522,0.00026592,-0.00003427,0.00003254,-0.
 00032887,-0.00001146,0.00110546,0.00336638,0.00001434,0.00201913,-0.00
 032496,0.00043771,-0.00017957,-0.00008535,0.00017058,0.00105390,0.0002
 7182,0.00010402,0.00025488,0.00045069,-0.00003411,-0.00026380,-0.00000
 987,0.00011372,-0.00009557,-0.00008957,-0.00062997,0.00065429,0.131015
 19,0.02530191,0.22884283,-0.12399033,-0.02272757,0.11277063,-0.0096047
 9,-0.00661012,0.00815281,0.00129235,-0.00157015,0.00005477,-0.00048516
 ,0.00025620,0.00088313,0.00175839,-0.00039381,0.00129373,-0.01531525,-
 0.00186105,0.01844249,0.00145824,-0.00041192,-0.00037169,-0.00283952,0
 .00288126,-0.00018977,-0.00027575,0.00006210,-0.00048004,-0.00056926,-
 0.00000448,0.00029922,0.00002579,-0.00021075,-0.00100959,-0.00016118,-
 0.00043357,0.00019707,0.01093556,0.00367609,-0.01460419,0.13752451,-0.
 02666889,-0.05166257,0.03869344,-0.02135962,-0.00738046,0.02425027,0.0
 0087843,-0.00285143,-0.00027777,0.00041977,-0.00110905,0.00126693,-0.0
 0207529,0.00029456,-0.00069353,0.01488806,0.00155571,-0.01832741,-0.00
 065870,0.00106798,-0.00021363,0.00403306,-0.00237455,0.00004131,0.0001
 8179,0.00003358,0.00022701,0.00074452,0.00001061,-0.00050194,0.0002679
 1,-0.00028000,-0.00270072,0.00087077,-0.00020845,-0.00088521,0.0021986
 1,0.00089083,-0.00268436,0.02742594,0.06101422,0.11236705,0.03476364,-
 0.20448693,-0.00164536,0.00122260,0.00356548,-0.00118867,-0.00040134,-
 0.00012811,0.00012862,-0.00018576,-0.00009722,-0.00040242,-0.00005884,
 0.00093841,0.00036164,-0.00108622,-0.00101724,0.00008014,-0.00060360,0
 .00046779,-0.00004499,-0.00045765,0.00137350,0.00037679,0.00006176,0.0
 0015435,0.00036447,0.00002476,-0.00011566,0.00014447,-0.00007534,-0.00
 043764,0.00036118,0.00057886,0.00004276,0.01457937,0.00499022,-0.02311
 461,-0.12490895,-0.03872849,0.22250695,-0.00040495,0.00348376,0.004623
 46,0.00433435,0.00386966,0.00198952,-0.03403784,0.01083092,0.01346942,
 -0.05474407,-0.02053312,0.03395381,-0.04806417,0.00118227,0.03899915,0
 .00852685,-0.00938075,-0.00420080,-0.00018063,0.00000719,-0.00005565,-
 0.00024391,0.00038801,0.00099330,-0.00257030,-0.00621059,0.00088725,0.
 04388245,-0.00208471,-0.01162775,0.00157098,-0.00113467,-0.00009739,0.
 00007601,-0.00034161,-0.00190800,0.00129484,-0.00152143,-0.00012241,-0
 .00010516,-0.00041346,-0.00041848,0.17527989,0.00084631,-0.00452633,-0
 .00541450,-0.00103569,-0.00411263,-0.00050836,0.02504696,-0.00148160,-
 0.01969860,-0.00213744,-0.06401378,0.00914458,0.01685529,-0.03968471,0
 .02227241,-0.00763202,0.01064634,0.00560951,0.00046988,0.00017471,0.00
 082201,0.00003322,0.00032624,-0.00143429,-0.00962957,0.00096896,0.0005
 1376,-0.06112649,-0.03894687,0.04459440,-0.00143211,0.00096884,0.00055
 085,0.00008901,0.00073517,0.00277807,-0.00129589,0.00172548,-0.0000439
 7,-0.00017142,0.00113376,0.00039212,-0.04151314,0.23949389,0.00057104,
 0.00098919,0.00096062,-0.00352978,0.00044238,-0.00155060,0.00184720,-0
 .00563030,0.01306409,0.01745430,0.02399915,-0.13322902,0.01936680,0.02
 284483,-0.01557112,0.00135650,-0.00164609,-0.00169117,0.00009949,0.000
 11172,0.00032012,0.00034187,0.00011275,0.00086971,0.00371841,0.0020274
 3,0.00094917,0.00669747,0.01381556,-0.00667967,-0.00033500,0.00027432,
 -0.00007533,-0.00000841,-0.00019224,-0.00149088,0.00012586,-0.00007480
 ,0.00006699,-0.00019178,-0.00008518,0.00010184,-0.08025180,-0.09158857
 ,0.23898333,0.00058997,-0.00000643,-0.00017075,0.00010744,0.00348112,-
 0.00077092,-0.01211442,-0.00506281,-0.01881022,-0.10738504,-0.03353418
 ,-0.10899592,-0.00601644,-0.00381037,-0.00984078,0.00013713,-0.0024635
 2,0.00071691,-0.00054098,-0.00007383,-0.00048583,0.00010332,0.00002427
 ,0.00007892,-0.00000476,0.00012444,0.00029337,0.00041448,0.00055635,-0
 .00006968,0.00067901,0.00031477,0.00076436,-0.00106954,-0.00008460,0.0
 0125594,0.00004042,-0.00015597,-0.00003487,0.00000259,-0.00011710,-0.0
 0005092,0.00478644,0.00950297,0.03209586,0.11793746,0.00011883,-0.0004
 1624,0.00028408,0.00141618,-0.00322988,0.00083797,0.01256259,0.0074817
 4,0.01956507,-0.02962790,-0.07109710,-0.05349858,-0.01803996,-0.011378
 76,-0.02461821,-0.00086059,-0.00466935,0.00250922,-0.00138189,-0.00026
 603,-0.00113561,0.00032874,0.00011573,0.00004030,0.00003349,0.00105574
 ,0.00059312,-0.00166062,0.00087867,-0.00004176,-0.00068011,0.00072130,
 -0.00039266,0.00121187,0.00014056,-0.00132168,-0.00013986,0.00025299,0
 .00003749,-0.00006579,0.00020388,0.00000894,0.00252233,0.00177043,-0.0
 0180294,0.03443323,0.07584065,0.00018005,-0.00037155,-0.00031055,0.000
 01386,0.00163854,-0.00037021,-0.00635656,-0.00184504,-0.00391899,-0.10
 552376,-0.05576896,-0.20968009,0.00266280,0.00071239,0.00398409,-0.000
 16667,0.00122942,0.00097586,0.00014691,0.00014531,0.00008520,0.0002023
 5,0.00013522,0.00006326,-0.00037407,-0.00025084,0.00080712,-0.00245297
 ,-0.00081985,0.00049253,-0.00011125,0.00036104,0.00031965,-0.00036943,
 -0.00012136,-0.00006017,-0.00005988,0.00009841,-0.00000252,-0.00005678
 ,0.00008770,0.00003638,0.00711376,-0.00806215,-0.03795439,0.10510291,0
 .05950033,0.24274658,-0.00070230,0.00134958,0.00070862,0.00008840,0.00
 250209,0.00017214,-0.00470671,-0.00271521,0.00857153,-0.03153418,0.034
 25349,-0.00337504,-0.09761929,0.03574931,0.02668602,0.00314186,-0.0024
 7577,0.00124434,-0.00009085,-0.00024465,-0.00029116,-0.00017734,-0.000
 30502,-0.00095958,0.00391707,-0.00235795,0.00019266,0.03683463,0.00986
 684,-0.03155234,-0.00012350,0.00048868,-0.00026154,-0.00008906,-0.0003
 1558,-0.00131119,-0.00001317,-0.00015227,-0.00034348,0.00034897,-0.000
 61581,-0.00010391,-0.09940080,0.07313014,0.00064195,0.00233292,-0.0001
 7054,0.00004874,0.18779337,0.00006362,0.00599735,0.00500945,0.00095527
 ,0.00062620,0.00032315,-0.00386078,-0.00078188,-0.00113981,0.04910479,
 -0.03611559,-0.02132999,-0.08530412,0.05259370,0.02493000,0.01409025,-
 0.01451257,-0.00572081,-0.00068993,0.00003495,-0.00035127,0.00032476,0
 .00020936,0.00143421,0.00588345,-0.00701086,0.00018529,0.10649027,-0.0
 1176295,-0.04245983,0.00144797,-0.00138085,0.00051271,-0.00007478,-0.0
 0035633,-0.00014489,0.00167646,-0.00194061,-0.00004024,0.00015905,-0.0
 0033861,-0.00044565,0.06084936,-0.10517791,0.03640280,-0.00312834,0.00
 259568,0.00333140,-0.14798731,0.11732094,0.00014696,-0.00398261,-0.002
 65688,-0.00037559,-0.00218503,-0.00003359,0.00726105,0.00191372,-0.003
 49239,0.00385319,-0.01452394,0.02166513,0.06564737,-0.03192483,-0.0133
 2822,-0.00722505,0.00893580,0.00216723,0.00030122,0.00008239,0.0005490
 7,0.00007453,-0.00018030,0.00031023,-0.00416363,0.00373142,0.00001261,
 -0.05949184,-0.00342034,0.00912354,-0.00075499,0.00047648,0.00013158,0
 .00030238,0.00037134,0.00069962,-0.00080103,0.00116320,0.00018684,-0.0
 0028104,0.00053157,0.00020993,-0.00334738,0.04007274,-0.05707369,-0.00
 107838,-0.00056507,0.00278627,-0.00006777,-0.00049654,0.03874271\\-0.0
 0000412,-0.00000409,0.00001127,-0.00001013,0.00000022,-0.00000099,0.00
 000766,0.00000406,-0.00000322,0.00001337,-0.00006578,0.00001316,-0.000
 01831,0.00002917,0.00000473,0.00000922,-0.00000352,0.00000013,0.000000
 39,-0.00000151,-0.00000176,-0.00000193,-0.00000162,-0.00000242,-0.0000
 0500,-0.00000056,-0.00000156,0.00001106,0.00001491,0.00001639,0.000001
 34,-0.00000054,0.00000254,-0.00000134,0.00000089,0.00000444,0.00000425
 ,-0.00000051,-0.00000288,-0.00000526,-0.00000029,-0.00000333,0.0000317
 2,0.00004632,-0.00004583,0.00000408,-0.00000095,-0.00000321,-0.0000370
 0,-0.00001620,0.00001254\\\@


 ERROR IS THE FORCE THAT WELDS MEN TOGETHER....
 TRUTH IS COMMUNICATED TO MEN ONLY BY DEEDS OF TRUTH.
           TOLSTOI,MY RELIGION
 Job cpu time:       0 days  0 hours  0 minutes 35.4 seconds.
 Elapsed time:       0 days  0 hours  6 minutes 33.4 seconds.
 File lengths (MBytes):  RWF=    346 Int=      0 D2E=      0 Chk=     16 Scr=      1
 Normal termination of Gaussian 16 at Thu May 12 17:07:05 2022.
