 Entering Gaussian System, Link 0=g16
 Initial command:
 /apps/chpc/chem/gaussian16/B01/g16/l1.exe "/mnt/lustre/users/lmoskaleva/Kgalaletso/4186625.sched01/Gau-56428.inp" -scrdir="/mnt/lustre/users/lmoskaleva/Kgalaletso/4186625.sched01/"
 Entering Link 1 = /apps/chpc/chem/gaussian16/B01/g16/l1.exe PID=     56430.
  
 Copyright (c) 1988-2017, Gaussian, Inc.  All Rights Reserved.
  
 This is part of the Gaussian(R) 16 program.  It is based on
 the Gaussian(R) 09 system (copyright 2009, Gaussian, Inc.),
 the Gaussian(R) 03 system (copyright 2003, Gaussian, Inc.),
 the Gaussian(R) 98 system (copyright 1998, Gaussian, Inc.),
 the Gaussian(R) 94 system (copyright 1995, Gaussian, Inc.),
 the Gaussian 92(TM) system (copyright 1992, Gaussian, Inc.),
 the Gaussian 90(TM) system (copyright 1990, Gaussian, Inc.),
 the Gaussian 88(TM) system (copyright 1988, Gaussian, Inc.),
 the Gaussian 86(TM) system (copyright 1986, Carnegie Mellon
 University), and the Gaussian 82(TM) system (copyright 1983,
 Carnegie Mellon University). Gaussian is a federally registered
 trademark of Gaussian, Inc.
  
 This software contains proprietary and confidential information,
 including trade secrets, belonging to Gaussian, Inc.
  
 This software is provided under written license and may be
 used, copied, transmitted, or stored only in accord with that
 written license.
  
 The following legend is applicable only to US Government
 contracts under FAR:
  
                    RESTRICTED RIGHTS LEGEND
  
 Use, reproduction and disclosure by the US Government is
 subject to restrictions as set forth in subparagraphs (a)
 and (c) of the Commercial Computer Software - Restricted
 Rights clause in FAR 52.227-19.
  
 Gaussian, Inc.
 340 Quinnipiac St., Bldg. 40, Wallingford CT 06492
  
  
 ---------------------------------------------------------------
 Warning -- This program may not be used in any manner that
 competes with the business of Gaussian, Inc. or will provide
 assistance to any competitor of Gaussian, Inc.  The licensee
 of this program is prohibited from giving any competitor of
 Gaussian, Inc. access to this program.  By using this program,
 the user acknowledges that Gaussian, Inc. is engaged in the
 business of creating and licensing software in the field of
 computational chemistry and represents and warrants to the
 licensee that it is not a competitor of Gaussian, Inc. and that
 it will not use this program in any manner prohibited above.
 ---------------------------------------------------------------
  

 Cite this work as:
 Gaussian 16, Revision B.01,
 M. J. Frisch, G. W. Trucks, H. B. Schlegel, G. E. Scuseria, 
 M. A. Robb, J. R. Cheeseman, G. Scalmani, V. Barone, 
 G. A. Petersson, H. Nakatsuji, X. Li, M. Caricato, A. V. Marenich, 
 J. Bloino, B. G. Janesko, R. Gomperts, B. Mennucci, H. P. Hratchian, 
 J. V. Ortiz, A. F. Izmaylov, J. L. Sonnenberg, D. Williams-Young, 
 F. Ding, F. Lipparini, F. Egidi, J. Goings, B. Peng, A. Petrone, 
 T. Henderson, D. Ranasinghe, V. G. Zakrzewski, J. Gao, N. Rega, 
 G. Zheng, W. Liang, M. Hada, M. Ehara, K. Toyota, R. Fukuda, 
 J. Hasegawa, M. Ishida, T. Nakajima, Y. Honda, O. Kitao, H. Nakai, 
 T. Vreven, K. Throssell, J. A. Montgomery, Jr., J. E. Peralta, 
 F. Ogliaro, M. J. Bearpark, J. J. Heyd, E. N. Brothers, K. N. Kudin, 
 V. N. Staroverov, T. A. Keith, R. Kobayashi, J. Normand, 
 K. Raghavachari, A. P. Rendell, J. C. Burant, S. S. Iyengar, 
 J. Tomasi, M. Cossi, J. M. Millam, M. Klene, C. Adamo, R. Cammi, 
 J. W. Ochterski, R. L. Martin, K. Morokuma, O. Farkas, 
 J. B. Foresman, and D. J. Fox, Gaussian, Inc., Wallingford CT, 2016.
 
 ******************************************
 Gaussian 16:  ES64L-G16RevB.01 20-Dec-2017
                16-May-2022 
 ******************************************
 %nprocshared=24
 Will use up to   24 processors via shared memory.
 %lindaworkers=cnode0930.cm.cluster,cnode0929.cm.cluster,cnode0936.cm.cluster
 %mem=20GB
 %chk=QOOH-1-cyclohexenyl-OH-Elim-TS--b3lyp-c.chk
 SetLPE:    new flags="-opt 'Tsnet.Node.lindarsharg: ssh'  -nodelist 'cnode0930.cm.cluster cnode0929.cm.cluster cnode0936.cm.cluster' -env GAUSS_MDEF=2684354560 -env GAUSS_EXEDIR="/apps/chpc/chem/gaussian16/B01/g16/bsd:/apps/chpc/chem/gaussian16/B01/g16""
 Will use up to    3 processors via Linda.
 ----------------------------------------------------------------------
 # opt=(calcfc,ts,noeigentest) freq ub3lyp cc-pvtz+d int=grid=ultrafine
 ----------------------------------------------------------------------
 1/5=1,10=4,11=1,18=20,26=4,38=1/1,3;
 2/9=110,12=2,17=6,18=5,40=1/2;
 3/5=16,6=1,7=9,11=2,25=1,30=1,71=2,74=-5,75=-5,116=2,140=1/1,2,3;
 4//1;
 5/5=2,38=5/2;
 8/6=4,10=90,11=11/1;
 11/6=1,8=1,9=11,15=111,16=1/1,2,10;
 10/6=1,13=1/2;
 6/7=2,8=2,9=2,10=2,28=1/1;
 7/10=1,18=20,25=1/1,2,3,16;
 1/5=1,10=4,11=1,18=20,26=4/3(2);
 2/9=110/2;
 99//99;
 2/9=110/2;
 3/5=16,6=1,7=9,11=2,25=1,30=1,71=1,74=-5,75=-5,116=2/1,2,3;
 4/5=5,16=3,69=1/1;
 5/5=2,38=5/2;
 7//1,2,3,16;
 1/5=1,11=1,18=20,26=4/3(-5);
 2/9=110/2;
 6/7=2,8=2,9=2,10=2,19=2,28=1/1;
 99/9=1/99;
 --------------------------------------
 QOOH-1-cyclohexenyl-OH-Elim-TS-b3lyp-c
 --------------------------------------
 Symbolic Z-matrix:
 Charge =  0 Multiplicity = 2
 C                    -2.20781   0.12974  -0.22581 
 C                    -1.33152   1.34421  -0.08723 
 C                    -0.06438   1.29653   0.31171 
 C                     0.59522   0.01237   0.71115 
 C                    -0.22296  -1.19      0.55645 
 C                    -1.39223  -1.17004  -0.36089 
 H                    -2.02478  -2.04414  -0.20054 
 H                    -1.02818  -1.23809  -1.39496 
 H                     0.08452  -2.09649   1.05375 
 H                     3.37927  -0.31408  -0.25382 
 H                     0.53653   2.19384   0.37521 
 H                    -1.77816   2.30192  -0.33033 
 H                    -2.85893   0.24543  -1.09497 
 H                    -2.87696   0.06456   0.63942 
 O                     1.43504  -0.56852  -0.2574 
 H                     1.10772   0.10173   1.67403 
 O                     2.71509   0.34957  -0.48011 
 

 GradGradGradGradGradGradGradGradGradGradGradGradGradGradGradGradGradGrad
 Berny optimization.
 Initialization pass.
                           ----------------------------
                           !    Initial Parameters    !
                           ! (Angstroms and Degrees)  !
 --------------------------                            --------------------------
 ! Name  Definition              Value          Derivative Info.                !
 --------------------------------------------------------------------------------
 ! R1    R(1,2)                  1.504          calculate D2E/DX2 analytically  !
 ! R2    R(1,6)                  1.5404         calculate D2E/DX2 analytically  !
 ! R3    R(1,13)                 1.0921         calculate D2E/DX2 analytically  !
 ! R4    R(1,14)                 1.0957         calculate D2E/DX2 analytically  !
 ! R5    R(2,3)                  1.3293         calculate D2E/DX2 analytically  !
 ! R6    R(2,12)                 1.0843         calculate D2E/DX2 analytically  !
 ! R7    R(3,4)                  1.4979         calculate D2E/DX2 analytically  !
 ! R8    R(3,11)                 1.0818         calculate D2E/DX2 analytically  !
 ! R9    R(4,5)                  1.4625         calculate D2E/DX2 analytically  !
 ! R10   R(4,15)                 1.4074         calculate D2E/DX2 analytically  !
 ! R11   R(4,16)                 1.0944         calculate D2E/DX2 analytically  !
 ! R12   R(5,6)                  1.4863         calculate D2E/DX2 analytically  !
 ! R13   R(5,9)                  1.0787         calculate D2E/DX2 analytically  !
 ! R14   R(6,7)                  1.0908         calculate D2E/DX2 analytically  !
 ! R15   R(6,8)                  1.0984         calculate D2E/DX2 analytically  !
 ! R16   R(10,17)                0.9658         calculate D2E/DX2 analytically  !
 ! R17   R(15,17)                1.5909         calculate D2E/DX2 analytically  !
 ! A1    A(2,1,6)              112.3929         calculate D2E/DX2 analytically  !
 ! A2    A(2,1,13)             109.5815         calculate D2E/DX2 analytically  !
 ! A3    A(2,1,14)             109.335          calculate D2E/DX2 analytically  !
 ! A4    A(6,1,13)             109.5877         calculate D2E/DX2 analytically  !
 ! A5    A(6,1,14)             110.0221         calculate D2E/DX2 analytically  !
 ! A6    A(13,1,14)            105.7018         calculate D2E/DX2 analytically  !
 ! A7    A(1,2,3)              123.6469         calculate D2E/DX2 analytically  !
 ! A8    A(1,2,12)             116.9074         calculate D2E/DX2 analytically  !
 ! A9    A(3,2,12)             119.4456         calculate D2E/DX2 analytically  !
 ! A10   A(2,3,4)              122.0416         calculate D2E/DX2 analytically  !
 ! A11   A(2,3,11)             121.1551         calculate D2E/DX2 analytically  !
 ! A12   A(4,3,11)             116.7983         calculate D2E/DX2 analytically  !
 ! A13   A(3,4,5)              115.4837         calculate D2E/DX2 analytically  !
 ! A14   A(3,4,15)             115.6633         calculate D2E/DX2 analytically  !
 ! A15   A(3,4,16)             111.7666         calculate D2E/DX2 analytically  !
 ! A16   A(5,4,15)              85.5093         calculate D2E/DX2 analytically  !
 ! A17   A(5,4,16)             114.9708         calculate D2E/DX2 analytically  !
 ! A18   A(15,4,16)            111.0835         calculate D2E/DX2 analytically  !
 ! A19   A(4,5,6)              119.6262         calculate D2E/DX2 analytically  !
 ! A20   A(4,5,9)              118.8578         calculate D2E/DX2 analytically  !
 ! A21   A(6,5,9)              121.3372         calculate D2E/DX2 analytically  !
 ! A22   A(1,6,5)              111.946          calculate D2E/DX2 analytically  !
 ! A23   A(1,6,7)              110.8696         calculate D2E/DX2 analytically  !
 ! A24   A(1,6,8)              108.0783         calculate D2E/DX2 analytically  !
 ! A25   A(5,6,7)              110.7753         calculate D2E/DX2 analytically  !
 ! A26   A(5,6,8)              108.6313         calculate D2E/DX2 analytically  !
 ! A27   A(7,6,8)              106.316          calculate D2E/DX2 analytically  !
 ! A28   A(4,15,17)            109.7715         calculate D2E/DX2 analytically  !
 ! A29   A(10,17,15)            97.1221         calculate D2E/DX2 analytically  !
 ! D1    D(6,1,2,3)            -20.7597         calculate D2E/DX2 analytically  !
 ! D2    D(6,1,2,12)           159.3015         calculate D2E/DX2 analytically  !
 ! D3    D(13,1,2,3)          -142.8607         calculate D2E/DX2 analytically  !
 ! D4    D(13,1,2,12)           37.2004         calculate D2E/DX2 analytically  !
 ! D5    D(14,1,2,3)           101.7208         calculate D2E/DX2 analytically  !
 ! D6    D(14,1,2,12)          -78.2181         calculate D2E/DX2 analytically  !
 ! D7    D(2,1,6,5)             41.0485         calculate D2E/DX2 analytically  !
 ! D8    D(2,1,6,7)            165.3041         calculate D2E/DX2 analytically  !
 ! D9    D(2,1,6,8)            -78.5456         calculate D2E/DX2 analytically  !
 ! D10   D(13,1,6,5)           163.146          calculate D2E/DX2 analytically  !
 ! D11   D(13,1,6,7)           -72.5984         calculate D2E/DX2 analytically  !
 ! D12   D(13,1,6,8)            43.5519         calculate D2E/DX2 analytically  !
 ! D13   D(14,1,6,5)           -81.043          calculate D2E/DX2 analytically  !
 ! D14   D(14,1,6,7)            43.2126         calculate D2E/DX2 analytically  !
 ! D15   D(14,1,6,8)           159.3629         calculate D2E/DX2 analytically  !
 ! D16   D(1,2,3,4)             -2.2793         calculate D2E/DX2 analytically  !
 ! D17   D(1,2,3,11)           178.564          calculate D2E/DX2 analytically  !
 ! D18   D(12,2,3,4)           177.6581         calculate D2E/DX2 analytically  !
 ! D19   D(12,2,3,11)           -1.4986         calculate D2E/DX2 analytically  !
 ! D20   D(2,3,4,5)              3.4863         calculate D2E/DX2 analytically  !
 ! D21   D(2,3,4,15)           101.1165         calculate D2E/DX2 analytically  !
 ! D22   D(2,3,4,16)          -130.4512         calculate D2E/DX2 analytically  !
 ! D23   D(11,3,4,5)          -177.3222         calculate D2E/DX2 analytically  !
 ! D24   D(11,3,4,15)          -79.6919         calculate D2E/DX2 analytically  !
 ! D25   D(11,3,4,16)           48.7404         calculate D2E/DX2 analytically  !
 ! D26   D(3,4,5,6)             20.4561         calculate D2E/DX2 analytically  !
 ! D27   D(3,4,5,9)           -164.3377         calculate D2E/DX2 analytically  !
 ! D28   D(15,4,5,6)           -95.8907         calculate D2E/DX2 analytically  !
 ! D29   D(15,4,5,9)            79.3155         calculate D2E/DX2 analytically  !
 ! D30   D(16,4,5,6)           152.9189         calculate D2E/DX2 analytically  !
 ! D31   D(16,4,5,9)           -31.8749         calculate D2E/DX2 analytically  !
 ! D32   D(3,4,15,17)           67.5248         calculate D2E/DX2 analytically  !
 ! D33   D(5,4,15,17)         -176.3027         calculate D2E/DX2 analytically  !
 ! D34   D(16,4,15,17)         -61.2434         calculate D2E/DX2 analytically  !
 ! D35   D(4,5,6,1)            -42.8066         calculate D2E/DX2 analytically  !
 ! D36   D(4,5,6,7)           -167.1148         calculate D2E/DX2 analytically  !
 ! D37   D(4,5,6,8)             76.4622         calculate D2E/DX2 analytically  !
 ! D38   D(9,5,6,1)            142.1092         calculate D2E/DX2 analytically  !
 ! D39   D(9,5,6,7)             17.801          calculate D2E/DX2 analytically  !
 ! D40   D(9,5,6,8)            -98.6219         calculate D2E/DX2 analytically  !
 ! D41   D(4,15,17,10)         121.7076         calculate D2E/DX2 analytically  !
 --------------------------------------------------------------------------------
 Trust Radius=3.00D-01 FncErr=1.00D-07 GrdErr=1.00D-06 EigMax=2.50D+02 EigMin=1.00D-04
 Number of steps in this run=     97 maximum allowed number of steps=    102.
 Search for a saddle point of order  1.
 GradGradGradGradGradGradGradGradGradGradGradGradGradGradGradGradGradGrad

                          Input orientation:                          
 ---------------------------------------------------------------------
 Center     Atomic      Atomic             Coordinates (Angstroms)
 Number     Number       Type             X           Y           Z
 ---------------------------------------------------------------------
      1          6           0       -2.207805    0.129740   -0.225809
      2          6           0       -1.331519    1.344212   -0.087231
      3          6           0       -0.064376    1.296530    0.311708
      4          6           0        0.595218    0.012372    0.711154
      5          6           0       -0.222957   -1.189998    0.556446
      6          6           0       -1.392230   -1.170037   -0.360888
      7          1           0       -2.024777   -2.044143   -0.200539
      8          1           0       -1.028183   -1.238091   -1.394963
      9          1           0        0.084524   -2.096493    1.053753
     10          1           0        3.379265   -0.314082   -0.253822
     11          1           0        0.536533    2.193842    0.375210
     12          1           0       -1.778159    2.301924   -0.330327
     13          1           0       -2.858925    0.245432   -1.094973
     14          1           0       -2.876960    0.064557    0.639418
     15          8           0        1.435035   -0.568516   -0.257399
     16          1           0        1.107724    0.101731    1.674034
     17          8           0        2.715086    0.349567   -0.480109
 ---------------------------------------------------------------------
                    Distance matrix (angstroms):
                    1          2          3          4          5
     1  C    0.000000
     2  C    1.504002   0.000000
     3  C    2.498922   1.329315   0.000000
     4  C    2.957805   2.474577   1.497893   0.000000
     5  C    2.508636   2.839974   2.503571   1.462545   0.000000
     6  C    1.540399   2.529826   2.880891   2.548983   1.486304
     7  H    2.181721   3.460404   3.907130   3.453232   2.132873
     8  H    2.151602   2.910406   3.204053   2.938506   2.111563
     9  H    3.442116   3.891719   3.476407   2.196701   1.078699
    10  H    5.604740   4.996917   3.843509   2.964569   3.794702
    11  H    3.486134   2.103649   1.081801   2.207966   3.472758
    12  H    2.216733   1.084341   2.088080   3.458273   3.924097
    13  H    1.092148   2.134439   3.300464   3.904807   3.425780
    14  H    1.095735   2.133992   3.088006   3.473311   2.936754
    15  O    3.709291   3.367686   2.459779   1.407415   1.948723
    16  H    3.821377   3.255107   2.158077   1.094434   2.165243
    17  O    4.934354   4.185533   3.041237   2.454923   3.475170
                    6          7          8          9         10
     6  C    0.000000
     7  H    1.090820   0.000000
     8  H    1.098395   1.752018   0.000000
     9  H    2.245068   2.454616   2.823328   0.000000
    10  H    4.848844   5.674471   4.645599   3.967626   0.000000
    11  H    3.946853   4.985209   4.166535   4.367117   3.842719
    12  H    3.493478   4.354993   3.771952   4.973061   5.783456
    13  H    2.166478   2.595760   2.375384   4.331920   6.319462
    14  H    2.174686   2.424533   3.041969   3.689471   6.331003
    15  O    2.892398   3.761782   2.794606   2.424400   1.960811
    16  H    3.465266   4.234544   3.971897   2.502774   3.008227
    17  O    4.381034   5.317359   4.167695   3.905867   0.965800
                   11         12         13         14         15
    11  H    0.000000
    12  H    2.422243   0.000000
    13  H    4.181731   2.445792   0.000000
    14  H    4.031823   2.674618   1.743890   0.000000
    15  O    2.972898   4.309218   4.449959   4.449535   0.000000
    16  H    2.527871   4.145676   4.839665   4.116979   2.070458
    17  O    2.979767   4.901365   5.608788   5.710127   1.590914
                   16         17
    16  H    0.000000
    17  O    2.699142   0.000000
 Stoichiometry    C6H9O2(2)
 Framework group  C1[X(C6H9O2)]
 Deg. of freedom    45
 Full point group                 C1      NOp   1
 Largest Abelian subgroup         C1      NOp   1
 Largest concise Abelian subgroup C1      NOp   1
                         Standard orientation:                         
 ---------------------------------------------------------------------
 Center     Atomic      Atomic             Coordinates (Angstroms)
 Number     Number       Type             X           Y           Z
 ---------------------------------------------------------------------
      1          6           0       -2.207805    0.129740   -0.225809
      2          6           0       -1.331519    1.344212   -0.087231
      3          6           0       -0.064376    1.296530    0.311708
      4          6           0        0.595218    0.012372    0.711154
      5          6           0       -0.222957   -1.189998    0.556446
      6          6           0       -1.392230   -1.170037   -0.360888
      7          1           0       -2.024777   -2.044143   -0.200539
      8          1           0       -1.028183   -1.238091   -1.394963
      9          1           0        0.084524   -2.096493    1.053753
     10          1           0        3.379265   -0.314082   -0.253822
     11          1           0        0.536533    2.193842    0.375210
     12          1           0       -1.778159    2.301924   -0.330327
     13          1           0       -2.858925    0.245432   -1.094973
     14          1           0       -2.876960    0.064557    0.639418
     15          8           0        1.435035   -0.568516   -0.257399
     16          1           0        1.107724    0.101731    1.674034
     17          8           0        2.715086    0.349567   -0.480109
 ---------------------------------------------------------------------
 Rotational constants (GHZ):           3.9206447           1.5677138           1.2642002
 Standard basis: CC-pVTZ+d (5D, 7F)
 There are   415 symmetry adapted cartesian basis functions of A   symmetry.
 There are   366 symmetry adapted basis functions of A   symmetry.
   366 basis functions,   569 primitive gaussians,   415 cartesian basis functions
    31 alpha electrons       30 beta electrons
       nuclear repulsion energy       376.9003692147 Hartrees.
 NAtoms=   17 NActive=   17 NUniq=   17 SFac= 1.00D+00 NAtFMM=   60 NAOKFM=F Big=F
 Integral buffers will be    131072 words long.
 Raffenetti 2 integral format.
 Two-electron integral symmetry is turned on.
 One-electron integrals computed using PRISM.
 NBasis=   366 RedAO= T EigKep=  1.34D-04  NBF=   366
 NBsUse=   366 1.00D-06 EigRej= -1.00D+00 NBFU=   366
 ExpMin= 1.03D-01 ExpMax= 1.53D+04 ExpMxC= 5.22D+02 IAcc=3 IRadAn=         5 AccDes= 0.00D+00
 Harris functional with IExCor=  402 and IRadAn=       5 diagonalized for initial guess.
 HarFok:  IExCor=  402 AccDes= 0.00D+00 IRadAn=         5 IDoV= 1 UseB2=F ITyADJ=14
 ICtDFT=  3500011 ScaDFX=  1.000000  1.000000  1.000000  1.000000
 FoFCou: FMM=F IPFlag=           0 FMFlag=      100000 FMFlg1=           0
         NFxFlg=           0 DoJE=T BraDBF=F KetDBF=T FulRan=T
         wScrn=  0.000000 ICntrl=       500 IOpCl=  0 I1Cent=   200000004 NGrid=           0
         NMat0=    1 NMatS0=      1 NMatT0=    0 NMatD0=    1 NMtDS0=    0 NMtDT0=    0
 Petite list used in FoFCou.
 Initial guess <Sx>= 0.0000 <Sy>= 0.0000 <Sz>= 0.5000 <S**2>= 0.7500 S= 0.5000
 Requested convergence on RMS density matrix=1.00D-08 within 128 cycles.
 Requested convergence on MAX density matrix=1.00D-06.
 Requested convergence on             energy=1.00D-06.
 No special actions if energy rises.
 Integral accuracy reduced to 1.0D-05 until final iterations.
 Initial convergence to 1.0D-05 achieved.  Increase integral accuracy.
 SCF Done:  E(UB3LYP) =  -384.454885399     A.U. after   18 cycles
            NFock= 18  Conv=0.54D-08     -V/T= 2.0061
 <Sx>= 0.0000 <Sy>= 0.0000 <Sz>= 0.5000 <S**2>= 0.7685 S= 0.5092
 <L.S>= 0.000000000000E+00
 Annihilation of the first spin contaminant:
 S**2 before annihilation     0.7685,   after     0.7501
 DoSCS=F DFT=T ScalE2(SS,OS)=  1.000000  1.000000
 Range of M.O.s used for correlation:     1   366
 NBasis=   366 NAE=    31 NBE=    30 NFC=     0 NFV=     0
 NROrb=    366 NOA=    31 NOB=    30 NVA=   335 NVB=   336

 **** Warning!!: The largest alpha MO coefficient is  0.13614925D+02


 **** Warning!!: The largest beta MO coefficient is  0.13783942D+02

 Symmetrizing basis deriv contribution to polar:
 IMax=3 JMax=2 DiffMx= 0.00D+00
 G2DrvN: will do    18 centers at a time, making    1 passes.
 Calling FoFCou, ICntrl=  3107 FMM=F I1Cent=   0 AccDes= 0.00D+00.
 End of G2Drv F.D. properties file   721 does not exist.
 End of G2Drv F.D. properties file   722 does not exist.
 End of G2Drv F.D. properties file   788 does not exist.
          IDoAtm=11111111111111111
          Differentiating once with respect to nuclear coordinates.
 CalDSu exits because no D1Ps are significant.
          There are    54 degrees of freedom in the 1st order CPHF.  IDoFFX=6 NUNeed=     0.
     48 vectors produced by pass  0 Test12= 3.79D-14 1.85D-09 XBig12= 2.43D-01 1.95D-01.
 AX will form    48 AO Fock derivatives at one time.
     48 vectors produced by pass  1 Test12= 3.79D-14 1.85D-09 XBig12= 3.33D-02 3.55D-02.
     48 vectors produced by pass  2 Test12= 3.79D-14 1.85D-09 XBig12= 8.90D-04 3.36D-03.
     48 vectors produced by pass  3 Test12= 3.79D-14 1.85D-09 XBig12= 8.21D-06 2.91D-04.
     48 vectors produced by pass  4 Test12= 3.79D-14 1.85D-09 XBig12= 5.28D-08 2.42D-05.
     48 vectors produced by pass  5 Test12= 3.79D-14 1.85D-09 XBig12= 3.87D-10 1.75D-06.
     40 vectors produced by pass  6 Test12= 3.79D-14 1.85D-09 XBig12= 1.78D-12 1.26D-07.
     16 vectors produced by pass  7 Test12= 3.79D-14 1.85D-09 XBig12= 6.93D-15 7.62D-09.
 InvSVY:  IOpt=1 It=  1 EMax= 3.89D-16
 Solved reduced A of dimension   344 with    54 vectors.
 End of Minotr F.D. properties file   721 does not exist.
 End of Minotr F.D. properties file   722 does not exist.
 End of Minotr F.D. properties file   788 does not exist.

 **********************************************************************

            Population analysis using the SCF Density.

 **********************************************************************

 Orbital symmetries:
 Alpha Orbitals:
       Occupied  (A) (A) (A) (A) (A) (A) (A) (A) (A) (A) (A) (A)
                 (A) (A) (A) (A) (A) (A) (A) (A) (A) (A) (A) (A)
                 (A) (A) (A) (A) (A) (A) (A)
       Virtual   (A) (A) (A) (A) (A) (A) (A) (A) (A) (A) (A) (A)
                 (A) (A) (A) (A) (A) (A) (A) (A) (A) (A) (A) (A)
                 (A) (A) (A) (A) (A) (A) (A) (A) (A) (A) (A) (A)
                 (A) (A) (A) (A) (A) (A) (A) (A) (A) (A) (A) (A)
                 (A) (A) (A) (A) (A) (A) (A) (A) (A) (A) (A) (A)
                 (A) (A) (A) (A) (A) (A) (A) (A) (A) (A) (A) (A)
                 (A) (A) (A) (A) (A) (A) (A) (A) (A) (A) (A) (A)
                 (A) (A) (A) (A) (A) (A) (A) (A) (A) (A) (A) (A)
                 (A) (A) (A) (A) (A) (A) (A) (A) (A) (A) (A) (A)
                 (A) (A) (A) (A) (A) (A) (A) (A) (A) (A) (A) (A)
                 (A) (A) (A) (A) (A) (A) (A) (A) (A) (A) (A) (A)
                 (A) (A) (A) (A) (A) (A) (A) (A) (A) (A) (A) (A)
                 (A) (A) (A) (A) (A) (A) (A) (A) (A) (A) (A) (A)
                 (A) (A) (A) (A) (A) (A) (A) (A) (A) (A) (A) (A)
                 (A) (A) (A) (A) (A) (A) (A) (A) (A) (A) (A) (A)
                 (A) (A) (A) (A) (A) (A) (A) (A) (A) (A) (A) (A)
                 (A) (A) (A) (A) (A) (A) (A) (A) (A) (A) (A) (A)
                 (A) (A) (A) (A) (A) (A) (A) (A) (A) (A) (A) (A)
                 (A) (A) (A) (A) (A) (A) (A) (A) (A) (A) (A) (A)
                 (A) (A) (A) (A) (A) (A) (A) (A) (A) (A) (A) (A)
                 (A) (A) (A) (A) (A) (A) (A) (A) (A) (A) (A) (A)
                 (A) (A) (A) (A) (A) (A) (A) (A) (A) (A) (A) (A)
                 (A) (A) (A) (A) (A) (A) (A) (A) (A) (A) (A) (A)
                 (A) (A) (A) (A) (A) (A) (A) (A) (A) (A) (A) (A)
                 (A) (A) (A) (A) (A) (A) (A) (A) (A) (A) (A) (A)
                 (A) (A) (A) (A) (A) (A) (A) (A) (A) (A) (A) (A)
                 (A) (A) (A) (A) (A) (A) (A) (A) (A) (A) (A) (A)
                 (A) (A) (A) (A) (A) (A) (A) (A) (A) (A) (A)
 Beta  Orbitals:
       Occupied  (A) (A) (A) (A) (A) (A) (A) (A) (A) (A) (A) (A)
                 (A) (A) (A) (A) (A) (A) (A) (A) (A) (A) (A) (A)
                 (A) (A) (A) (A) (A) (A)
       Virtual   (A) (A) (A) (A) (A) (A) (A) (A) (A) (A) (A) (A)
                 (A) (A) (A) (A) (A) (A) (A) (A) (A) (A) (A) (A)
                 (A) (A) (A) (A) (A) (A) (A) (A) (A) (A) (A) (A)
                 (A) (A) (A) (A) (A) (A) (A) (A) (A) (A) (A) (A)
                 (A) (A) (A) (A) (A) (A) (A) (A) (A) (A) (A) (A)
                 (A) (A) (A) (A) (A) (A) (A) (A) (A) (A) (A) (A)
                 (A) (A) (A) (A) (A) (A) (A) (A) (A) (A) (A) (A)
                 (A) (A) (A) (A) (A) (A) (A) (A) (A) (A) (A) (A)
                 (A) (A) (A) (A) (A) (A) (A) (A) (A) (A) (A) (A)
                 (A) (A) (A) (A) (A) (A) (A) (A) (A) (A) (A) (A)
                 (A) (A) (A) (A) (A) (A) (A) (A) (A) (A) (A) (A)
                 (A) (A) (A) (A) (A) (A) (A) (A) (A) (A) (A) (A)
                 (A) (A) (A) (A) (A) (A) (A) (A) (A) (A) (A) (A)
                 (A) (A) (A) (A) (A) (A) (A) (A) (A) (A) (A) (A)
                 (A) (A) (A) (A) (A) (A) (A) (A) (A) (A) (A) (A)
                 (A) (A) (A) (A) (A) (A) (A) (A) (A) (A) (A) (A)
                 (A) (A) (A) (A) (A) (A) (A) (A) (A) (A) (A) (A)
                 (A) (A) (A) (A) (A) (A) (A) (A) (A) (A) (A) (A)
                 (A) (A) (A) (A) (A) (A) (A) (A) (A) (A) (A) (A)
                 (A) (A) (A) (A) (A) (A) (A) (A) (A) (A) (A) (A)
                 (A) (A) (A) (A) (A) (A) (A) (A) (A) (A) (A) (A)
                 (A) (A) (A) (A) (A) (A) (A) (A) (A) (A) (A) (A)
                 (A) (A) (A) (A) (A) (A) (A) (A) (A) (A) (A) (A)
                 (A) (A) (A) (A) (A) (A) (A) (A) (A) (A) (A) (A)
                 (A) (A) (A) (A) (A) (A) (A) (A) (A) (A) (A) (A)
                 (A) (A) (A) (A) (A) (A) (A) (A) (A) (A) (A) (A)
                 (A) (A) (A) (A) (A) (A) (A) (A) (A) (A) (A) (A)
                 (A) (A) (A) (A) (A) (A) (A) (A) (A) (A) (A) (A)
 The electronic state is 2-A.
 Alpha  occ. eigenvalues --  -19.17284 -19.14634 -10.23168 -10.20574 -10.18591
 Alpha  occ. eigenvalues --  -10.18562 -10.18173 -10.17211  -1.06768  -0.94010
 Alpha  occ. eigenvalues --   -0.83287  -0.75962  -0.73018  -0.63158  -0.61480
 Alpha  occ. eigenvalues --   -0.52479  -0.51392  -0.49082  -0.46779  -0.45350
 Alpha  occ. eigenvalues --   -0.43431  -0.41637  -0.41200  -0.39017  -0.37030
 Alpha  occ. eigenvalues --   -0.34730  -0.33440  -0.30390  -0.26537  -0.26334
 Alpha  occ. eigenvalues --   -0.20779
 Alpha virt. eigenvalues --   -0.01058  -0.00223   0.03187   0.05853   0.06664
 Alpha virt. eigenvalues --    0.07055   0.08124   0.09728   0.09907   0.12759
 Alpha virt. eigenvalues --    0.12988   0.15777   0.19029   0.19998   0.21040
 Alpha virt. eigenvalues --    0.24199   0.25317   0.26272   0.26787   0.29722
 Alpha virt. eigenvalues --    0.30877   0.31380   0.33497   0.33964   0.35856
 Alpha virt. eigenvalues --    0.36987   0.38820   0.40072   0.40925   0.41523
 Alpha virt. eigenvalues --    0.42066   0.42887   0.43775   0.44515   0.45265
 Alpha virt. eigenvalues --    0.46092   0.47989   0.48113   0.48316   0.49326
 Alpha virt. eigenvalues --    0.51038   0.51672   0.52654   0.53606   0.56222
 Alpha virt. eigenvalues --    0.57317   0.59528   0.60730   0.63951   0.65616
 Alpha virt. eigenvalues --    0.67162   0.69479   0.70844   0.70883   0.71805
 Alpha virt. eigenvalues --    0.74804   0.76090   0.78573   0.79382   0.82496
 Alpha virt. eigenvalues --    0.84902   0.86239   0.88273   0.89681   0.91471
 Alpha virt. eigenvalues --    0.93342   0.97478   0.97849   0.98307   0.98908
 Alpha virt. eigenvalues --    1.01261   1.02372   1.02618   1.06096   1.07266
 Alpha virt. eigenvalues --    1.07584   1.10291   1.10374   1.12694   1.13393
 Alpha virt. eigenvalues --    1.14457   1.16645   1.17007   1.18995   1.21195
 Alpha virt. eigenvalues --    1.21526   1.23797   1.24933   1.25378   1.26129
 Alpha virt. eigenvalues --    1.29590   1.29867   1.31970   1.32103   1.33969
 Alpha virt. eigenvalues --    1.34961   1.37122   1.37938   1.39553   1.40071
 Alpha virt. eigenvalues --    1.42115   1.42443   1.45163   1.47627   1.49250
 Alpha virt. eigenvalues --    1.50612   1.53227   1.54414   1.57591   1.58426
 Alpha virt. eigenvalues --    1.60612   1.63699   1.69198   1.71555   1.72401
 Alpha virt. eigenvalues --    1.78279   1.79477   1.83577   1.85582   1.95285
 Alpha virt. eigenvalues --    1.98018   2.01651   2.04102   2.08233   2.10549
 Alpha virt. eigenvalues --    2.12802   2.13963   2.22270   2.25062   2.27416
 Alpha virt. eigenvalues --    2.28174   2.31717   2.33032   2.38835   2.40581
 Alpha virt. eigenvalues --    2.43026   2.44238   2.45486   2.47675   2.49365
 Alpha virt. eigenvalues --    2.51020   2.53065   2.54890   2.55554   2.57130
 Alpha virt. eigenvalues --    2.57558   2.61370   2.62998   2.65052   2.66449
 Alpha virt. eigenvalues --    2.70411   2.71933   2.73953   2.74345   2.76330
 Alpha virt. eigenvalues --    2.79303   2.80549   2.82654   2.83600   2.85440
 Alpha virt. eigenvalues --    2.90097   2.91107   2.92367   2.93781   2.94587
 Alpha virt. eigenvalues --    2.96769   2.97603   3.00982   3.02032   3.02890
 Alpha virt. eigenvalues --    3.04123   3.06042   3.07632   3.08907   3.10800
 Alpha virt. eigenvalues --    3.11539   3.12630   3.13133   3.14447   3.16530
 Alpha virt. eigenvalues --    3.18991   3.19444   3.21120   3.24182   3.24579
 Alpha virt. eigenvalues --    3.26074   3.27832   3.29358   3.30039   3.30994
 Alpha virt. eigenvalues --    3.32039   3.34546   3.34890   3.36955   3.39590
 Alpha virt. eigenvalues --    3.41029   3.42755   3.43177   3.45658   3.45871
 Alpha virt. eigenvalues --    3.47055   3.48086   3.51986   3.54962   3.56558
 Alpha virt. eigenvalues --    3.59153   3.62979   3.63337   3.63872   3.65775
 Alpha virt. eigenvalues --    3.67718   3.69930   3.71881   3.72086   3.74561
 Alpha virt. eigenvalues --    3.74866   3.76484   3.77480   3.79009   3.79357
 Alpha virt. eigenvalues --    3.81783   3.83116   3.84456   3.85119   3.87242
 Alpha virt. eigenvalues --    3.89728   3.91054   3.93005   3.93235   3.96615
 Alpha virt. eigenvalues --    3.97495   3.99178   3.99537   4.01327   4.02949
 Alpha virt. eigenvalues --    4.05843   4.06137   4.08908   4.09839   4.11426
 Alpha virt. eigenvalues --    4.12025   4.14344   4.17021   4.18407   4.19798
 Alpha virt. eigenvalues --    4.20891   4.21351   4.23701   4.25784   4.27026
 Alpha virt. eigenvalues --    4.29929   4.31611   4.35125   4.36607   4.37314
 Alpha virt. eigenvalues --    4.41332   4.43662   4.47268   4.47729   4.49792
 Alpha virt. eigenvalues --    4.51876   4.57206   4.60437   4.60873   4.64389
 Alpha virt. eigenvalues --    4.66091   4.70217   4.71119   4.72968   4.75546
 Alpha virt. eigenvalues --    4.81724   4.84377   4.85735   4.88740   4.89554
 Alpha virt. eigenvalues --    4.91231   4.95277   4.95595   4.99077   5.00339
 Alpha virt. eigenvalues --    5.01915   5.06751   5.07056   5.11234   5.13872
 Alpha virt. eigenvalues --    5.16424   5.18242   5.21703   5.22829   5.24942
 Alpha virt. eigenvalues --    5.26341   5.26674   5.30425   5.36783   5.39773
 Alpha virt. eigenvalues --    5.41322   5.42031   5.44118   5.46303   5.54626
 Alpha virt. eigenvalues --    5.56849   5.63110   5.67980   5.71402   5.74987
 Alpha virt. eigenvalues --    5.79309   5.87108   5.88696   5.92865   5.95569
 Alpha virt. eigenvalues --    6.01640   6.04620   6.12569   6.20574   6.37309
 Alpha virt. eigenvalues --    6.40273   6.46688   6.61928   6.64857   6.70403
 Alpha virt. eigenvalues --    6.75424   6.79044   6.89537   6.95391   7.16118
 Alpha virt. eigenvalues --    7.25405   7.70634  10.01799  10.80814  10.86763
 Alpha virt. eigenvalues --   11.24328  12.42703  12.86634  13.06863  14.15538
  Beta  occ. eigenvalues --  -19.17286 -19.13855 -10.23235 -10.19393 -10.18633
  Beta  occ. eigenvalues --  -10.18532 -10.18174 -10.17203  -1.06061  -0.92619
  Beta  occ. eigenvalues --   -0.82910  -0.75431  -0.72148  -0.62981  -0.60578
  Beta  occ. eigenvalues --   -0.52072  -0.50674  -0.48501  -0.46376  -0.45025
  Beta  occ. eigenvalues --   -0.43088  -0.41224  -0.41040  -0.38177  -0.36459
  Beta  occ. eigenvalues --   -0.34125  -0.32813  -0.29963  -0.26284  -0.26005
  Beta virt. eigenvalues --   -0.08796  -0.00258   0.01851   0.03394   0.06211
  Beta virt. eigenvalues --    0.06740   0.07325   0.08235   0.09995   0.10095
  Beta virt. eigenvalues --    0.12970   0.13081   0.16051   0.19290   0.20277
  Beta virt. eigenvalues --    0.21222   0.24486   0.25395   0.26808   0.27569
  Beta virt. eigenvalues --    0.30176   0.31033   0.31736   0.34016   0.35215
  Beta virt. eigenvalues --    0.36076   0.37715   0.39164   0.40275   0.41138
  Beta virt. eigenvalues --    0.42052   0.42194   0.42950   0.44009   0.44658
  Beta virt. eigenvalues --    0.45445   0.46241   0.48238   0.48498   0.48529
  Beta virt. eigenvalues --    0.49580   0.51402   0.51965   0.53000   0.53836
  Beta virt. eigenvalues --    0.56737   0.57774   0.59912   0.61083   0.64238
  Beta virt. eigenvalues --    0.65778   0.67494   0.69881   0.71082   0.71213
  Beta virt. eigenvalues --    0.72158   0.75046   0.76216   0.78899   0.79644
  Beta virt. eigenvalues --    0.82699   0.85087   0.86872   0.88560   0.90124
  Beta virt. eigenvalues --    0.91723   0.93621   0.97558   0.97933   0.98608
  Beta virt. eigenvalues --    0.99364   1.01656   1.02750   1.02852   1.06322
  Beta virt. eigenvalues --    1.07484   1.07972   1.10482   1.10680   1.13047
  Beta virt. eigenvalues --    1.13569   1.14585   1.16977   1.17511   1.19127
  Beta virt. eigenvalues --    1.21632   1.21801   1.24042   1.25143   1.25637
  Beta virt. eigenvalues --    1.26423   1.29809   1.30266   1.32170   1.32742
  Beta virt. eigenvalues --    1.34411   1.35098   1.37338   1.38164   1.39786
  Beta virt. eigenvalues --    1.40655   1.42559   1.42604   1.45533   1.48161
  Beta virt. eigenvalues --    1.49497   1.50970   1.53680   1.54610   1.57853
  Beta virt. eigenvalues --    1.58739   1.61349   1.64060   1.69928   1.72047
  Beta virt. eigenvalues --    1.73365   1.78539   1.79894   1.83700   1.85905
  Beta virt. eigenvalues --    1.95675   1.98433   2.01869   2.04528   2.08751
  Beta virt. eigenvalues --    2.10789   2.12963   2.14620   2.23216   2.26127
  Beta virt. eigenvalues --    2.28184   2.28448   2.32216   2.33727   2.39245
  Beta virt. eigenvalues --    2.40939   2.43376   2.44484   2.45878   2.48931
  Beta virt. eigenvalues --    2.49677   2.51375   2.53387   2.55140   2.56093
  Beta virt. eigenvalues --    2.57382   2.57819   2.61694   2.63311   2.65376
  Beta virt. eigenvalues --    2.67813   2.70812   2.72627   2.74180   2.74585
  Beta virt. eigenvalues --    2.76911   2.79817   2.81171   2.83161   2.84332
  Beta virt. eigenvalues --    2.86265   2.90726   2.91578   2.92853   2.94083
  Beta virt. eigenvalues --    2.95211   2.97608   2.97940   3.01392   3.02886
  Beta virt. eigenvalues --    3.03182   3.04510   3.06481   3.07989   3.09234
  Beta virt. eigenvalues --    3.11178   3.12164   3.12963   3.14074   3.15094
  Beta virt. eigenvalues --    3.16853   3.19590   3.19718   3.21682   3.24699
  Beta virt. eigenvalues --    3.24764   3.26412   3.28353   3.29751   3.30298
  Beta virt. eigenvalues --    3.31277   3.32718   3.34955   3.35468   3.37325
  Beta virt. eigenvalues --    3.39827   3.41339   3.42951   3.43479   3.45888
  Beta virt. eigenvalues --    3.46630   3.47575   3.48457   3.52403   3.55175
  Beta virt. eigenvalues --    3.56899   3.59427   3.63046   3.63763   3.64157
  Beta virt. eigenvalues --    3.65955   3.67997   3.70225   3.72134   3.72308
  Beta virt. eigenvalues --    3.74840   3.75176   3.76805   3.77790   3.79259
  Beta virt. eigenvalues --    3.79667   3.82323   3.83496   3.84796   3.85336
  Beta virt. eigenvalues --    3.87514   3.89968   3.91315   3.93102   3.93631
  Beta virt. eigenvalues --    3.96906   3.97809   3.99611   3.99910   4.01508
  Beta virt. eigenvalues --    4.03215   4.06107   4.06539   4.09187   4.10454
  Beta virt. eigenvalues --    4.11685   4.12408   4.14596   4.17177   4.18904
  Beta virt. eigenvalues --    4.20203   4.21119   4.21764   4.23914   4.26439
  Beta virt. eigenvalues --    4.27379   4.30202   4.31769   4.35320   4.36812
  Beta virt. eigenvalues --    4.37959   4.41532   4.44122   4.47551   4.48083
  Beta virt. eigenvalues --    4.50034   4.52388   4.57496   4.60748   4.61067
  Beta virt. eigenvalues --    4.64586   4.66344   4.70428   4.71436   4.73062
  Beta virt. eigenvalues --    4.75821   4.82130   4.84541   4.86118   4.89082
  Beta virt. eigenvalues --    4.89896   4.91807   4.95429   4.96285   4.99556
  Beta virt. eigenvalues --    5.00579   5.02087   5.07218   5.07559   5.11380
  Beta virt. eigenvalues --    5.14147   5.16725   5.18624   5.21912   5.22917
  Beta virt. eigenvalues --    5.25370   5.26666   5.26906   5.30669   5.37112
  Beta virt. eigenvalues --    5.40121   5.41848   5.42315   5.44687   5.46620
  Beta virt. eigenvalues --    5.54987   5.57220   5.63567   5.68124   5.71811
  Beta virt. eigenvalues --    5.75319   5.79458   5.87291   5.89005   5.93060
  Beta virt. eigenvalues --    5.95821   6.02599   6.04796   6.12693   6.20713
  Beta virt. eigenvalues --    6.38652   6.40913   6.48135   6.62853   6.65061
  Beta virt. eigenvalues --    6.71011   6.76346   6.79452   6.89873   6.96093
  Beta virt. eigenvalues --    7.16223   7.26305   7.71349  10.01900  10.80912
  Beta virt. eigenvalues --   10.87636  11.25211  12.43018  12.86690  13.07231
  Beta virt. eigenvalues --   14.15587
          Condensed to atoms (all electrons):
               1          2          3          4          5          6
     1  C    4.872869   0.321759  -0.035504  -0.024389  -0.018576   0.323143
     2  C    0.321759   5.004919   0.570202  -0.001535  -0.057570  -0.014141
     3  C   -0.035504   0.570202   5.111553   0.246247   0.050992  -0.039412
     4  C   -0.024389  -0.001535   0.246247   4.788926   0.211112  -0.006904
     5  C   -0.018576  -0.057570   0.050992   0.211112   5.372452   0.297187
     6  C    0.323143  -0.014141  -0.039412  -0.006904   0.297187   4.871824
     7  H   -0.031119   0.008522  -0.001609   0.005994  -0.038982   0.409432
     8  H   -0.037947  -0.004483   0.005228   0.000182  -0.051193   0.392926
     9  H    0.004924  -0.000735   0.006906  -0.033596   0.422031  -0.035182
    10  H   -0.000016  -0.000016  -0.000145   0.000127  -0.004617   0.000187
    11  H    0.008278  -0.057197   0.421784  -0.047783   0.010817  -0.001983
    12  H   -0.041763   0.416084  -0.048149   0.006315  -0.000390   0.005694
    13  H    0.412603  -0.041850   0.005479  -0.000579   0.008376  -0.033030
    14  H    0.396825  -0.036391  -0.001650  -0.000312  -0.000305  -0.029704
    15  O   -0.002580   0.007822  -0.064897   0.278287  -0.055926   0.006329
    16  H   -0.001682   0.007298  -0.078692   0.444805  -0.045792   0.008310
    17  O   -0.000004  -0.000088  -0.002890  -0.030121   0.022102  -0.000551
               7          8          9         10         11         12
     1  C   -0.031119  -0.037947   0.004924  -0.000016   0.008278  -0.041763
     2  C    0.008522  -0.004483  -0.000735  -0.000016  -0.057197   0.416084
     3  C   -0.001609   0.005228   0.006906  -0.000145   0.421784  -0.048149
     4  C    0.005994   0.000182  -0.033596   0.000127  -0.047783   0.006315
     5  C   -0.038982  -0.051193   0.422031  -0.004617   0.010817  -0.000390
     6  C    0.409432   0.392926  -0.035182   0.000187  -0.001983   0.005694
     7  H    0.605342  -0.033260  -0.008287  -0.000004   0.000080  -0.000395
     8  H   -0.033260   0.606485   0.001599   0.000150   0.000168  -0.000097
     9  H   -0.008287   0.001599   0.523909  -0.000006  -0.000289   0.000104
    10  H   -0.000004   0.000150  -0.000006   0.477915  -0.000461   0.000001
    11  H    0.000080   0.000168  -0.000289  -0.000461   0.550898  -0.010440
    12  H   -0.000395  -0.000097   0.000104   0.000001  -0.010440   0.562890
    13  H   -0.002240  -0.006978  -0.000340   0.000001  -0.000250  -0.006736
    14  H   -0.008518   0.008851   0.000278   0.000002  -0.000233   0.000866
    15  O    0.000377   0.009314   0.000634  -0.003268  -0.001872  -0.000247
    16  H    0.000216   0.000295  -0.009502   0.001677  -0.003018  -0.000596
    17  O    0.000028  -0.000868   0.000042   0.311467   0.010268  -0.000009
              13         14         15         16         17
     1  C    0.412603   0.396825  -0.002580  -0.001682  -0.000004
     2  C   -0.041850  -0.036391   0.007822   0.007298  -0.000088
     3  C    0.005479  -0.001650  -0.064897  -0.078692  -0.002890
     4  C   -0.000579  -0.000312   0.278287   0.444805  -0.030121
     5  C    0.008376  -0.000305  -0.055926  -0.045792   0.022102
     6  C   -0.033030  -0.029704   0.006329   0.008310  -0.000551
     7  H   -0.002240  -0.008518   0.000377   0.000216   0.000028
     8  H   -0.006978   0.008851   0.009314   0.000295  -0.000868
     9  H   -0.000340   0.000278   0.000634  -0.009502   0.000042
    10  H    0.000001   0.000002  -0.003268   0.001677   0.311467
    11  H   -0.000250  -0.000233  -0.001872  -0.003018   0.010268
    12  H   -0.006736   0.000866  -0.000247  -0.000596  -0.000009
    13  H    0.608668  -0.036119   0.000025  -0.000040  -0.000010
    14  H   -0.036119   0.610313  -0.000170  -0.000067  -0.000004
    15  O    0.000025  -0.000170   8.074717  -0.043385   0.017534
    16  H   -0.000040  -0.000067  -0.043385   0.639708   0.005848
    17  O   -0.000010  -0.000004   0.017534   0.005848   7.967730
          Atomic-Atomic Spin Densities.
               1          2          3          4          5          6
     1  C    0.031025   0.004731  -0.002417   0.000540  -0.005952   0.010746
     2  C    0.004731   0.012298  -0.007041   0.002247  -0.007260   0.003362
     3  C   -0.002417  -0.007041   0.008503   0.000097  -0.004154   0.000542
     4  C    0.000540   0.002247   0.000097  -0.042487   0.007496   0.000107
     5  C   -0.005952  -0.007260  -0.004154   0.007496   0.896487  -0.027641
     6  C    0.010746   0.003362   0.000542   0.000107  -0.027641  -0.043668
     7  H    0.004739   0.000694  -0.000258  -0.000403  -0.003347   0.002813
     8  H   -0.014547  -0.004999   0.003482   0.000805  -0.032953   0.012143
     9  H   -0.000016   0.000087  -0.000481   0.000551   0.009269   0.002151
    10  H   -0.000001  -0.000054   0.000355  -0.000019  -0.001860   0.000025
    11  H    0.000107  -0.001361   0.002050  -0.000781  -0.000254   0.000032
    12  H   -0.000187   0.001510  -0.000929   0.000200  -0.000223   0.000052
    13  H   -0.005625  -0.003055   0.001104  -0.000115   0.000896  -0.001045
    14  H   -0.004973  -0.003704   0.000985  -0.000048   0.005730  -0.002080
    15  O   -0.000078  -0.001649   0.007231   0.005150  -0.048933   0.000464
    16  H    0.000057   0.001305  -0.001671   0.003856  -0.003159  -0.000050
    17  O   -0.000018   0.000493  -0.003388  -0.001265   0.013292  -0.000206
               7          8          9         10         11         12
     1  C    0.004739  -0.014547  -0.000016  -0.000001   0.000107  -0.000187
     2  C    0.000694  -0.004999   0.000087  -0.000054  -0.001361   0.001510
     3  C   -0.000258   0.003482  -0.000481   0.000355   0.002050  -0.000929
     4  C   -0.000403   0.000805   0.000551  -0.000019  -0.000781   0.000200
     5  C   -0.003347  -0.032953   0.009269  -0.001860  -0.000254  -0.000223
     6  C    0.002813   0.012143   0.002151   0.000025   0.000032   0.000052
     7  H    0.008365  -0.006505   0.000737  -0.000005  -0.000014   0.000020
     8  H   -0.006505   0.086102  -0.000930   0.000139   0.000208  -0.000220
     9  H    0.000737  -0.000930  -0.036057  -0.000037   0.000006  -0.000000
    10  H   -0.000005   0.000139  -0.000037  -0.001814   0.000134  -0.000002
    11  H   -0.000014   0.000208   0.000006   0.000134   0.000067  -0.000268
    12  H    0.000020  -0.000220  -0.000000  -0.000002  -0.000268   0.000663
    13  H   -0.000917   0.004357  -0.000005   0.000002   0.000076  -0.000541
    14  H   -0.001105   0.001967  -0.000052   0.000002   0.000099  -0.000355
    15  O   -0.000026   0.002607  -0.000641   0.007389   0.000944  -0.000037
    16  H    0.000062  -0.000453   0.000791  -0.000751  -0.000823   0.000043
    17  O    0.000020  -0.000866   0.000067  -0.005150  -0.000883   0.000013
              13         14         15         16         17
     1  C   -0.005625  -0.004973  -0.000078   0.000057  -0.000018
     2  C   -0.003055  -0.003704  -0.001649   0.001305   0.000493
     3  C    0.001104   0.000985   0.007231  -0.001671  -0.003388
     4  C   -0.000115  -0.000048   0.005150   0.003856  -0.001265
     5  C    0.000896   0.005730  -0.048933  -0.003159   0.013292
     6  C   -0.001045  -0.002080   0.000464  -0.000050  -0.000206
     7  H   -0.000917  -0.001105  -0.000026   0.000062   0.000020
     8  H    0.004357   0.001967   0.002607  -0.000453  -0.000866
     9  H   -0.000005  -0.000052  -0.000641   0.000791   0.000067
    10  H    0.000002   0.000002   0.007389  -0.000751  -0.005150
    11  H    0.000076   0.000099   0.000944  -0.000823  -0.000883
    12  H   -0.000541  -0.000355  -0.000037   0.000043   0.000013
    13  H    0.004985   0.002805   0.000035  -0.000036  -0.000009
    14  H    0.002805   0.004864   0.000051  -0.000134  -0.000009
    15  O    0.000035   0.000051   0.046280  -0.007774  -0.078856
    16  H   -0.000036  -0.000134  -0.007774   0.015546   0.003435
    17  O   -0.000009  -0.000009  -0.078856   0.003435   0.345040
 Mulliken charges and spin densities:
               1          2
     1  C   -0.146821   0.018131
     2  C   -0.122599  -0.002396
     3  C   -0.145444   0.004010
     4  C    0.163226  -0.024069
     5  C   -0.121717   0.797433
     6  C   -0.154124  -0.042253
     7  H    0.094422   0.004871
     8  H    0.109628   0.050337
     9  H    0.127509  -0.024561
    10  H    0.217008  -0.001648
    11  H    0.121235  -0.000662
    12  H    0.116869  -0.000261
    13  H    0.093021   0.002913
    14  H    0.096337   0.004042
    15  O   -0.222694  -0.067843
    16  H    0.074619   0.010245
    17  O   -0.300474   0.271710
 Sum of Mulliken charges =  -0.00000   1.00000
 Mulliken charges and spin densities with hydrogens summed into heavy atoms:
               1          2
     1  C    0.042536   0.025087
     2  C   -0.005730  -0.002658
     3  C   -0.024209   0.003348
     4  C    0.237845  -0.013824
     5  C    0.005793   0.772873
     6  C    0.049926   0.012956
    15  O   -0.222694  -0.067843
    17  O   -0.083466   0.270061
 APT charges:
               1
     1  C   -0.912283
     2  C   -0.375178
     3  C   -0.573841
     4  C   -0.342106
     5  C   -0.415099
     6  C   -0.777616
     7  H    0.509248
     8  H    0.268472
     9  H    0.508892
    10  H    0.676184
    11  H    0.469497
    12  H    0.548802
    13  H    0.486652
    14  H    0.436004
    15  O   -0.074584
    16  H    0.379788
    17  O   -0.812831
 Sum of APT charges =  -0.00000
 APT charges with hydrogens summed into heavy atoms:
               1
     1  C    0.010373
     2  C    0.173623
     3  C   -0.104344
     4  C    0.037682
     5  C    0.093793
     6  C    0.000104
    15  O   -0.074584
    17  O   -0.136647
 Electronic spatial extent (au):  <R**2>=            980.8164
 Charge=             -0.0000 electrons
 Dipole moment (field-independent basis, Debye):
    X=             -1.5773    Y=             -1.0321    Z=              1.2992  Tot=              2.2894
 Quadrupole moment (field-independent basis, Debye-Ang):
   XX=            -44.0948   YY=            -46.1942   ZZ=            -49.1809
   XY=             -2.3416   XZ=              3.8269   YZ=             -0.4774
 Traceless Quadrupole moment (field-independent basis, Debye-Ang):
   XX=              2.3952   YY=              0.2958   ZZ=             -2.6910
   XY=             -2.3416   XZ=              3.8269   YZ=             -0.4774
 Octapole moment (field-independent basis, Debye-Ang**2):
  XXX=             32.1951  YYY=             -0.9892  ZZZ=             -2.6277  XYY=              3.4174
  XXY=            -10.3639  XXZ=              1.7272  XZZ=              4.6634  YZZ=             -3.0747
  YYZ=             -0.1424  XYZ=              1.9442
 Hexadecapole moment (field-independent basis, Debye-Ang**3):
 XXXX=           -680.6637 YYYY=           -329.3276 ZZZZ=           -129.4023 XXXY=            -38.1021
 XXXZ=              2.0008 YYYX=              0.1981 YYYZ=             -7.0201 ZZZX=              1.0412
 ZZZY=              0.3235 XXYY=           -186.3641 XXZZ=           -156.9287 YYZZ=            -82.3086
 XXYZ=              1.0019 YYXZ=              2.0771 ZZXY=             -0.6861
 N-N= 3.769003692147D+02 E-N=-1.651794084239D+03  KE= 3.821141617740D+02
  Exact polarizability:   0.000   0.000   0.000   0.000   0.000   0.000
 Approx polarizability: 168.389  19.116 108.927  -2.448  -6.812  93.309
                          Isotropic Fermi Contact Couplings
        Atom                 a.u.       MegaHertz       Gauss      10(-4) cm-1
     1  C(13)              0.02210      24.84808       8.86641       8.28843
     2  C(13)             -0.00001      -0.01473      -0.00526      -0.00491
     3  C(13)             -0.00022      -0.24390      -0.08703      -0.08136
     4  C(13)             -0.01030     -11.57847      -4.13148      -3.86216
     5  C(13)              0.02781      31.26221      11.15514      10.42795
     6  C(13)             -0.02202     -24.75286      -8.83244      -8.25666
     7  H(1)               0.00359      16.05013       5.72709       5.35375
     8  H(1)               0.02590     115.78726      41.31577      38.62247
     9  H(1)              -0.01121     -50.12115     -17.88447     -16.71862
    10  H(1)              -0.00405     -18.08210      -6.45214      -6.03154
    11  H(1)              -0.00027      -1.20231      -0.42901      -0.40105
    12  H(1)               0.00011       0.48797       0.17412       0.16277
    13  H(1)               0.00005       0.24125       0.08609       0.08047
    14  H(1)              -0.00017      -0.75519      -0.26947      -0.25191
    15  O(17)              0.46626    -282.64713    -100.85552     -94.28093
    16  H(1)               0.00558      24.94261       8.90014       8.31996
    17  O(17)              0.02916     -17.67931      -6.30842      -5.89718
 --------------------------------------------------------
       Center         ----  Spin Dipole Couplings  ----
                      3XX-RR        3YY-RR        3ZZ-RR
 --------------------------------------------------------
     1   Atom       -0.000124      0.017246     -0.017123
     2   Atom       -0.002520      0.005151     -0.002631
     3   Atom       -0.006639      0.005841      0.000798
     4   Atom       -0.008024      0.012695     -0.004671
     5   Atom        0.036032     -0.420545      0.384514
     6   Atom        0.008704     -0.014363      0.005659
     7   Atom        0.007472     -0.002938     -0.004533
     8   Atom       -0.002363     -0.008865      0.011228
     9   Atom       -0.029843      0.027287      0.002556
    10   Atom        0.021741      0.011641     -0.033382
    11   Atom       -0.001199      0.004032     -0.002833
    12   Atom       -0.000815      0.002392     -0.001577
    13   Atom        0.001945     -0.001611     -0.000334
    14   Atom        0.006107     -0.002785     -0.003322
    15   Atom       -0.081299     -0.139629      0.220928
    16   Atom        0.002518     -0.000395     -0.002123
    17   Atom        0.423463      0.095468     -0.518930
 --------------------------------------------------------
                        XY            XZ            YZ
 --------------------------------------------------------
     1   Atom       -0.024079      0.003546     -0.001457
     2   Atom       -0.003776      0.000776     -0.003147
     3   Atom        0.001779     -0.002346     -0.004607
     4   Atom        0.002221      0.005575      0.011431
     5   Atom       -0.199192     -0.679227      0.245695
     6   Atom       -0.004241     -0.000080      0.002930
     7   Atom        0.006663      0.006477      0.004037
     8   Atom       -0.000011      0.007403      0.000215
     9   Atom       -0.037476     -0.013373     -0.036006
    10   Atom       -0.027349      0.008682     -0.017154
    11   Atom        0.000398     -0.000673      0.000292
    12   Atom       -0.001842      0.000534     -0.001217
    13   Atom       -0.003589      0.003742     -0.001661
    14   Atom       -0.005743     -0.000864      0.000227
    15   Atom       -0.316653      0.134163      0.149715
    16   Atom        0.009063      0.002886      0.005897
    17   Atom        0.824510     -0.267826     -0.215422
 --------------------------------------------------------


 ---------------------------------------------------------------------------------
              Anisotropic Spin Dipole Couplings in Principal Axis System
 ---------------------------------------------------------------------------------

       Atom             a.u.   MegaHertz   Gauss  10(-4) cm-1        Axes

              Baa    -0.0192    -2.583    -0.922    -0.861 -0.5834 -0.3558  0.7301
     1 C(13)  Bbb    -0.0151    -2.028    -0.724    -0.677  0.5729  0.4569  0.6804
              Bcc     0.0344     4.611     1.645     1.538 -0.5757  0.8153 -0.0627
 
              Baa    -0.0044    -0.584    -0.208    -0.195  0.7287  0.4581  0.5091
     2 C(13)  Bbb    -0.0033    -0.449    -0.160    -0.150 -0.5882  0.0378  0.8078
              Bcc     0.0077     1.033     0.368     0.344 -0.3508  0.8881 -0.2970
 
              Baa    -0.0073    -0.984    -0.351    -0.328  0.9660 -0.0412  0.2553
     3 C(13)  Bbb    -0.0017    -0.230    -0.082    -0.077 -0.1927  0.5436  0.8169
              Bcc     0.0090     1.214     0.433     0.405  0.1724  0.8383 -0.5172
 
              Baa    -0.0136    -1.824    -0.651    -0.608 -0.6273 -0.2654  0.7322
     4 C(13)  Bbb    -0.0055    -0.742    -0.265    -0.247  0.7610 -0.4088  0.5038
              Bcc     0.0191     2.565     0.915     0.856  0.1656  0.8732  0.4584
 
              Baa    -0.4980   -66.826   -23.845   -22.291  0.6382  0.7119  0.2930
     5 C(13)  Bbb    -0.4848   -65.050   -23.211   -21.698 -0.4839  0.6670 -0.5666
              Bcc     0.9828   131.876    47.057    43.989 -0.5988  0.2198  0.7701
 
              Baa    -0.0155    -2.081    -0.743    -0.694  0.1705  0.9761 -0.1345
     6 C(13)  Bbb     0.0059     0.798     0.285     0.266  0.1857  0.1022  0.9773
              Bcc     0.0096     1.283     0.458     0.428  0.9677 -0.1916 -0.1638
 
              Baa    -0.0080    -4.251    -1.517    -1.418 -0.1462 -0.4943  0.8569
     7 H(1)   Bbb    -0.0059    -3.144    -1.122    -1.049 -0.5475  0.7619  0.3460
              Bcc     0.0139     7.395     2.639     2.467  0.8239  0.4186  0.3820
 
              Baa    -0.0089    -4.733    -1.689    -1.579  0.0237  0.9995 -0.0194
     8 H(1)   Bbb    -0.0056    -2.995    -1.069    -0.999  0.9152 -0.0295 -0.4019
              Bcc     0.0145     7.728     2.757     2.578  0.4023  0.0082  0.9155
 
              Baa    -0.0619   -33.016   -11.781   -11.013  0.7559  0.4921  0.4318
     9 H(1)   Bbb     0.0022     1.148     0.410     0.383 -0.5907  0.2281  0.7740
              Bcc     0.0597    31.868    11.371    10.630 -0.2824  0.8401 -0.4631
 
              Baa    -0.0392   -20.904    -7.459    -6.973  0.0113  0.3252  0.9456
    10 H(1)   Bbb    -0.0092    -4.898    -1.748    -1.634  0.6800  0.6908 -0.2457
              Bcc     0.0484    25.801     9.207     8.606  0.7331 -0.6458  0.2134
 
              Baa    -0.0031    -1.653    -0.590    -0.551  0.3440 -0.0575  0.9372
    11 H(1)   Bbb    -0.0010    -0.519    -0.185    -0.173  0.9363 -0.0542 -0.3470
              Bcc     0.0041     2.172     0.775     0.724  0.0708  0.9969  0.0352
 
              Baa    -0.0019    -1.025    -0.366    -0.342 -0.0433  0.2542  0.9662
    12 H(1)   Bbb    -0.0017    -0.882    -0.315    -0.294  0.9153  0.3977 -0.0636
              Bcc     0.0036     1.906     0.680     0.636 -0.4004  0.8816 -0.2499
 
              Baa    -0.0040    -2.148    -0.766    -0.716  0.6256  0.7148 -0.3125
    13 H(1)   Bbb    -0.0025    -1.356    -0.484    -0.452 -0.2286  0.5510  0.8026
              Bcc     0.0066     3.503     1.250     1.169  0.7459 -0.4306  0.5081
 
              Baa    -0.0056    -2.996    -1.069    -0.999  0.4433  0.8929  0.0785
    14 H(1)   Bbb    -0.0034    -1.798    -0.642    -0.600  0.0289 -0.1018  0.9944
              Bcc     0.0090     4.795     1.711     1.599  0.8959 -0.4385 -0.0710
 
              Baa    -0.4857    35.141    12.539    11.722  0.6477  0.7111 -0.2736
    15 O(17)  Bbb     0.2075   -15.014    -5.357    -5.008  0.7435 -0.6683  0.0230
              Bcc     0.2782   -20.128    -7.182    -6.714  0.1665  0.2183  0.9616
 
              Baa    -0.0094    -5.006    -1.786    -1.670 -0.4780  0.7651 -0.4314
    16 H(1)   Bbb    -0.0034    -1.789    -0.638    -0.597 -0.5665  0.1068  0.8171
              Bcc     0.0127     6.796     2.425     2.267  0.6712  0.6350  0.3824
 
              Baa    -0.5901    42.700    15.236    14.243  0.3657 -0.1513  0.9183
    17 O(17)  Bbb    -0.5800    41.966    14.974    13.998 -0.5404  0.7688  0.3419
              Bcc     1.1701   -84.665   -30.211   -28.241  0.7577  0.6214 -0.1994
 

 ---------------------------------------------------------------------------------

 Calling FoFJK, ICntrl=    100147 FMM=F ISym2X=0 I1Cent= 0 IOpClX= 1 NMat=1 NMatS=1 NMatT=0.
 ***** Axes restored to original set *****
 -------------------------------------------------------------------
 Center     Atomic                   Forces (Hartrees/Bohr)
 Number     Number              X              Y              Z
 -------------------------------------------------------------------
      1        6          -0.000019334    0.000019951    0.000019373
      2        6           0.000014141   -0.000010264   -0.000004199
      3        6          -0.000014623    0.000042664   -0.000039199
      4        6          -0.000002229   -0.000085633   -0.000009892
      5        6          -0.028883124   -0.010838957    0.014206930
      6        6           0.000028237   -0.000028989   -0.000004476
      7        1          -0.000007250    0.000005622    0.000004557
      8        1          -0.000007030    0.000005087   -0.000000019
      9        1          -0.000016949    0.000002019   -0.000001943
     10        1          -0.000032366   -0.000016193    0.000005617
     11        1           0.000011039   -0.000011385    0.000007506
     12        1          -0.000003222    0.000002112    0.000008274
     13        1           0.000000469    0.000000401   -0.000008805
     14        1           0.000009807   -0.000002092   -0.000008579
     15        8           0.028953978    0.010907792   -0.014170812
     16        1           0.000014977    0.000012699   -0.000009235
     17        8          -0.000046523   -0.000004831    0.000004901
 -------------------------------------------------------------------
 Cartesian Forces:  Max     0.028953978 RMS     0.006732564
 FormGI is forming the generalized inverse of G from B-inverse, IUseBI=4.

 GradGradGradGradGradGradGradGradGradGradGradGradGradGradGradGradGradGrad
 Berny optimization.
 Internal  Forces:  Max     0.027036333 RMS     0.005785820
 Search for a saddle point.
 Step number   1 out of a maximum of   97
 All quantities printed in internal units (Hartrees-Bohrs-Radians)
 Swapping is turned off.
 Second derivative matrix not updated -- analytic derivatives used.
 ITU=  0
     Eigenvalues ---   -0.06703   0.00192   0.00367   0.00417   0.00697
     Eigenvalues ---    0.00975   0.01187   0.01724   0.01791   0.03342
     Eigenvalues ---    0.03698   0.04045   0.04286   0.04821   0.07073
     Eigenvalues ---    0.07409   0.07841   0.08495   0.09895   0.09998
     Eigenvalues ---    0.11112   0.11211   0.12194   0.13807   0.15880
     Eigenvalues ---    0.17140   0.18027   0.19894   0.23140   0.24777
     Eigenvalues ---    0.26637   0.28270   0.28799   0.30205   0.31904
     Eigenvalues ---    0.31980   0.32954   0.33327   0.33659   0.35043
     Eigenvalues ---    0.35728   0.36327   0.39485   0.51365   0.58250
 Eigenvectors required to have negative eigenvalues:
                          R17       A16       D21       D24       R10
   1                   -0.72710   0.39748   0.27509   0.26447   0.13644
                          D23       A14       D20       D32       A18
   1                   -0.12708  -0.12385  -0.11646  -0.11490  -0.10436
 RFO step:  Lambda0=1.247809134D-02 Lambda=-6.76361493D-03.
 Linear search not attempted -- option 19 set.
 Maximum step size (   0.300) exceeded in Quadratic search.
    -- Step size scaled by   0.763
 Iteration  1 RMS(Cart)=  0.03160657 RMS(Int)=  0.00897108
 Iteration  2 RMS(Cart)=  0.01064335 RMS(Int)=  0.00015535
 Iteration  3 RMS(Cart)=  0.00004287 RMS(Int)=  0.00015386
 Iteration  4 RMS(Cart)=  0.00000000 RMS(Int)=  0.00015386
 Variable       Old X    -DE/DX   Delta X   Delta X   Delta X     New X
                                 (Linear)    (Quad)   (Total)
    R1        2.84215  -0.00082   0.00000   0.00124   0.00115   2.84331
    R2        2.91093  -0.00250   0.00000   0.00123   0.00127   2.91220
    R3        2.06386   0.00001   0.00000  -0.00063  -0.00063   2.06323
    R4        2.07064  -0.00001   0.00000  -0.00033  -0.00033   2.07031
    R5        2.51204   0.00074   0.00000  -0.00026  -0.00033   2.51171
    R6        2.04911   0.00000   0.00000  -0.00044  -0.00044   2.04867
    R7        2.83061   0.00159   0.00000  -0.00319  -0.00319   2.82742
    R8        2.04431  -0.00000   0.00000  -0.00023  -0.00023   2.04407
    R9        2.76381   0.02449   0.00000   0.01639   0.01647   2.78028
   R10        2.65963   0.02248   0.00000  -0.01043  -0.01043   2.64920
   R11        2.06818  -0.00000   0.00000  -0.00265  -0.00265   2.06553
   R12        2.80871   0.00029   0.00000   0.00011   0.00015   2.80886
   R13        2.03845  -0.00001   0.00000  -0.00050  -0.00050   2.03794
   R14        2.06135   0.00000   0.00000  -0.00004  -0.00004   2.06131
   R15        2.07567  -0.00000   0.00000  -0.00513  -0.00513   2.07054
   R16        1.82510  -0.00001   0.00000   0.00093   0.00093   1.82603
   R17        3.00639  -0.00008   0.00000   0.28240   0.28240   3.28879
    A1        1.96163   0.00107   0.00000   0.00458   0.00460   1.96622
    A2        1.91256   0.00023   0.00000   0.00106   0.00107   1.91362
    A3        1.90826  -0.00089   0.00000   0.00165   0.00164   1.90990
    A4        1.91267   0.00022   0.00000  -0.00526  -0.00526   1.90740
    A5        1.92025  -0.00082   0.00000  -0.00113  -0.00116   1.91909
    A6        1.84484   0.00014   0.00000  -0.00125  -0.00126   1.84359
    A7        2.15805   0.00238   0.00000  -0.00026  -0.00032   2.15772
    A8        2.04042  -0.00119   0.00000  -0.00192  -0.00189   2.03853
    A9        2.08472  -0.00119   0.00000   0.00218   0.00222   2.08694
   A10        2.13003   0.00453   0.00000  -0.00025  -0.00024   2.12979
   A11        2.11455  -0.00232   0.00000   0.00269   0.00267   2.11723
   A12        2.03851  -0.00223   0.00000  -0.00234  -0.00236   2.03616
   A13        2.01557  -0.00913   0.00000   0.00197   0.00198   2.01755
   A14        2.01871  -0.01153   0.00000   0.00933   0.00869   2.02740
   A15        1.95070   0.00384   0.00000   0.00791   0.00754   1.95824
   A16        1.49242   0.02704   0.00000  -0.06640  -0.06637   1.42605
   A17        2.00662  -0.00204   0.00000   0.01244   0.01237   2.01899
   A18        1.93877  -0.00502   0.00000   0.02199   0.02183   1.96060
   A19        2.08787   0.00070   0.00000   0.00236   0.00205   2.08993
   A20        2.07446  -0.00028   0.00000  -0.00170  -0.00235   2.07211
   A21        2.11773  -0.00056   0.00000   0.00381   0.00316   2.12090
   A22        1.95383   0.00133   0.00000   0.00010   0.00014   1.95396
   A23        1.93504  -0.00055   0.00000   0.00249   0.00240   1.93744
   A24        1.88632  -0.00022   0.00000   0.00783   0.00788   1.89421
   A25        1.93339   0.00015   0.00000  -0.00516  -0.00517   1.92823
   A26        1.89597  -0.00097   0.00000  -0.00723  -0.00725   1.88873
   A27        1.85556   0.00018   0.00000   0.00221   0.00216   1.85773
   A28        1.91587  -0.00003   0.00000  -0.01647  -0.01647   1.89940
   A29        1.69510  -0.00006   0.00000  -0.06151  -0.06151   1.63359
    D1       -0.36232   0.00012   0.00000  -0.00803  -0.00800  -0.37032
    D2        2.78034   0.00224   0.00000  -0.01003  -0.01004   2.77030
    D3       -2.49339  -0.00105   0.00000  -0.00518  -0.00515  -2.49854
    D4        0.64927   0.00108   0.00000  -0.00717  -0.00720   0.64207
    D5        1.77536  -0.00084   0.00000  -0.00520  -0.00516   1.77020
    D6       -1.36516   0.00128   0.00000  -0.00719  -0.00721  -1.37237
    D7        0.71643  -0.00162   0.00000  -0.00359  -0.00356   0.71288
    D8        2.88510  -0.00086   0.00000  -0.00839  -0.00841   2.87669
    D9       -1.37088  -0.00108   0.00000   0.00022   0.00021  -1.37067
   D10        2.84743  -0.00045   0.00000  -0.00286  -0.00283   2.84461
   D11       -1.26708   0.00031   0.00000  -0.00766  -0.00768  -1.27476
   D12        0.76012   0.00009   0.00000   0.00095   0.00094   0.76106
   D13       -1.41447  -0.00062   0.00000  -0.00805  -0.00801  -1.42248
   D14        0.75420   0.00013   0.00000  -0.01285  -0.01287   0.74133
   D15        2.78141  -0.00008   0.00000  -0.00425  -0.00425   2.77716
   D16       -0.03978   0.00399   0.00000   0.00304   0.00299  -0.03679
   D17        3.11653   0.00483   0.00000  -0.00610  -0.00622   3.11031
   D18        3.10072   0.00182   0.00000   0.00507   0.00509   3.10581
   D19       -0.02616   0.00266   0.00000  -0.00406  -0.00413  -0.03028
   D20        0.06085  -0.00671   0.00000   0.01279   0.01273   0.07357
   D21        1.76482   0.01542   0.00000  -0.06313  -0.06328   1.70153
   D22       -2.27680   0.00157   0.00000  -0.01616  -0.01626  -2.29307
   D23       -3.09486  -0.00752   0.00000   0.02159   0.02157  -3.07328
   D24       -1.39089   0.01460   0.00000  -0.05433  -0.05444  -1.44532
   D25        0.85068   0.00076   0.00000  -0.00736  -0.00742   0.84326
   D26        0.35703   0.00452   0.00000  -0.02427  -0.02424   0.33279
   D27       -2.86823   0.00256   0.00000   0.03567   0.03564  -2.83259
   D28       -1.67361   0.00544   0.00000  -0.00226  -0.00250  -1.67611
   D29        1.38432   0.00347   0.00000   0.05768   0.05738   1.44170
   D30        2.66894  -0.00149   0.00000   0.00333   0.00334   2.67228
   D31       -0.55632  -0.00346   0.00000   0.06328   0.06322  -0.49310
   D32        1.17853  -0.00362   0.00000   0.04910   0.04907   1.22760
   D33       -3.07706  -0.00212   0.00000   0.01970   0.02004  -3.05702
   D34       -1.06890   0.00573   0.00000   0.00932   0.00902  -1.05988
   D35       -0.74712  -0.00103   0.00000   0.02202   0.02196  -0.72516
   D36       -2.91670  -0.00140   0.00000   0.02256   0.02259  -2.89412
   D37        1.33452  -0.00112   0.00000   0.02708   0.02710   1.36161
   D38        2.48027   0.00097   0.00000  -0.03918  -0.03937   2.44091
   D39        0.31069   0.00061   0.00000  -0.03864  -0.03874   0.27194
   D40       -1.72128   0.00088   0.00000  -0.03412  -0.03423  -1.75551
   D41        2.12420  -0.00000   0.00000   0.07013   0.07013   2.19433
         Item               Value     Threshold  Converged?
 Maximum Force            0.027036     0.000450     NO 
 RMS     Force            0.005786     0.000300     NO 
 Maximum Displacement     0.177032     0.001800     NO 
 RMS     Displacement     0.034681     0.001200     NO 
 Predicted change in Energy= 3.164631D-03
 GradGradGradGradGradGradGradGradGradGradGradGradGradGradGradGradGradGrad

                          Input orientation:                          
 ---------------------------------------------------------------------
 Center     Atomic      Atomic             Coordinates (Angstroms)
 Number     Number       Type             X           Y           Z
 ---------------------------------------------------------------------
      1          6           0       -2.208248    0.127378   -0.231045
      2          6           0       -1.342339    1.348758   -0.081732
      3          6           0       -0.079991    1.309942    0.332488
      4          6           0        0.583887    0.031109    0.735588
      5          6           0       -0.219461   -1.187646    0.551525
      6          6           0       -1.386974   -1.169387   -0.368211
      7          1           0       -2.013340   -2.047804   -0.207300
      8          1           0       -1.014261   -1.238408   -1.396238
      9          1           0        0.071206   -2.084078    1.075871
     10          1           0        3.406444   -0.373079   -0.328715
     11          1           0        0.517676    2.209055    0.398933
     12          1           0       -1.794113    2.301827   -0.332433
     13          1           0       -2.853628    0.239585   -1.104515
     14          1           0       -2.884289    0.052731    0.627822
     15          8           0        1.376762   -0.588182   -0.240702
     16          1           0        1.099396    0.118126    1.695482
     17          8           0        2.808767    0.368620   -0.491155
 ---------------------------------------------------------------------
                    Distance matrix (angstroms):
                    1          2          3          4          5
     1  C    0.000000
     2  C    1.504614   0.000000
     3  C    2.499101   1.329138   0.000000
     4  C    2.956292   2.472763   1.496207   0.000000
     5  C    2.509378   2.845209   2.511051   1.471262   0.000000
     6  C    1.541072   2.534781   2.888988   2.558096   1.486383
     7  H    2.184026   3.464483   3.911990   3.457818   2.129246
     8  H    2.156073   2.920443   3.217987   2.951344   2.104297
     9  H    3.434309   3.888768   3.477765   2.202873   1.078432
    10  H    5.637798   5.057338   3.927465   3.043508   3.819101
    11  H    3.487250   2.104948   1.081677   2.204806   3.479114
    12  H    2.215856   1.084109   2.089060   3.457125   3.929038
    13  H    1.091813   2.135496   3.302075   3.904606   3.423199
    14  H    1.095562   2.135594   3.087375   3.469916   2.940351
    15  O    3.655738   3.342233   2.460397   1.401897   1.880136
    16  H    3.827806   3.261137   2.160817   1.093032   2.180152
    17  O    5.029542   4.284855   3.147920   2.562987   3.560802
                    6          7          8          9         10
     6  C    0.000000
     7  H    1.090799   0.000000
     8  H    1.095682   1.751244   0.000000
     9  H    2.246847   2.448096   2.829261   0.000000
    10  H    4.859272   5.673932   4.629367   4.003023   0.000000
    11  H    3.953488   4.989429   4.177855   4.369047   3.942317
    12  H    3.495192   4.356949   3.777978   4.969799   5.848156
    13  H    2.162965   2.596772   2.377569   4.325291   6.337643
    14  H    2.174305   2.422442   3.043166   3.674459   6.377272
    15  O    2.827065   3.691126   2.734054   2.382341   2.042945
    16  H    3.478298   4.242754   3.983273   2.508146   3.108235
    17  O    4.470439   5.401148   4.244674   3.995690   0.966293
                   11         12         13         14         15
    11  H    0.000000
    12  H    2.426494   0.000000
    13  H    4.183880   2.443670   0.000000
    14  H    4.034289   2.677500   1.742655   0.000000
    15  O    2.995279   4.291272   4.396313   4.395641   0.000000
    16  H    2.528126   4.153719   4.845733   4.124793   2.079570
    17  O    3.070595   4.994897   5.696980   5.810575   1.740355
                   16         17
    16  H    0.000000
    17  O    2.786768   0.000000
 Stoichiometry    C6H9O2(2)
 Framework group  C1[X(C6H9O2)]
 Deg. of freedom    45
 Full point group                 C1      NOp   1
 Largest Abelian subgroup         C1      NOp   1
 Largest concise Abelian subgroup C1      NOp   1
                         Standard orientation:                         
 ---------------------------------------------------------------------
 Center     Atomic      Atomic             Coordinates (Angstroms)
 Number     Number       Type             X           Y           Z
 ---------------------------------------------------------------------
      1          6           0       -2.208904    0.128475   -0.241460
      2          6           0       -1.340053    1.348678   -0.099814
      3          6           0       -0.078942    1.309829    0.318153
      4          6           0        0.580329    0.032548    0.733546
      5          6           0       -0.225860   -1.185487    0.557301
      6          6           0       -1.390825   -1.171604   -0.365736
      7          1           0       -2.020033   -2.046962   -0.199331
      8          1           0       -1.015522   -1.250083   -1.392142
      9          1           0        0.060925   -2.078369    1.089777
     10          1           0        3.404637   -0.388053   -0.319698
     11          1           0        0.521008    2.207827    0.378847
     12          1           0       -1.788530    2.300882   -0.359561
     13          1           0       -2.851608    0.235259   -1.117579
     14          1           0       -2.887469    0.062726    0.616143
     15          8           0        1.374141   -0.596899   -0.235461
     16          1           0        1.093476    0.126044    1.694096
     17          8           0        2.809440    0.353911   -0.489850
 ---------------------------------------------------------------------
 Rotational constants (GHZ):           3.8623171           1.5360206           1.2425137
 Standard basis: CC-pVTZ+d (5D, 7F)
 There are   415 symmetry adapted cartesian basis functions of A   symmetry.
 There are   366 symmetry adapted basis functions of A   symmetry.
   366 basis functions,   569 primitive gaussians,   415 cartesian basis functions
    31 alpha electrons       30 beta electrons
       nuclear repulsion energy       374.2849205913 Hartrees.
 NAtoms=   17 NActive=   17 NUniq=   17 SFac= 1.00D+00 NAtFMM=   60 NAOKFM=F Big=F
 Integral buffers will be    131072 words long.
 Raffenetti 2 integral format.
 Two-electron integral symmetry is turned on.
 One-electron integrals computed using PRISM.
 NBasis=   366 RedAO= T EigKep=  1.31D-04  NBF=   366
 NBsUse=   366 1.00D-06 EigRej= -1.00D+00 NBFU=   366
 Initial guess from the checkpoint file:  "QOOH-1-cyclohexenyl-OH-Elim-TS--b3lyp-c.chk"
 B after Tr=    -0.000000   -0.000000   -0.000000
         Rot=    0.999990    0.003593    0.002352    0.001435 Ang=   0.52 deg.
 Initial guess <Sx>= 0.0000 <Sy>= 0.0000 <Sz>= 0.5000 <S**2>= 0.7694 S= 0.5097
 ExpMin= 1.03D-01 ExpMax= 1.53D+04 ExpMxC= 5.22D+02 IAcc=3 IRadAn=         5 AccDes= 0.00D+00
 Harris functional with IExCor=  402 and IRadAn=       5 diagonalized for initial guess.
 HarFok:  IExCor=  402 AccDes= 0.00D+00 IRadAn=         5 IDoV= 1 UseB2=F ITyADJ=14
 ICtDFT=  3500011 ScaDFX=  1.000000  1.000000  1.000000  1.000000
 FoFCou: FMM=F IPFlag=           0 FMFlag=      100000 FMFlg1=           0
         NFxFlg=           0 DoJE=T BraDBF=F KetDBF=T FulRan=T
         wScrn=  0.000000 ICntrl=       500 IOpCl=  0 I1Cent=   200000004 NGrid=           0
         NMat0=    1 NMatS0=      1 NMatT0=    0 NMatD0=    1 NMtDS0=    0 NMtDT0=    0
 Petite list used in FoFCou.
 Requested convergence on RMS density matrix=1.00D-08 within 128 cycles.
 Requested convergence on MAX density matrix=1.00D-06.
 Requested convergence on             energy=1.00D-06.
 No special actions if energy rises.
 Integral accuracy reduced to 1.0D-05 until final iterations.
 Initial convergence to 1.0D-05 achieved.  Increase integral accuracy.
 SCF Done:  E(UB3LYP) =  -384.453538939     A.U. after   19 cycles
            NFock= 19  Conv=0.53D-08     -V/T= 2.0063
 <Sx>= 0.0000 <Sy>= 0.0000 <Sz>= 0.5000 <S**2>= 0.7993 S= 0.5243
 <L.S>= 0.000000000000E+00
 Annihilation of the first spin contaminant:
 S**2 before annihilation     0.7993,   after     0.7503
 Calling FoFJK, ICntrl=      2127 FMM=F ISym2X=0 I1Cent= 0 IOpClX= 1 NMat=1 NMatS=1 NMatT=0.
 ***** Axes restored to original set *****
 -------------------------------------------------------------------
 Center     Atomic                   Forces (Hartrees/Bohr)
 Number     Number              X              Y              Z
 -------------------------------------------------------------------
      1        6          -0.000095786   -0.000046721    0.000119538
      2        6           0.000013779    0.000050208   -0.000012084
      3        6           0.000273291    0.000010373    0.000142527
      4        6          -0.002342589    0.000925612    0.001938490
      5        6          -0.001554355   -0.000905963    0.001452632
      6        6           0.000020825    0.000139050   -0.000521119
      7        1           0.000073374   -0.000066098    0.000079140
      8        1          -0.000117773   -0.000032245    0.000048093
      9        1          -0.000079367   -0.000043298    0.000198280
     10        1           0.000466183   -0.000037722   -0.000072911
     11        1          -0.000088725    0.000122443   -0.000074818
[...]
   zy        -0.423143D+00     -0.627033D-01     -0.697669D-01
   zz         0.111961D+03      0.165908D+02      0.184598D+02

 ----------------------------------------------------------------------
 1\1\GINC-CNODE0930\Freq\UB3LYP\CC-pVTZ+d\C6H9O2(2)\LMOSKALEVA\16-May-2
 022\0\\#N Geom=AllCheck Guess=TCheck SCRF=Check GenChk UB3LYP/CC-pVTZ+
 d Freq\\QOOH-1-cyclohexenyl-OH-Elim-TS-b3lyp-c\\0,2\C,-2.2195729428,0.
 130402177,-0.2263388623\C,-1.3424656556,1.3448094542,-0.0855314915\C,-
 0.0770917408,1.2978274578,0.3187799795\C,0.5856811465,0.0157468206,0.7
 150602731\C,-0.238272836,-1.1948089656,0.5545201269\C,-1.4096539561,-1
 .1741127992,-0.358365008\H,-2.0409644398,-2.0474134485,-0.1886650141\H
 ,-1.0433486185,-1.2533920933,-1.3884283415\H,0.0651280355,-2.096604954
 6,1.0631497997\H,3.4470697299,-0.3467987571,-0.3285766187\H,0.52637044
 15,2.1936728268,0.3775746001\H,-1.7887625209,2.3006552924,-0.335622875
 9\H,-2.8655404006,0.2439451508,-1.0992684473\H,-2.894622615,0.06506407
 18,0.6339761981\O,1.403795047,-0.5745128369,-0.2672399931\H,1.10338866
 77,0.1015827304,1.674252848\O,2.8563566579,0.4124848737,-0.4236141731\
 \Version=ES64L-G16RevB.01\State=2-A\HF=-384.4539383\S2=0.808952\S2-1=0
 .\S2A=0.750351\RMSD=7.617e-10\RMSF=4.505e-06\ZeroPoint=0.1366423\Therm
 al=0.1448903\Dipole=-1.0322315,-0.5960197,0.5184248\DipoleDeriv=0.0482
 342,-0.0434722,-0.0462341,-0.1484693,0.0120019,0.0064289,0.0090177,0.0
 104624,0.2255933,0.1226949,0.0308867,0.1075449,0.1017597,0.1059823,-0.
 017439,0.0705072,-0.0471837,-0.1671481,-0.0384007,0.0400603,0.022064,0
 .0693747,-0.0252473,-0.0291579,-0.0474338,-0.0065428,-0.2364347,0.2849
 892,-0.199667,-0.0154973,-0.3871291,0.346439,0.0973038,-0.0223925,0.11
 62019,0.5125778,-0.1276519,-0.1158549,0.2220277,-0.1014049,0.0393201,-
 0.0708859,0.5368619,0.0945971,-0.0185326,0.0532873,0.0466594,-0.089495
 8,0.078324,0.0689799,0.0092833,-0.2465246,-0.0493786,-0.0014753,-0.054
 3207,-0.0974936,-0.0027727,-0.0600093,-0.0926823,0.0098726,0.0211901,0
 .0414769,0.0791833,-0.0348359,-0.0056882,0.0556456,0.0247425,0.0710477
 ,0.0149222,-0.0244233,-0.0454052,-0.0319724,0.0300548,0.0080567,-0.051
 0411,0.0189281,-0.0248047,0.0583557,-0.0659555,0.0465092,0.0696319,0.3
 178431,0.0847293,-0.0312477,-0.0220017,0.1063714,0.0487183,-0.0119076,
 0.0278771,0.2947198,0.0147833,-0.0628953,-0.0306744,-0.0220378,-0.0362
 504,-0.0037975,-0.0463834,0.0233205,0.122539,0.0198481,0.0426496,-0.04
 11303,0.0668829,-0.1079195,0.0292042,-0.0480264,0.0411472,0.108501,-0.
 045976,0.0150024,-0.0758386,0.0254646,0.0289525,0.0050734,-0.1414895,0
 .0052503,-0.0555531,-0.0546745,0.0003341,0.0643809,-0.0496049,0.009845
 6,-0.0134657,0.1405064,0.0036949,-0.0523545,0.5991874,0.6134267,-0.177
 2184,0.7576289,-0.1462872,-0.1682591,-0.1503598,-0.2137533,-0.3362557,
 -0.0344992,0.0057687,-0.1140022,0.0675563,0.0029905,-0.0274801,-0.0552
 733,-0.0317468,-0.1126868,-1.1005635,-0.3625027,0.2034894,-0.4200049,-
 0.3587393,0.051323,0.0820863,-0.0165272,-0.400333\Polar=122.189313,11.
 077381,77.0939813,-0.1896516,-3.0183089,59.0840292\Quadrupole=0.466805
 3,1.0134421,-1.4802474,-1.8421274,2.5453529,-0.4653885\PG=C01 [X(C6H9O
 2)]\NImag=1\\0.52463427,0.00441758,0.43710603,0.01870066,-0.01353302,0
 .55478068,-0.12306677,-0.05269463,-0.01351575,0.76197287,-0.04906653,-
 0.16550292,-0.01022716,-0.04934789,0.58266198,-0.01109625,-0.00448862,
 -0.07648225,0.19629717,-0.06406645,0.21830796,-0.02390340,-0.01000239,
 -0.00688017,-0.49190531,0.01641718,-0.13904498,0.78054000,-0.02830357,
 0.00537976,-0.00723621,0.00964642,-0.11819339,0.00989053,0.06708404,0.
 58514161,-0.00409359,-0.00348580,0.00717366,-0.13703407,0.01314043,-0.
 09787923,0.18966373,-0.03862057,0.21613141,0.00259383,-0.00106779,0.00
 298448,-0.01680797,0.02858431,-0.01069764,-0.10199323,0.03194607,-0.02
 672216,0.42216507,-0.00245024,0.00019576,-0.00126642,0.01428944,0.0062
 5356,0.00514984,0.02986078,-0.17974926,0.03690245,0.01499184,0.5470675
 0,0.00395047,0.00104205,-0.00633692,-0.00716972,0.01031830,0.00274543,
 -0.03024824,0.03869280,-0.09271067,0.13910780,0.03280299,0.50392635,-0
 .01863764,0.01220426,-0.01508294,0.00000312,-0.00113142,-0.00027982,0.
 01196499,0.00685659,-0.00061312,-0.09231433,-0.10107678,-0.06599406,0.
 34221557,0.02447555,-0.00086191,0.02032572,-0.00210430,0.00116766,-0.0
 0027458,-0.01721020,-0.03060482,0.00193626,-0.06743807,-0.19908710,-0.
 01975797,0.02014821,0.58152185,-0.00385170,0.00925018,-0.00151405,-0.0
 0036492,0.00047471,0.00011627,0.00983171,0.00640048,0.00192942,-0.0372
 9763,-0.00350812,-0.05245751,0.21827689,-0.12087349,0.29540703,-0.1052
 2731,0.03207979,0.00254983,0.01571022,-0.01330779,-0.00078043,-0.00112
 830,0.00096803,-0.00127825,-0.01325425,-0.00873799,-0.00828285,-0.1581
 7821,0.00045110,-0.08309620,0.49439042,0.03666823,-0.13607140,-0.00859
 447,0.01118838,-0.03315234,-0.00155871,0.00306645,0.00240820,0.0009238
 4,-0.02018244,0.00269389,-0.02080812,-0.00533232,-0.08548589,0.0093962
 5,0.07629174,0.50937612,0.00683717,-0.01409989,-0.07031372,0.00324088,
 -0.00002495,-0.00012653,-0.00004476,0.00123792,-0.00026175,-0.00552774
 ,0.00436853,0.00161617,-0.06997533,0.00665488,-0.11970779,-0.01556314,
 -0.01267624,0.49310854,0.01189010,0.01511732,-0.00229481,-0.00263015,0
 .00267810,-0.00031411,0.00034553,0.00034705,-0.00000207,-0.00271673,0.
 00186573,-0.00240037,-0.01541245,-0.02193075,0.00525854,-0.13692329,-0
 .11780899,0.02323884,0.14891971,-0.01563456,-0.02014345,0.00362239,0.0
 0465828,-0.00317170,0.00037734,0.00030473,0.00021010,0.00023204,0.0005
 9652,0.00090933,0.00042847,-0.00030952,0.00069457,-0.00195749,-0.11796
 435,-0.21166622,0.03501921,0.12903449,0.23026735,-0.00210625,-0.004090
 98,-0.00059350,0.00053681,-0.00081972,0.00081178,-0.00006502,0.0004008
 7,-0.00001643,-0.00298116,0.00030962,-0.00265576,-0.01554910,-0.019356
 15,0.00124597,0.02567498,0.03663514,-0.05139705,-0.02474335,-0.0375412
 6,0.05643288,-0.00856356,0.00458771,0.01686666,-0.00026693,-0.00122600
 ,-0.00057979,0.00034858,-0.00000958,0.00018884,0.00083032,0.00175564,-
 0.00002530,0.00481793,-0.00239039,-0.02453728,-0.06589683,0.00187920,0
 .07289848,-0.00616786,0.00046593,0.01818248,0.07861242,0.01270598,-0.0
 0641555,-0.02669409,0.00136382,0.00141929,-0.00015701,-0.00056329,0.00
 016595,0.00003443,-0.00000625,0.00053204,0.00015051,-0.00019773,-0.000
 79059,-0.00017730,0.00190889,-0.04208896,-0.01285207,-0.00811021,0.001
 09904,0.02479926,-0.00867193,0.04864523,0.00188764,-0.00044428,-0.0023
 3327,-0.00007905,0.00007444,0.00028024,-0.00030179,-0.00012378,-0.0001
 4228,0.00014035,0.00116231,-0.00149150,-0.00561337,-0.00121438,-0.0219
 4130,0.08358951,-0.01575176,-0.26147860,0.00238434,0.00069345,-0.00471
 517,-0.08373109,0.01527351,0.28957502,-0.00183547,0.00058635,-0.002939
 09,-0.00031649,-0.00057716,-0.00007508,-0.00144404,-0.00068728,0.00031
 247,0.00158784,-0.01229376,0.00753788,-0.06462482,0.07059341,-0.053997
 68,-0.00022643,0.01485239,-0.01010775,0.00094327,0.00045561,0.00099258
 ,-0.00173830,0.00107993,-0.00111172,0.06721111,-0.00037326,0.00021236,
 -0.00028922,-0.00016683,0.00011186,-0.00017937,-0.00451913,-0.00154233
 ,-0.00041780,0.01002629,-0.01648317,0.01144151,0.06153883,-0.25851550,
 0.12438966,-0.00255228,0.00523100,-0.00298933,0.00048119,0.00090817,0.
 00024994,0.00017617,-0.00027971,-0.00066804,-0.06684601,0.26768922,-0.
 00109029,-0.00254034,-0.00282790,-0.00003531,-0.00042808,-0.00002354,-
 0.00213978,-0.00150804,0.00037883,0.00597749,-0.00711826,0.00656642,-0
 .05900978,0.11821206,-0.10213434,-0.00440684,0.01693657,0.00034979,0.0
 0032159,-0.00092429,0.00076842,0.00007610,-0.00083272,-0.00115359,0.05
 855008,-0.12922670,0.09864218,-0.00002421,0.00018380,-0.00002804,0.000
 02000,-0.00018218,0.00003897,0.00014497,-0.00027455,-0.00032985,-0.002
 36660,-0.00144155,-0.00019443,-0.00229904,-0.00042534,0.00062955,-0.00
 011329,-0.00006252,0.00036320,0.00007376,-0.00001149,-0.00003088,0.000
 09772,-0.00001280,0.00005087,-0.00001337,-0.00024822,-0.00004995,0.207
 54799,0.00002241,-0.00022061,0.00005973,-0.00006530,0.00012121,-0.0001
 4178,0.00010621,-0.00039897,0.00001530,-0.00183750,-0.00270534,-0.0003
 1322,-0.00134485,0.00055301,0.00089352,-0.00003903,0.00007254,-0.00034
 085,-0.00011087,0.00003310,0.00000622,-0.00018871,-0.00000851,-0.00002
 433,0.00003276,-0.00010544,-0.00012664,-0.23053827,0.33158035,0.000006
 42,0.00001907,-0.00000987,0.00005304,0.00010298,-0.00002813,0.00001333
 ,-0.00002248,-0.00025189,0.00183341,-0.00002799,-0.00006012,0.00026803
 ,-0.00027675,-0.00029723,-0.00005130,-0.00001934,0.00008873,-0.0000210
 9,0.00000249,-0.00000370,-0.00002103,0.00002746,-0.00002022,0.00003758
 ,0.00010012,0.00009650,0.02788928,-0.04180098,0.00631715,-0.00172272,0
 .00227475,-0.00497485,-0.01430413,-0.02747290,-0.00243384,-0.13929151,
 -0.12815824,-0.01431154,0.01033194,0.01248498,0.00105587,-0.00113876,0
 .00264622,-0.00112813,-0.00018497,0.00019422,0.00003774,0.00009748,-0.
 00012979,0.00001562,0.00001131,-0.00002916,-0.00000993,0.00027170,0.00
 077855,0.00033593,0.00019860,-0.00005716,-0.00012974,0.14594555,0.0007
 5951,0.00129869,0.00192521,0.00299924,0.00491996,0.00102068,-0.1306701
 1,-0.25020321,-0.01050835,-0.01654807,-0.01778819,-0.00173004,0.003053
 11,-0.00230257,0.00220280,0.00035493,0.00024464,0.00026687,-0.00007545
 ,0.00007810,-0.00001724,-0.00000589,-0.00001530,0.00001528,-0.00038056
 ,-0.00099372,-0.00077032,-0.00018052,0.00031887,0.00012659,0.13999780,
 0.26187382,-0.00455105,0.00166860,0.01103014,-0.00726662,-0.00868749,0
 .00357832,-0.01288844,-0.00933426,-0.03991537,0.00466903,0.00771437,0.
 00297849,-0.00114101,0.00151626,-0.00055664,0.00068741,0.00032326,0.00
 008733,0.00006801,0.00007250,-0.00004299,0.00008630,-0.00006384,0.0000
 3304,0.00023210,0.00035674,0.00017860,0.00006877,0.00009467,0.00000953
 ,0.01901305,0.00880273,0.02960344,0.01016524,-0.01688873,0.00283268,-0
 .09980950,0.09484696,-0.02959455,-0.01091057,0.03036000,-0.00880721,-0
 .00270705,-0.00320667,-0.00572623,-0.00038650,-0.00015681,-0.00032166,
 -0.00239829,-0.00243500,0.00016969,0.00062127,-0.00091952,-0.00018719,
 0.00006765,-0.00006558,-0.00004558,0.00012908,0.00012891,0.00013236,0.
 00003672,-0.00001265,-0.00003367,0.00026969,0.00015224,0.00258850,0.10
 488930,0.01080157,-0.01767263,0.00433087,0.09928816,-0.26849407,0.0581
 4095,-0.00106105,0.00168159,-0.00001015,-0.00063371,0.00141691,0.00124
 460,-0.00042213,0.00053828,-0.00051454,-0.00421812,-0.00204345,0.00064
 864,0.00092995,-0.00116494,-0.00017586,0.00002089,0.00006329,-0.000063
 05,0.00005698,0.00003953,0.00007794,-0.00003939,0.00003516,0.00000521,
 0.00046886,0.00115071,-0.00091244,-0.10465914,0.28371863,-0.00090401,-
 0.00293486,0.00263946,-0.02908429,0.05792248,-0.05536572,-0.00671473,0
 .01002483,0.00181971,-0.00275725,-0.00107006,0.01211596,0.00029061,-0.
 00014226,0.00000333,-0.00048395,-0.00161191,0.00086973,0.00020437,-0.0
 0051932,0.00008561,-0.00019682,0.00038025,0.00002387,-0.00010622,0.000
 04629,0.00005571,0.00007143,-0.00001445,0.00003624,0.00252289,-0.00132
 475,-0.00687428,0.03808104,-0.06251658,0.04444304,-0.13092083,0.016281
 07,-0.11956242,-0.01525074,0.00015997,-0.01629856,0.00054189,-0.003060
 21,0.00022348,0.00080090,0.00012854,-0.00042230,-0.00075780,0.00338534
 ,0.00024296,-0.01165558,0.00262730,-0.01253202,0.00018954,0.00018116,0
 .00003768,0.00037920,-0.00067659,-0.00005715,-0.00067758,-0.00013565,-
 0.00049855,0.00004661,-0.00003547,-0.00001597,-0.00101752,0.00019440,0
 .00069774,0.00098777,0.00012917,0.00079266,0.14544928,0.01594996,-0.04
 990528,0.02160724,-0.01798484,0.00251401,-0.02423580,-0.00169844,-0.00
 392002,0.00015378,0.00021929,-0.00136701,-0.00061340,0.00188032,-0.004
 73119,-0.00091874,0.01861661,-0.00395771,0.02062970,-0.00054815,0.0000
 7747,0.00028797,-0.00047073,0.00168658,0.00023796,0.00096711,0.0001838
 0,0.00102014,-0.00005415,0.00008203,0.00000599,-0.00134575,0.00035814,
 0.00129945,0.00057856,0.00103523,0.00013865,-0.01713400,0.05774465,-0.
 12181160,0.02175952,-0.21357438,-0.00087091,0.00036947,-0.00065623,0.0
 0064816,-0.00091997,-0.00000983,0.00042843,-0.00027771,-0.00017753,0.0
 0023697,-0.00099656,0.00092306,0.00465899,-0.00105678,0.00351901,-0.00
 030924,0.00042580,-0.00015412,0.00002320,0.00012200,0.00121348,0.00020
 463,0.00000071,0.00036204,0.00004311,-0.00000816,-0.00000679,-0.000090
 13,0.00013779,0.00005782,-0.00019704,-0.00055640,0.00074681,0.13155682
 ,-0.02226916,0.23085211,-0.13481558,-0.00642752,0.11944450,-0.01694313
 ,-0.00546307,0.01351346,0.00106680,-0.00264709,-0.00011060,-0.00063424
 ,-0.00003993,0.00130844,0.00102307,0.00003424,0.00063928,-0.01056509,0
 .00052525,0.01286601,0.00115699,-0.00029058,-0.00038368,-0.00094918,0.
 00236173,-0.00005654,0.00004246,0.00009563,-0.00008508,0.00000409,-0.0
 0001941,0.00001066,0.00012834,-0.00022660,-0.00162060,-0.00019618,-0.0
 0051244,-0.00000255,0.01189514,0.00148064,-0.01439554,0.14931300,-0.01
 119039,-0.04574932,0.01671397,-0.01874800,-0.00160853,0.02009469,0.000
 04482,-0.00193136,-0.00038655,0.00043515,-0.00159441,0.00105708,-0.001
 95503,0.00033536,-0.00145146,0.01839087,-0.00167302,-0.02235169,-0.000
 54600,0.00128450,-0.00012103,0.00369389,-0.00418489,-0.00033309,-0.000
 06017,0.00007163,0.00017173,-0.00000132,0.00006405,-0.00002440,0.00037
 994,-0.00028607,-0.00231208,0.00070925,-0.00050093,-0.00079894,-0.0020
 0869,-0.00017295,0.00292995,0.01110999,0.05426112,0.11793013,0.0122657
 4,-0.20124382,-0.00276392,0.00154605,0.00559765,-0.00128099,-0.0003293
 8,0.00000104,0.00016562,-0.00054574,-0.00006569,-0.00022879,0.00025452
 ,0.00033304,0.00067980,-0.00104327,-0.00133405,-0.00008541,-0.00063516
 ,0.00045886,0.00012938,-0.00069673,0.00116598,0.00015094,0.00001477,0.
 00003713,-0.00003756,0.00003439,-0.00000752,0.00018965,-0.00012997,-0.
 00064201,0.00057493,0.00036568,-0.00004023,0.01578414,0.00225489,-0.02
 317110,-0.13093504,-0.01358550,0.21865137,-0.00077097,0.00137213,0.003
 53842,0.00335792,0.00532264,0.00168605,-0.01972901,0.01376217,0.016715
 82,-0.08217907,0.08556179,0.09151161,0.06487609,0.00658634,-0.05205476
 ,-0.00556206,0.00170722,-0.00931775,0.00152314,-0.00130085,0.00177445,
 -0.00036271,-0.00192380,0.00665275,0.00063173,0.00129680,0.00132838,-0
 .00886657,-0.01345847,0.00043515,0.00071454,-0.00037398,-0.00159028,-0
 .00034737,-0.00074991,-0.00292532,0.00053625,-0.00146539,0.00015722,-0
 .00072116,-0.00067374,-0.00067738,-0.03835991,0.00145218,-0.00013206,-
 0.00031795,-0.00186889,-0.00340883,-0.00012933,0.03018917,-0.01211829,
 -0.02395520,0.03010340,-0.08480029,-0.04385345,0.05551919,0.00794220,-
 0.02883065,-0.00347300,-0.00075977,-0.00555396,0.00008168,-0.00017757,
 0.00031022,0.00130342,-0.00035830,0.00391775,-0.00785123,0.00192168,0.
 00692227,0.01007487,0.00552809,-0.00099101,-0.00087943,-0.00028666,-0.
 00014158,-0.00030060,0.00019606,0.00365278,0.00018976,-0.00054117,0.00
 041763,-0.00024699,0.00118450,-0.00009178,-0.16378875,0.08114762,0.000
 11785,-0.00049309,-0.00041020,-0.00230138,-0.00196362,-0.00054264,0.00
 887310,-0.00772720,0.00789679,0.03260641,-0.07869939,-0.14815202,0.005
 12622,0.01421768,-0.00335761,-0.00553515,-0.00248485,0.00569434,-0.001
 81287,0.00068747,-0.00067579,0.00037412,0.00066961,0.00039425,0.000646
 75,-0.00218262,-0.00138336,0.00037402,0.00092044,-0.00014405,-0.000366
 45,-0.00011472,0.00028636,0.00101660,0.00001168,-0.00023966,-0.0000239
 4,0.00046136,0.00002955,-0.00009771,0.00033402,0.00025927,-0.04871240,
 0.11662293,0.18289545,0.00044024,0.00014892,-0.00018384,0.00074941,0.0
 0164140,-0.00021519,-0.00595713,0.00052372,-0.01218457,-0.10858904,-0.
 01079774,-0.11483339,-0.01193597,-0.00090091,-0.01741045,0.00025514,-0
 .00313333,-0.00016840,-0.00046915,0.00004473,-0.00052930,-0.00025664,-
 0.00000248,-0.00019266,0.00060954,0.00039593,0.00115841,0.00004955,0.0
 0035121,0.00034775,0.00038229,0.00035868,0.00050439,-0.00062027,0.0001
 0959,0.00069519,-0.00009047,-0.00000906,-0.00004705,-0.00000212,-0.000
 09764,-0.00006588,0.00789316,0.00596329,0.02931095,0.11543540,-0.00021
 907,-0.00025437,0.00054097,0.00015791,-0.00460339,0.00086169,0.0167536
 7,0.00272159,0.02477634,-0.00689953,-0.05417233,-0.00845724,-0.0154209
 6,-0.00210964,-0.01793808,0.00036212,-0.00321862,-0.00041015,-0.000663
 97,0.00020763,-0.00054883,-0.00035947,0.00005417,-0.00035138,0.0000271
 2,0.00092411,0.00045846,0.00010417,0.00032907,-0.00016636,-0.00066453,
 0.00062098,-0.00063415,0.00166814,-0.00024378,-0.00150092,0.00000020,0
 .00020505,0.00004324,0.00002178,0.00022626,0.00003456,0.00225214,0.002
 12159,-0.01710180,0.00453923,0.05933849,0.00011059,-0.00016130,-0.0001
 5034,0.00032816,0.00202534,-0.00034097,-0.00792926,-0.00019927,-0.0048
 9897,-0.11098430,-0.00608398,-0.22676860,0.00178675,-0.00129713,0.0049
 9262,0.00125019,0.00086096,-0.00006836,0.00019172,0.00001023,0.0001456
 0,-0.00012463,0.00004332,0.00000007,-0.00029049,-0.00051238,0.00017991
 ,-0.00014573,0.00011178,-0.00031222,0.00005269,0.00030796,0.00026300,-
 0.00052332,-0.00001222,-0.00016790,-0.00001468,0.00003635,-0.00000201,
 -0.00003441,0.00005797,0.00003283,0.00306207,-0.01369396,-0.03374005,0
 .11496576,0.01920309,0.25834756,-0.00023525,-0.00217262,-0.00145531,-0
 .00051242,-0.00187561,-0.00012541,0.00130973,0.00164644,-0.00161732,-0
 .01474739,-0.02089408,-0.00917517,-0.05921524,-0.01576362,0.03918148,0
 .00095811,-0.00004579,0.00358489,-0.00144115,0.00081919,-0.00063868,-0
 .00096310,0.00083946,-0.00350657,-0.00055024,-0.00007694,-0.00056476,-
 0.19453693,0.24719508,-0.03062184,-0.00069184,0.00059127,0.00044270,0.
 00020901,0.00049071,0.00051697,-0.00045606,0.00101801,-0.00023602,0.00
 019678,0.00051705,0.00047036,0.07736600,0.04353191,-0.01959611,0.00210
 606,-0.00165895,-0.00170113,0.19120393,-0.00001536,-0.00126313,-0.0009
 6757,-0.00061099,-0.00103434,-0.00030408,0.00189754,0.00095285,-0.0007
 3045,-0.00228952,-0.00132189,-0.00164487,-0.03400976,-0.00826373,0.023
 16227,0.00086847,0.00009099,0.00247339,-0.00074112,0.00055454,-0.00032
 817,-0.00056015,0.00047621,-0.00240060,0.00004450,0.00062651,-0.000323
 78,0.22310947,-0.33527862,0.04293940,-0.00048835,0.00101181,0.00023725
 ,0.00020062,0.00024439,0.00026876,-0.00022631,0.00070837,-0.00012136,0
 .00024439,0.00027407,0.00028692,0.06587365,0.00254120,-0.02315792,0.00
 086444,-0.00214682,-0.00069676,-0.25416152,0.34182759,-0.00003619,0.00
 026703,0.00016628,0.00002989,0.00024328,0.00000758,-0.00149188,-0.0006
 2627,0.00075556,0.00905484,0.01018755,0.00092750,0.00750186,0.00107191
 ,-0.00298425,0.00038741,0.00052942,-0.00064579,0.00031591,0.00000612,0
 .00030539,0.00039039,-0.00002661,0.00058996,-0.00003698,-0.00013428,-0
 .00009279,-0.02871272,0.04063438,-0.00540640,0.00022116,-0.00021053,-0
 .00007479,0.00004062,-0.00006433,-0.00015170,0.00009012,-0.00009638,0.
 00004812,-0.00006059,0.00000532,-0.00003276,-0.01158402,-0.01428472,-0
 .00881062,-0.00115172,0.00119055,0.00248782,0.02504192,-0.03869243,0.0
 1291089\\0.00000070,-0.00000011,-0.00000050,0.00000093,0.00000057,0.00
 000019,0.00000353,-0.00000141,-0.00000404,0.00000741,-0.00000078,-0.00
 000108,-0.00000743,0.00000214,-0.00001277,-0.00000666,-0.00000592,0.00
 000714,-0.00000308,0.00000162,0.00000123,-0.00000040,-0.00000225,0.000
 00126,0.00000291,-0.00000228,-0.00000324,0.00000162,0.00000251,0.00000
 405,-0.00000137,0.00000118,0.00000142,-0.00000107,0.00000016,0.0000018
 6,0.00000248,0.00000015,-0.00000223,-0.00000287,0.00000090,-0.00000239
 ,-0.00000702,-0.00000342,0.00001473,-0.00000070,-0.00000003,0.00000050
 ,0.00001103,0.00000698,-0.00000614\\\@


 ALL MY ATTEMPTS TO ADAPT THE THEORETICAL FOUNDATIONS OF PHYSICS
 TO THESE NEW NOTIONS FAILED COMPLETELY. IT WAS AS IF THE GROUND HAD
 BEEN PULLED OUT FROM UNDER ONE WITH NO FIRM FOUNDATION TO BE SEEN ANYWHERE,
 UPON WHICH ONE COULD HAVE BUILT.  -- A.EINSTEIN
 Job cpu time:       0 days  0 hours  0 minutes 34.2 seconds.
 Elapsed time:       0 days  0 hours  5 minutes 51.2 seconds.
 File lengths (MBytes):  RWF=    346 Int=      0 D2E=      0 Chk=     16 Scr=      1
 Normal termination of Gaussian 16 at Mon May 16 22:16:55 2022.
