 Entering Gaussian System, Link 0=g16
 Input=Mol_02.com
 Output=Mol_02.log
 Initial command:
 /home/saurabh/gaussian/g16/l1.exe "/home/saurabh/gaussian/gauss_scr/Gau-43107.inp" -scrdir="/home/saurabh/gaussian/gauss_scr/"
 Entering Link 1 = /home/saurabh/gaussian/g16/l1.exe PID=     43108.
  
 Copyright (c) 1988-2019, Gaussian, Inc.  All Rights Reserved.
  
 This is part of the Gaussian(R) 16 program.  It is based on
 the Gaussian(R) 09 system (copyright 2009, Gaussian, Inc.),
 the Gaussian(R) 03 system (copyright 2003, Gaussian, Inc.),
 the Gaussian(R) 98 system (copyright 1998, Gaussian, Inc.),
 the Gaussian(R) 94 system (copyright 1995, Gaussian, Inc.),
 the Gaussian 92(TM) system (copyright 1992, Gaussian, Inc.),
 the Gaussian 90(TM) system (copyright 1990, Gaussian, Inc.),
 the Gaussian 88(TM) system (copyright 1988, Gaussian, Inc.),
 the Gaussian 86(TM) system (copyright 1986, Carnegie Mellon
 University), and the Gaussian 82(TM) system (copyright 1983,
 Carnegie Mellon University). Gaussian is a federally registered
 trademark of Gaussian, Inc.
  
 This software contains proprietary and confidential information,
 including trade secrets, belonging to Gaussian, Inc.
  
 This software is provided under written license and may be
 used, copied, transmitted, or stored only in accord with that
 written license.
  
 The following legend is applicable only to US Government
 contracts under FAR:
  
                    RESTRICTED RIGHTS LEGEND
  
 Use, reproduction and disclosure by the US Government is
 subject to restrictions as set forth in subparagraphs (a)
 and (c) of the Commercial Computer Software - Restricted
 Rights clause in FAR 52.227-19.
  
 Gaussian, Inc.
 340 Quinnipiac St., Bldg. 40, Wallingford CT 06492
  
  
 ---------------------------------------------------------------
 Warning -- This program may not be used in any manner that
 competes with the business of Gaussian, Inc. or will provide
 assistance to any competitor of Gaussian, Inc.  The licensee
 of this program is prohibited from giving any competitor of
 Gaussian, Inc. access to this program.  By using this program,
 the user acknowledges that Gaussian, Inc. is engaged in the
 business of creating and licensing software in the field of
 computational chemistry and represents and warrants to the
 licensee that it is not a competitor of Gaussian, Inc. and that
 it will not use this program in any manner prohibited above.
 ---------------------------------------------------------------
  

 Cite this work as:
 Gaussian 16, Revision C.01,
 M. J. Frisch, G. W. Trucks, H. B. Schlegel, G. E. Scuseria, 
 M. A. Robb, J. R. Cheeseman, G. Scalmani, V. Barone, 
 G. A. Petersson, H. Nakatsuji, X. Li, M. Caricato, A. V. Marenich, 
 J. Bloino, B. G. Janesko, R. Gomperts, B. Mennucci, H. P. Hratchian, 
 J. V. Ortiz, A. F. Izmaylov, J. L. Sonnenberg, D. Williams-Young, 
 F. Ding, F. Lipparini, F. Egidi, J. Goings, B. Peng, A. Petrone, 
 T. Henderson, D. Ranasinghe, V. G. Zakrzewski, J. Gao, N. Rega, 
 G. Zheng, W. Liang, M. Hada, M. Ehara, K. Toyota, R. Fukuda, 
 J. Hasegawa, M. Ishida, T. Nakajima, Y. Honda, O. Kitao, H. Nakai, 
 T. Vreven, K. Throssell, J. A. Montgomery, Jr., J. E. Peralta, 
 F. Ogliaro, M. J. Bearpark, J. J. Heyd, E. N. Brothers, K. N. Kudin, 
 V. N. Staroverov, T. A. Keith, R. Kobayashi, J. Normand, 
 K. Raghavachari, A. P. Rendell, J. C. Burant, S. S. Iyengar, 
 J. Tomasi, M. Cossi, J. M. Millam, M. Klene, C. Adamo, R. Cammi, 
 J. W. Ochterski, R. L. Martin, K. Morokuma, O. Farkas, 
 J. B. Foresman, and D. J. Fox, Gaussian, Inc., Wallingford CT, 2019.
 
 ******************************************
 Gaussian 16:  ES64L-G16RevC.01  3-Jul-2019
                 7-Apr-2022 
 ******************************************
 %mem=8gb
 %nproc=8
 Will use up to    8 processors via shared memory.
 %chk=Mol_02.chk
 ----------------------------------------------------------------------
 #p B3LYP/cc-PVTZ scf(verytight, maxcycles=1000) opt(calcfc, maxcyc=100
 0) freq(hpmodes) int(grid=ultrafine)
 ----------------------------------------------------------------------
 1/6=1000,10=4,18=20,19=15,26=4,38=1/1,3;
 2/9=110,12=2,17=6,18=5,40=1/2;
 3/5=16,6=1,11=2,25=1,30=1,71=2,74=-5,75=-5,140=1/1,2,3;
 4//1;
 5/5=2,7=1000,17=3,38=5/2;
 8/6=4,10=90,11=11/1;
 11/6=1,8=1,9=11,15=111,16=1/1,2,10;
 10/6=1,13=1/2;
 6/7=2,8=2,9=2,10=2,28=1/1;
 7/10=1,25=1/1,2,3,16;
 1/6=1000,10=4,18=20,19=15,26=4/3(2);
 2/9=110/2;
 99//99;
 2/9=110/2;
 3/5=16,6=1,11=2,25=1,30=1,71=1,74=-5,75=-5/1,2,3;
 4/5=5,16=3,69=1/1;
 5/5=2,7=1000,17=3,38=5/2;
 7//1,2,3,16;
 1/6=1000,18=20,19=15,26=4/3(-5);
 2/9=110/2;
 6/7=2,8=2,9=2,10=2,19=2,28=1/1;
 99/9=1/99;
 Leave Link    1 at Thu Apr  7 19:23:05 2022, MaxMem=  1073741824 cpu:               0.4 elap:               0.1
 (Enter /home/saurabh/gaussian/g16/l101.exe)
 ------
 Mol_02
 ------
 Symbolic Z-matrix:
 Charge =  0 Multiplicity = 2
 C                    -3.18818   2.00177   0.05867 
 C                    -2.27519   0.8961   -0.4842 
 C                    -0.83764   1.42787  -0.64855 
 C                    -2.30945  -0.3215    0.44938 
 H                    -3.19071   2.87099  -0.63321 
 H                    -2.8431    2.34204   1.05889 
 H                    -4.231     1.62915   0.1482 
 H                    -2.66099   0.58836  -1.48101 
 H                    -1.93461  -0.05209   1.46033 
 H                    -1.68112  -1.14152   0.0419 
 H                    -3.34882  -0.70241   0.54358 
 O                     0.02029   0.43742  -1.16056 
 O                    -0.18431   0.40208  -2.46417 
 H                    -0.44213   1.7485    0.33945 
 H                    -0.82119   2.33687  -1.2951 
 
 ITRead=  0  0  0  0  0  0  0  0  0  0  0  0  0  0  0
 MicOpt= -1 -1 -1 -1 -1 -1 -1 -1 -1 -1 -1 -1 -1 -1 -1
 NAtoms=     15 NQM=       15 NQMF=       0 NMMI=      0 NMMIF=      0
                NMic=       0 NMicF=      0.
                    Isotopes and Nuclear Properties:
 (Nuclear quadrupole moments (NQMom) in fm**2, nuclear magnetic moments (NMagM)
  in nuclear magnetons)

  Atom         1           2           3           4           5           6           7           8           9          10
 IAtWgt=          12          12          12          12           1           1           1           1           1           1
 AtmWgt=  12.0000000  12.0000000  12.0000000  12.0000000   1.0078250   1.0078250   1.0078250   1.0078250   1.0078250   1.0078250
 NucSpn=           0           0           0           0           1           1           1           1           1           1
 AtZEff=  -0.0000000  -0.0000000  -0.0000000  -0.0000000  -0.0000000  -0.0000000  -0.0000000  -0.0000000  -0.0000000  -0.0000000
 NQMom=    0.0000000   0.0000000   0.0000000   0.0000000   0.0000000   0.0000000   0.0000000   0.0000000   0.0000000   0.0000000
 NMagM=    0.0000000   0.0000000   0.0000000   0.0000000   2.7928460   2.7928460   2.7928460   2.7928460   2.7928460   2.7928460
 AtZNuc=   6.0000000   6.0000000   6.0000000   6.0000000   1.0000000   1.0000000   1.0000000   1.0000000   1.0000000   1.0000000

  Atom        11          12          13          14          15
 IAtWgt=           1          16          16           1           1
 AtmWgt=   1.0078250  15.9949146  15.9949146   1.0078250   1.0078250
 NucSpn=           1           0           0           1           1
 AtZEff=  -0.0000000  -0.0000000  -0.0000000  -0.0000000  -0.0000000
 NQMom=    0.0000000   0.0000000   0.0000000   0.0000000   0.0000000
 NMagM=    2.7928460   0.0000000   0.0000000   2.7928460   2.7928460
 AtZNuc=   1.0000000   8.0000000   8.0000000   1.0000000   1.0000000
 Leave Link  101 at Thu Apr  7 19:23:05 2022, MaxMem=  1073741824 cpu:               1.5 elap:               0.2
 (Enter /home/saurabh/gaussian/g16/l103.exe)

 GradGradGradGradGradGradGradGradGradGradGradGradGradGradGradGradGradGrad
 Berny optimization.
 Initialization pass.
                           ----------------------------
                           !    Initial Parameters    !
                           ! (Angstroms and Degrees)  !
 --------------------------                            --------------------------
 ! Name  Definition              Value          Derivative Info.                !
 --------------------------------------------------------------------------------
 ! R1    R(1,2)                  1.5332         calculate D2E/DX2 analytically  !
 ! R2    R(1,5)                  1.111          calculate D2E/DX2 analytically  !
 ! R3    R(1,6)                  1.1114         calculate D2E/DX2 analytically  !
 ! R4    R(1,7)                  1.111          calculate D2E/DX2 analytically  !
 ! R5    R(2,3)                  1.5415         calculate D2E/DX2 analytically  !
 ! R6    R(2,4)                  1.5347         calculate D2E/DX2 analytically  !
 ! R7    R(2,8)                  1.1123         calculate D2E/DX2 analytically  !
 ! R8    R(3,12)                 1.4068         calculate D2E/DX2 analytically  !
 ! R9    R(3,14)                 1.1115         calculate D2E/DX2 analytically  !
 ! R10   R(3,15)                 1.1156         calculate D2E/DX2 analytically  !
 ! R11   R(4,9)                  1.1114         calculate D2E/DX2 analytically  !
 ! R12   R(4,10)                 1.1105         calculate D2E/DX2 analytically  !
 ! R13   R(4,11)                 1.111          calculate D2E/DX2 analytically  !
 ! R14   R(12,13)                1.32           calculate D2E/DX2 analytically  !
 ! A1    A(2,1,5)              110.186          calculate D2E/DX2 analytically  !
 ! A2    A(2,1,6)              110.7648         calculate D2E/DX2 analytically  !
 ! A3    A(2,1,7)              110.2179         calculate D2E/DX2 analytically  !
 ! A4    A(5,1,6)              108.7617         calculate D2E/DX2 analytically  !
 ! A5    A(5,1,7)              108.0875         calculate D2E/DX2 analytically  !
 ! A6    A(6,1,7)              108.7582         calculate D2E/DX2 analytically  !
 ! A7    A(1,2,3)              110.1382         calculate D2E/DX2 analytically  !
 ! A8    A(1,2,4)              110.088          calculate D2E/DX2 analytically  !
 ! A9    A(1,2,8)              108.0769         calculate D2E/DX2 analytically  !
 ! A10   A(3,2,4)              111.0606         calculate D2E/DX2 analytically  !
 ! A11   A(3,2,8)              108.8656         calculate D2E/DX2 analytically  !
 ! A12   A(4,2,8)              108.5369         calculate D2E/DX2 analytically  !
 ! A13   A(2,3,12)             111.3851         calculate D2E/DX2 analytically  !
 ! A14   A(2,3,14)             109.6684         calculate D2E/DX2 analytically  !
 ! A15   A(2,3,15)             110.8922         calculate D2E/DX2 analytically  !
 ! A16   A(12,3,14)            108.0354         calculate D2E/DX2 analytically  !
 ! A17   A(12,3,15)            110.7155         calculate D2E/DX2 analytically  !
 ! A18   A(14,3,15)            105.9544         calculate D2E/DX2 analytically  !
 ! A19   A(2,4,9)              110.702          calculate D2E/DX2 analytically  !
 ! A20   A(2,4,10)             110.4871         calculate D2E/DX2 analytically  !
 ! A21   A(2,4,11)             110.1503         calculate D2E/DX2 analytically  !
 ! A22   A(9,4,10)             108.7802         calculate D2E/DX2 analytically  !
 ! A23   A(9,4,11)             108.7559         calculate D2E/DX2 analytically  !
 ! A24   A(10,4,11)            107.8946         calculate D2E/DX2 analytically  !
 ! A25   A(3,12,13)            106.4832         calculate D2E/DX2 analytically  !
 ! D1    D(5,1,2,3)             59.0663         calculate D2E/DX2 analytically  !
 ! D2    D(5,1,2,4)           -178.1373         calculate D2E/DX2 analytically  !
 ! D3    D(5,1,2,8)            -59.7485         calculate D2E/DX2 analytically  !
 ! D4    D(6,1,2,3)            -61.3239         calculate D2E/DX2 analytically  !
 ! D5    D(6,1,2,4)             61.4725         calculate D2E/DX2 analytically  !
 ! D6    D(6,1,2,8)            179.8613         calculate D2E/DX2 analytically  !
 ! D7    D(7,1,2,3)            178.2694         calculate D2E/DX2 analytically  !
 ! D8    D(7,1,2,4)            -58.9342         calculate D2E/DX2 analytically  !
 ! D9    D(7,1,2,8)             59.4546         calculate D2E/DX2 analytically  !
 ! D10   D(1,2,3,12)          -179.3201         calculate D2E/DX2 analytically  !
 ! D11   D(1,2,3,14)            61.1376         calculate D2E/DX2 analytically  !
 ! D12   D(1,2,3,15)           -55.5341         calculate D2E/DX2 analytically  !
 ! D13   D(4,2,3,12)            58.4564         calculate D2E/DX2 analytically  !
 ! D14   D(4,2,3,14)           -61.0859         calculate D2E/DX2 analytically  !
 ! D15   D(4,2,3,15)          -177.7576         calculate D2E/DX2 analytically  !
 ! D16   D(8,2,3,12)           -60.989          calculate D2E/DX2 analytically  !
 ! D17   D(8,2,3,14)           179.4687         calculate D2E/DX2 analytically  !
 ! D18   D(8,2,3,15)            62.7969         calculate D2E/DX2 analytically  !
 ! D19   D(1,2,4,9)            -61.6284         calculate D2E/DX2 analytically  !
 ! D20   D(1,2,4,10)           177.8013         calculate D2E/DX2 analytically  !
 ! D21   D(1,2,4,11)            58.6905         calculate D2E/DX2 analytically  !
 ! D22   D(3,2,4,9)             60.6243         calculate D2E/DX2 analytically  !
 ! D23   D(3,2,4,10)           -59.9459         calculate D2E/DX2 analytically  !
 ! D24   D(3,2,4,11)          -179.0568         calculate D2E/DX2 analytically  !
 ! D25   D(8,2,4,9)           -179.7339         calculate D2E/DX2 analytically  !
 ! D26   D(8,2,4,10)            59.6958         calculate D2E/DX2 analytically  !
 ! D27   D(8,2,4,11)           -59.4151         calculate D2E/DX2 analytically  !
 ! D28   D(2,3,12,13)           80.2018         calculate D2E/DX2 analytically  !
 ! D29   D(14,3,12,13)        -159.2912         calculate D2E/DX2 analytically  !
 ! D30   D(15,3,12,13)         -43.6844         calculate D2E/DX2 analytically  !
 --------------------------------------------------------------------------------
 Trust Radius=3.00D-01 FncErr=1.00D-07 GrdErr=1.00D-06 EigMax=2.50D+02 EigMin=1.00D-04
 Number of steps in this run=    100 maximum allowed number of steps=    100.
 GradGradGradGradGradGradGradGradGradGradGradGradGradGradGradGradGradGrad

 Leave Link  103 at Thu Apr  7 19:23:05 2022, MaxMem=  1073741824 cpu:               0.1 elap:               0.0
 (Enter /home/saurabh/gaussian/g16/l202.exe)
                          Input orientation:                          
 ---------------------------------------------------------------------
 Center     Atomic      Atomic             Coordinates (Angstroms)
 Number     Number       Type             X           Y           Z
 ---------------------------------------------------------------------
      1          6           0       -3.188182    2.001772    0.058666
      2          6           0       -2.275195    0.896101   -0.484201
      3          6           0       -0.837638    1.427870   -0.648550
      4          6           0       -2.309453   -0.321496    0.449380
      5          1           0       -3.190706    2.870986   -0.633212
      6          1           0       -2.843102    2.342036    1.058894
      7          1           0       -4.230996    1.629149    0.148202
      8          1           0       -2.660992    0.588362   -1.481013
      9          1           0       -1.934605   -0.052092    1.460335
     10          1           0       -1.681121   -1.141515    0.041896
     11          1           0       -3.348819   -0.702408    0.543575
     12          8           0        0.020294    0.437421   -1.160557
     13          8           0       -0.184311    0.402084   -2.464168
     14          1           0       -0.442133    1.748503    0.339454
     15          1           0       -0.821189    2.336871   -1.295102
 ---------------------------------------------------------------------
                    Distance matrix (angstroms):
                    1          2          3          4          5
     1  C    0.000000
     2  C    1.533218   0.000000
     3  C    2.520828   1.541544   0.000000
     4  C    2.514437   1.534694   2.536133   0.000000
     5  H    1.110961   2.181865   2.760389   3.484329   0.000000
     6  H    1.111448   2.189609   2.788001   2.784006   1.806610
     7  H    1.111002   2.182304   3.491448   2.754641   1.798603
     8  H    2.155520   1.112285   2.173105   2.162831   2.491934
     9  H    2.784688   2.190043   2.800182   1.111359   3.808557
    10  H    3.485938   2.186682   2.791042   1.110530   4.339906
    11  H    2.752004   2.182710   3.502181   1.110967   3.765497
    12  O    3.772004   2.436619   1.406836   2.931820   4.063355
    13  O    4.236382   2.921664   2.185301   3.678119   4.299568
    14  H    2.771962   2.182914   1.111478   2.789957   3.124212
    15  H    2.747296   2.201707   1.115609   3.510706   2.517536
                    6          7          8          9         10
     6  H    0.000000
     7  H    1.806604   0.000000
     8  H    3.091871   2.490481   0.000000
     9  H    2.591982   3.133955   3.096667   0.000000
    10  H    3.810461   3.766928   2.504371   1.806396   0.000000
    11  H    3.128889   2.524027   2.497629   1.806477   1.796027
    12  O    4.092989   4.605055   2.704583   3.306104   2.614143
    13  O    4.821260   4.970496   2.671187   4.321056   3.302044
    14  H    2.575758   3.795564   3.095701   2.593451   3.158455
    15  H    3.103136   3.769719   2.544941   3.813039   3.824424
                   11         12         13         14         15
    11  H    0.000000
    12  O    3.943881   0.000000
    13  O    4.503391   1.320043   0.000000
    14  H    3.807552   2.045191   3.120835   0.000000
    15  H    4.359686   2.081852   2.348559   1.778098   0.000000
 Stoichiometry    C4H9O2(2)
 Framework group  C1[X(C4H9O2)]
 Deg. of freedom    39
 Full point group                 C1      NOp   1
 Largest Abelian subgroup         C1      NOp   1
 Largest concise Abelian subgroup C1      NOp   1
                         Standard orientation:                         
 ---------------------------------------------------------------------
 Center     Atomic      Atomic             Coordinates (Angstroms)
 Number     Number       Type             X           Y           Z
 ---------------------------------------------------------------------
      1          6           0        1.971889   -0.901232   -0.130891
      2          6           0        0.724660   -0.026700   -0.305164
      3          6           0       -0.415164   -0.542314    0.595560
      4          6           0        1.058856    1.437224    0.011895
      5          1           0        1.740221   -1.955836   -0.392377
      6          1           0        2.335193   -0.864744    0.918869
      7          1           0        2.784153   -0.549781   -0.802483
      8          1           0        0.401883   -0.093643   -1.367478
      9          1           0        1.391265    1.544707    1.066917
     10          1           0        0.169929    2.082779   -0.150409
     11          1           0        1.869488    1.798156   -0.656576
     12          8           0       -1.579125    0.233303    0.444561
     13          8           0       -2.171174   -0.190207   -0.656634
     14          1           0       -0.102753   -0.490241    1.660957
     15          1           0       -0.628441   -1.618025    0.390764
 ---------------------------------------------------------------------
 Rotational constants (GHZ):           6.2345969           2.2087594           1.9252714
 Leave Link  202 at Thu Apr  7 19:23:05 2022, MaxMem=  1073741824 cpu:               0.1 elap:               0.0
 (Enter /home/saurabh/gaussian/g16/l301.exe)
 Standard basis: CC-pVTZ (5D, 7F)
 Ernie: Thresh=  0.10000D-02 Tol=  0.10000D-05 Strict=F.
 Ernie:  18 primitive shells out of 228 were deleted.
 There are   345 symmetry adapted cartesian basis functions of A   symmetry.
 There are   306 symmetry adapted basis functions of A   symmetry.
   306 basis functions,   465 primitive gaussians,   345 cartesian basis functions
    25 alpha electrons       24 beta electrons
       nuclear repulsion energy       251.7433667307 Hartrees.
 IExCor=  402 DFT=T Ex+Corr=B3LYP ExCW=0 ScaHFX=  0.200000
 ScaDFX=  0.800000  0.720000  1.000000  0.810000 ScalE2=  1.000000  1.000000
 IRadAn=      5 IRanWt=     -1 IRanGd=            0 ICorTp=0 IEmpDi=  4
 NAtoms=   15 NActive=   15 NUniq=   15 SFac= 1.00D+00 NAtFMM=   60 NAOKFM=F Big=F
 Integral buffers will be    131072 words long.
 Raffenetti 2 integral format.
 Two-electron integral symmetry is turned on.
 Leave Link  301 at Thu Apr  7 19:23:05 2022, MaxMem=  1073741824 cpu:               0.4 elap:               0.1
 (Enter /home/saurabh/gaussian/g16/l302.exe)
 NPDir=0 NMtPBC=     1 NCelOv=     1 NCel=       1 NClECP=     1 NCelD=      1
         NCelK=      1 NCelE2=     1 NClLst=     1 CellRange=     0.0.
 One-electron integrals computed using PRISM.
 One-electron integral symmetry used in STVInt
 NBasis=   306 RedAO= T EigKep=  6.29D-04  NBF=   306
 NBsUse=   306 1.00D-06 EigRej= -1.00D+00 NBFU=   306
 Precomputing XC quadrature grid using
 IXCGrd= 4 IRadAn=           5 IRanWt=          -1 IRanGd=           0 AccXCQ= 0.00D+00.
 Generated NRdTot=       0 NPtTot=           0 NUsed=           0 NTot=          32
 NSgBfM=   345   345   345   345   345 MxSgAt=    15 MxSgA2=    15.
 Leave Link  302 at Thu Apr  7 19:23:05 2022, MaxMem=  1073741824 cpu:               1.7 elap:               0.2
 (Enter /home/saurabh/gaussian/g16/l303.exe)
 DipDrv:  MaxL=1.
 Leave Link  303 at Thu Apr  7 19:23:05 2022, MaxMem=  1073741824 cpu:               0.3 elap:               0.1
 (Enter /home/saurabh/gaussian/g16/l401.exe)
 ExpMin= 1.03D-01 ExpMax= 1.53D+04 ExpMxC= 5.22D+02 IAcc=3 IRadAn=         5 AccDes= 0.00D+00
 Harris functional with IExCor=  402 and IRadAn=       5 diagonalized for initial guess.
 HarFok:  IExCor=  402 AccDes= 0.00D+00 IRadAn=         5 IDoV= 1 UseB2=F ITyADJ=14
 ICtDFT=  3500011 ScaDFX=  1.000000  1.000000  1.000000  1.000000
 FoFCou: FMM=F IPFlag=           0 FMFlag=      100000 FMFlg1=           0
         NFxFlg=           0 DoJE=T BraDBF=F KetDBF=T FulRan=T
         wScrn=  0.000000 ICntrl=       500 IOpCl=  0 I1Cent=   200000004 NGrid=           0
         NMat0=    1 NMatS0=      1 NMatT0=    0 NMatD0=    1 NMtDS0=    0 NMtDT0=    0
 Petite list used in FoFCou.
 Harris En= -308.298305493195    
 JPrj=0 DoOrth=F DoCkMO=F.
 Initial guess <Sx>= 0.0000 <Sy>= 0.0000 <Sz>= 0.5000 <S**2>= 0.7500 S= 0.5000
 Leave Link  401 at Thu Apr  7 19:23:06 2022, MaxMem=  1073741824 cpu:               6.9 elap:               0.9
 (Enter /home/saurabh/gaussian/g16/l502.exe)
 Integral symmetry usage will be decided dynamically.
 UHF open shell SCF:
 Using DIIS extrapolation, IDIIS=  1040.
 NGot=  1073741824 LenX=  1073497548 LenY=  1073378082
 Requested convergence on RMS density matrix=1.00D-08 within1000 cycles.
 Requested convergence on MAX density matrix=1.00D-06.
 Requested convergence on             energy=1.00D-06.
 No special actions if energy rises.
 Fock matrices will be formed incrementally for  20 cycles.
 Integral accuracy reduced to 1.0D-05 until final iterations.

 Cycle   1  Pass 0  IDiag  1:
 FoFJK:  IHMeth= 1 ICntrl=       0 DoSepK=F KAlg= 0 I1Cent=           0 FoldK=F
 IRaf= 980000000 NMat=       1 IRICut=       1 DoRegI=T DoRafI=F ISym2E= 0 IDoP0=0 IntGTp=1.
 FoFCou: FMM=F IPFlag=           0 FMFlag=      100000 FMFlg1=           0
         NFxFlg=           0 DoJE=F BraDBF=F KetDBF=F FulRan=T
         wScrn=  0.000000 ICntrl=         0 IOpCl=  1 I1Cent=           0 NGrid=           0
         NMat0=    1 NMatS0=      1 NMatT0=    0 NMatD0=    1 NMtDS0=    0 NMtDT0=    0
 Symmetry not used in FoFCou.
 E= -308.078613165294    
 DIIS: error= 2.74D-02 at cycle   1 NSaved=   1.
 NSaved= 1 IEnMin= 1 EnMin= -308.078613165294     IErMin= 1 ErrMin= 2.74D-02
 ErrMax= 2.74D-02  0.00D+00 EMaxC= 1.00D-01 BMatC= 8.63D-01 BMatP= 8.63D-01
 IDIUse=3 WtCom= 7.26D-01 WtEn= 2.74D-01
 Coeff-Com:  0.100D+01
 Coeff-En:   0.100D+01
 Coeff:      0.100D+01
 Gap=     0.337 Goal=   None    Shift=    0.000
 Gap=     0.110 Goal=   None    Shift=    0.000
 GapD=    0.110 DampG=1.000 DampE=0.500 DampFc=0.5000 IDamp=-1.
 Damping current iteration by 5.00D-01
 RMSDP=2.19D-03 MaxDP=5.88D-02              OVMax= 1.81D-01

 Cycle   2  Pass 0  IDiag  1:
 RMSU=  1.09D-03    CP:  9.92D-01
 E= -308.150085055183     Delta-E=       -0.071471889889 Rises=F Damp=T
 DIIS: error= 5.75D-03 at cycle   2 NSaved=   2.
 NSaved= 2 IEnMin= 2 EnMin= -308.150085055183     IErMin= 2 ErrMin= 5.75D-03
 ErrMax= 5.75D-03  0.00D+00 EMaxC= 1.00D-01 BMatC= 1.13D-01 BMatP= 8.63D-01
 IDIUse=3 WtCom= 9.42D-01 WtEn= 5.75D-02
 Coeff-Com:  0.159D+00 0.841D+00
 Coeff-En:   0.254D+00 0.746D+00
 Coeff:      0.165D+00 0.835D+00
 Gap=     0.375 Goal=   None    Shift=    0.000
 Gap=     0.206 Goal=   None    Shift=    0.000
 RMSDP=5.72D-04 MaxDP=2.01D-02 DE=-7.15D-02 OVMax= 1.30D-01

 Cycle   3  Pass 0  IDiag  1:
 RMSU=  5.06D-04    CP:  9.94D-01  7.57D-01
 E= -308.258708951260     Delta-E=       -0.108623896077 Rises=F Damp=F
 DIIS: error= 6.77D-03 at cycle   3 NSaved=   3.
 NSaved= 3 IEnMin= 3 EnMin= -308.258708951260     IErMin= 2 ErrMin= 5.75D-03
 ErrMax= 6.77D-03  0.00D+00 EMaxC= 1.00D-01 BMatC= 1.09D-01 BMatP= 1.13D-01
 IDIUse=3 WtCom= 9.32D-01 WtEn= 6.77D-02
 Coeff-Com:  0.237D-01 0.491D+00 0.485D+00
 Coeff-En:   0.000D+00 0.000D+00 0.100D+01
 Coeff:      0.221D-01 0.458D+00 0.520D+00
 Gap=     0.312 Goal=   None    Shift=    0.000
 Gap=     0.144 Goal=   None    Shift=    0.000
 RMSDP=4.00D-04 MaxDP=2.01D-02 DE=-1.09D-01 OVMax= 8.24D-02

 Cycle   4  Pass 0  IDiag  1:
 RMSU=  3.00D-04    CP:  9.96D-01  7.94D-01  4.84D-01
 E= -308.269873475972     Delta-E=       -0.011164524713 Rises=F Damp=F
 DIIS: error= 4.34D-03 at cycle   4 NSaved=   4.
 NSaved= 4 IEnMin= 4 EnMin= -308.269873475972     IErMin= 4 ErrMin= 4.34D-03
 ErrMax= 4.34D-03  0.00D+00 EMaxC= 1.00D-01 BMatC= 4.28D-02 BMatP= 1.09D-01
 IDIUse=3 WtCom= 9.57D-01 WtEn= 4.34D-02
 Coeff-Com: -0.896D-02 0.119D+00 0.390D+00 0.500D+00
 Coeff-En:   0.000D+00 0.000D+00 0.331D+00 0.669D+00
 Coeff:     -0.857D-02 0.113D+00 0.388D+00 0.507D+00
 Gap=     0.317 Goal=   None    Shift=    0.000
 Gap=     0.152 Goal=   None    Shift=    0.000
 RMSDP=1.85D-04 MaxDP=7.51D-03 DE=-1.12D-02 OVMax= 2.57D-02

 Cycle   5  Pass 0  IDiag  1:
 RMSU=  9.21D-05    CP:  9.94D-01  8.01D-01  6.52D-01  5.49D-01
 E= -308.277281656803     Delta-E=       -0.007408180831 Rises=F Damp=F
 DIIS: error= 8.76D-04 at cycle   5 NSaved=   5.
 NSaved= 5 IEnMin= 5 EnMin= -308.277281656803     IErMin= 5 ErrMin= 8.76D-04
 ErrMax= 8.76D-04  0.00D+00 EMaxC= 1.00D-01 BMatC= 8.66D-04 BMatP= 4.28D-02
 IDIUse=3 WtCom= 9.91D-01 WtEn= 8.76D-03
 Coeff-Com: -0.457D-02 0.557D-02 0.138D+00 0.212D+00 0.649D+00
 Coeff-En:   0.000D+00 0.000D+00 0.000D+00 0.000D+00 0.100D+01
 Coeff:     -0.453D-02 0.552D-02 0.137D+00 0.210D+00 0.652D+00
 Gap=     0.309 Goal=   None    Shift=    0.000
 Gap=     0.153 Goal=   None    Shift=    0.000
 RMSDP=4.28D-05 MaxDP=1.45D-03 DE=-7.41D-03 OVMax= 9.20D-03

 Cycle   6  Pass 0  IDiag  1:
 RMSU=  3.05D-05    CP:  9.94D-01  7.98D-01  6.76D-01  6.04D-01  7.61D-01
 E= -308.277463135967     Delta-E=       -0.000181479164 Rises=F Damp=F
 DIIS: error= 3.17D-04 at cycle   6 NSaved=   6.
 NSaved= 6 IEnMin= 6 EnMin= -308.277463135967     IErMin= 6 ErrMin= 3.17D-04
 ErrMax= 3.17D-04  0.00D+00 EMaxC= 1.00D-01 BMatC= 1.78D-04 BMatP= 8.66D-04
 IDIUse=3 WtCom= 9.97D-01 WtEn= 3.17D-03
 Coeff-Com:  0.843D-04-0.131D-01 0.202D-01 0.252D-01 0.306D+00 0.662D+00
 Coeff-En:   0.000D+00 0.000D+00 0.000D+00 0.000D+00 0.000D+00 0.100D+01
 Coeff:      0.840D-04-0.131D-01 0.202D-01 0.251D-01 0.305D+00 0.663D+00
 Gap=     0.310 Goal=   None    Shift=    0.000
 Gap=     0.153 Goal=   None    Shift=    0.000
 RMSDP=1.60D-05 MaxDP=8.18D-04 DE=-1.81D-04 OVMax= 1.55D-03

 Cycle   7  Pass 0  IDiag  1:
 RMSU=  1.08D-05    CP:  9.94D-01  7.98D-01  6.81D-01  6.01D-01  8.83D-01
                    CP:  9.43D-01
 E= -308.277501589099     Delta-E=       -0.000038453132 Rises=F Damp=F
 DIIS: error= 1.11D-04 at cycle   7 NSaved=   7.
 NSaved= 7 IEnMin= 7 EnMin= -308.277501589099     IErMin= 7 ErrMin= 1.11D-04
 ErrMax= 1.11D-04  0.00D+00 EMaxC= 1.00D-01 BMatC= 2.03D-05 BMatP= 1.78D-04
 IDIUse=3 WtCom= 9.99D-01 WtEn= 1.11D-03
 Coeff-Com:  0.137D-02-0.331D-02-0.146D-01-0.392D-01-0.596D-01 0.683D-01
 Coeff-Com:  0.105D+01
 Coeff-En:   0.000D+00 0.000D+00 0.000D+00 0.000D+00 0.000D+00 0.000D+00
 Coeff-En:   0.100D+01
 Coeff:      0.137D-02-0.330D-02-0.146D-01-0.392D-01-0.596D-01 0.682D-01
 Coeff:      0.105D+01
 Gap=     0.310 Goal=   None    Shift=    0.000
 Gap=     0.154 Goal=   None    Shift=    0.000
 RMSDP=9.33D-06 MaxDP=3.94D-04 DE=-3.85D-05 OVMax= 2.27D-03

 Initial convergence to 1.0D-05 achieved.  Increase integral accuracy.
 Cycle   8  Pass 1  IDiag  1:
 E= -308.277514193822     Delta-E=       -0.000012604723 Rises=F Damp=F
 DIIS: error= 4.81D-05 at cycle   1 NSaved=   1.
 NSaved= 1 IEnMin= 1 EnMin= -308.277514193822     IErMin= 1 ErrMin= 4.81D-05
 ErrMax= 4.81D-05  0.00D+00 EMaxC= 1.00D-01 BMatC= 5.32D-06 BMatP= 5.32D-06
 IDIUse=1 WtCom= 1.00D+00 WtEn= 0.00D+00
 Coeff-Com:  0.100D+01
 Coeff:      0.100D+01
 Gap=     0.310 Goal=   None    Shift=    0.000
 Gap=     0.154 Goal=   None    Shift=    0.000
 RMSDP=9.33D-06 MaxDP=3.94D-04 DE=-1.26D-05 OVMax= 6.72D-04

 Cycle   9  Pass 1  IDiag  1:
 RMSU=  7.56D-06    CP:  1.00D+00
 E= -308.277512977830     Delta-E=        0.000001215992 Rises=F Damp=F
 DIIS: error= 7.52D-05 at cycle   2 NSaved=   2.
 NSaved= 2 IEnMin= 1 EnMin= -308.277514193822     IErMin= 1 ErrMin= 4.81D-05
 ErrMax= 7.52D-05  0.00D+00 EMaxC= 1.00D-01 BMatC= 1.34D-05 BMatP= 5.32D-06
 IDIUse=1 WtCom= 1.00D+00 WtEn= 0.00D+00
 Coeff-Com:  0.623D+00 0.377D+00
 Coeff:      0.623D+00 0.377D+00
 Gap=     0.310 Goal=   None    Shift=    0.000
 Gap=     0.154 Goal=   None    Shift=    0.000
 RMSDP=3.74D-06 MaxDP=1.75D-04 DE= 1.22D-06 OVMax= 7.84D-04

 Cycle  10  Pass 1  IDiag  1:
 RMSU=  2.74D-06    CP:  1.00D+00  6.65D-01
 E= -308.277515519995     Delta-E=       -0.000002542165 Rises=F Damp=F
 DIIS: error= 2.87D-05 at cycle   3 NSaved=   3.
 NSaved= 3 IEnMin= 3 EnMin= -308.277515519995     IErMin= 3 ErrMin= 2.87D-05
 ErrMax= 2.87D-05  0.00D+00 EMaxC= 1.00D-01 BMatC= 1.48D-06 BMatP= 5.32D-06
 IDIUse=1 WtCom= 1.00D+00 WtEn= 0.00D+00
 Coeff-Com:  0.289D+00 0.269D+00 0.442D+00
 Coeff:      0.289D+00 0.269D+00 0.442D+00
 Gap=     0.310 Goal=   None    Shift=    0.000
 Gap=     0.154 Goal=   None    Shift=    0.000
 RMSDP=1.15D-06 MaxDP=5.18D-05 DE=-2.54D-06 OVMax= 2.16D-04

 Cycle  11  Pass 1  IDiag  1:
 RMSU=  1.08D-06    CP:  1.00D+00  7.02D-01  9.10D-01
 E= -308.277515778008     Delta-E=       -0.000000258013 Rises=F Damp=F
 DIIS: error= 7.16D-06 at cycle   4 NSaved=   4.
 NSaved= 4 IEnMin= 4 EnMin= -308.277515778008     IErMin= 4 ErrMin= 7.16D-06
 ErrMax= 7.16D-06  0.00D+00 EMaxC= 1.00D-01 BMatC= 1.44D-07 BMatP= 1.48D-06
 IDIUse=1 WtCom= 1.00D+00 WtEn= 0.00D+00
 Coeff-Com: -0.139D+00 0.117D-01 0.816D-01 0.105D+01
 Coeff:     -0.139D+00 0.117D-01 0.816D-01 0.105D+01
 Gap=     0.310 Goal=   None    Shift=    0.000
 Gap=     0.154 Goal=   None    Shift=    0.000
 RMSDP=1.25D-06 MaxDP=7.04D-05 DE=-2.58D-07 OVMax= 4.43D-04

 Cycle  12  Pass 1  IDiag  1:
 RMSU=  8.26D-07    CP:  1.00D+00  7.82D-01  1.05D+00  1.55D+00
 E= -308.277515884794     Delta-E=       -0.000000106786 Rises=F Damp=F
 DIIS: error= 5.43D-06 at cycle   5 NSaved=   5.
 NSaved= 5 IEnMin= 5 EnMin= -308.277515884794     IErMin= 5 ErrMin= 5.43D-06
 ErrMax= 5.43D-06  0.00D+00 EMaxC= 1.00D-01 BMatC= 4.05D-08 BMatP= 1.44D-07
 IDIUse=1 WtCom= 1.00D+00 WtEn= 0.00D+00
 Coeff-Com: -0.904D-01-0.274D-01-0.911D-01 0.369D+00 0.840D+00
 Coeff:     -0.904D-01-0.274D-01-0.911D-01 0.369D+00 0.840D+00
 Gap=     0.310 Goal=   None    Shift=    0.000
 Gap=     0.154 Goal=   None    Shift=    0.000
 RMSDP=7.19D-07 MaxDP=4.59D-05 DE=-1.07D-07 OVMax= 2.95D-04

 Cycle  13  Pass 1  IDiag  1:
 RMSU=  3.35D-07    CP:  1.00D+00  8.17D-01  1.14D+00  1.89D+00  1.47D+00
 E= -308.277515917246     Delta-E=       -0.000000032451 Rises=F Damp=F
 DIIS: error= 3.76D-06 at cycle   6 NSaved=   6.
 NSaved= 6 IEnMin= 6 EnMin= -308.277515917246     IErMin= 6 ErrMin= 3.76D-06
 ErrMax= 3.76D-06  0.00D+00 EMaxC= 1.00D-01 BMatC= 1.13D-08 BMatP= 4.05D-08
 IDIUse=1 WtCom= 1.00D+00 WtEn= 0.00D+00
 Coeff-Com:  0.595D-02-0.140D-01-0.813D-01-0.172D+00 0.371D+00 0.891D+00
 Coeff:      0.595D-02-0.140D-01-0.813D-01-0.172D+00 0.371D+00 0.891D+00
 Gap=     0.310 Goal=   None    Shift=    0.000
 Gap=     0.154 Goal=   None    Shift=    0.000
 RMSDP=6.09D-07 MaxDP=4.39D-05 DE=-3.25D-08 OVMax= 2.78D-04

 Cycle  14  Pass 1  IDiag  1:
 RMSU=  2.29D-07    CP:  1.00D+00  8.35D-01  1.19D+00  2.22D+00  1.91D+00
                    CP:  1.38D+00
 E= -308.277515934799     Delta-E=       -0.000000017553 Rises=F Damp=F
 DIIS: error= 2.69D-06 at cycle   7 NSaved=   7.
 NSaved= 7 IEnMin= 7 EnMin= -308.277515934799     IErMin= 7 ErrMin= 2.69D-06
 ErrMax= 2.69D-06  0.00D+00 EMaxC= 1.00D-01 BMatC= 3.85D-09 BMatP= 1.13D-08
 IDIUse=1 WtCom= 1.00D+00 WtEn= 0.00D+00
 Coeff-Com:  0.218D-01 0.167D-02 0.210D-01-0.114D+00-0.138D+00 0.110D+00
 Coeff-Com:  0.110D+01
 Coeff:      0.218D-01 0.167D-02 0.210D-01-0.114D+00-0.138D+00 0.110D+00
 Coeff:      0.110D+01
 Gap=     0.310 Goal=   None    Shift=    0.000
 Gap=     0.154 Goal=   None    Shift=    0.000
 RMSDP=4.46D-07 MaxDP=3.32D-05 DE=-1.76D-08 OVMax= 2.12D-04

 Cycle  15  Pass 1  IDiag  1:
 RMSU=  9.30D-08    CP:  1.00D+00  8.42D-01  1.23D+00  2.40D+00  2.23D+00
                    CP:  1.97D+00  1.79D+00
 E= -308.277515943449     Delta-E=       -0.000000008651 Rises=F Damp=F
 DIIS: error= 1.77D-06 at cycle   8 NSaved=   8.
 NSaved= 8 IEnMin= 8 EnMin= -308.277515943449     IErMin= 8 ErrMin= 1.77D-06
 ErrMax= 1.77D-06  0.00D+00 EMaxC= 1.00D-01 BMatC= 1.98D-09 BMatP= 3.85D-09
 IDIUse=1 WtCom= 1.00D+00 WtEn= 0.00D+00
 Coeff-Com:  0.496D-02 0.100D-01 0.960D-01 0.934D-01-0.400D+00-0.771D+00
 Coeff-Com:  0.442D+00 0.152D+01
 Coeff:      0.496D-02 0.100D-01 0.960D-01 0.934D-01-0.400D+00-0.771D+00
 Coeff:      0.442D+00 0.152D+01
 Gap=     0.310 Goal=   None    Shift=    0.000
 Gap=     0.154 Goal=   None    Shift=    0.000
 RMSDP=7.14D-07 MaxDP=5.53D-05 DE=-8.65D-09 OVMax= 3.43D-04

 Cycle  16  Pass 1  IDiag  1:
 RMSU=  8.36D-08    CP:  1.00D+00  8.53D-01  1.29D+00  2.66D+00  2.72D+00
                    CP:  2.91D+00  3.00D+00  1.67D+00
 E= -308.277515950199     Delta-E=       -0.000000006750 Rises=F Damp=F
 DIIS: error= 4.78D-07 at cycle   9 NSaved=   9.
 NSaved= 9 IEnMin= 9 EnMin= -308.277515950199     IErMin= 9 ErrMin= 4.78D-07
 ErrMax= 4.78D-07  0.00D+00 EMaxC= 1.00D-01 BMatC= 3.18D-10 BMatP= 1.98D-09
 IDIUse=1 WtCom= 1.00D+00 WtEn= 0.00D+00
 Coeff-Com: -0.111D-02 0.461D-02 0.439D-01 0.649D-01-0.176D+00-0.396D+00
 Coeff-Com:  0.364D-01 0.758D+00 0.666D+00
 Coeff:     -0.111D-02 0.461D-02 0.439D-01 0.649D-01-0.176D+00-0.396D+00
 Coeff:      0.364D-01 0.758D+00 0.666D+00
 Gap=     0.310 Goal=   None    Shift=    0.000
 Gap=     0.154 Goal=   None    Shift=    0.000
 RMSDP=1.41D-07 MaxDP=1.10D-05 DE=-6.75D-09 OVMax= 6.69D-05

 Cycle  17  Pass 1  IDiag  1:
 RMSU=  5.74D-08    CP:  1.00D+00  8.55D-01  1.30D+00  2.72D+00  2.81D+00
                    CP:  3.00D+00  3.00D+00  1.88D+00  1.63D+00
 E= -308.277515950513     Delta-E=       -0.000000000313 Rises=F Damp=F
 DIIS: error= 1.43D-07 at cycle  10 NSaved=  10.
 NSaved=10 IEnMin=10 EnMin= -308.277515950513     IErMin=10 ErrMin= 1.43D-07
 ErrMax= 1.43D-07  0.00D+00 EMaxC= 1.00D-01 BMatC= 2.80D-11 BMatP= 3.18D-10
 IDIUse=1 WtCom= 1.00D+00 WtEn= 0.00D+00
 Coeff-Com: -0.875D-03 0.286D-03-0.736D-04 0.752D-02-0.202D-02-0.197D-01
 Coeff-Com: -0.394D-01 0.320D-01 0.188D+00 0.834D+00
 Coeff:     -0.875D-03 0.286D-03-0.736D-04 0.752D-02-0.202D-02-0.197D-01
 Coeff:     -0.394D-01 0.320D-01 0.188D+00 0.834D+00
 Gap=     0.310 Goal=   None    Shift=    0.000
 Gap=     0.154 Goal=   None    Shift=    0.000
 RMSDP=2.19D-08 MaxDP=1.59D-06 DE=-3.13D-10 OVMax= 9.79D-06

 Cycle  18  Pass 1  IDiag  1:
 RMSU=  9.34D-09    CP:  1.00D+00  8.55D-01  1.30D+00  2.73D+00  2.83D+00
                    CP:  3.00D+00  3.00D+00  1.92D+00  1.76D+00  1.09D+00
 E= -308.277515950528     Delta-E=       -0.000000000015 Rises=F Damp=F
 DIIS: error= 4.63D-08 at cycle  11 NSaved=  11.
 NSaved=11 IEnMin=11 EnMin= -308.277515950528     IErMin=11 ErrMin= 4.63D-08
 ErrMax= 4.63D-08  0.00D+00 EMaxC= 1.00D-01 BMatC= 4.36D-12 BMatP= 2.80D-11
 IDIUse=1 WtCom= 1.00D+00 WtEn= 0.00D+00
 Coeff-Com:  0.919D-04-0.102D-02-0.117D-01-0.147D-01 0.451D-01 0.977D-01
 Coeff-Com: -0.190D-01-0.189D+00-0.132D+00 0.173D+00 0.105D+01
 Coeff:      0.919D-04-0.102D-02-0.117D-01-0.147D-01 0.451D-01 0.977D-01
 Coeff:     -0.190D-01-0.189D+00-0.132D+00 0.173D+00 0.105D+01
 Gap=     0.310 Goal=   None    Shift=    0.000
 Gap=     0.154 Goal=   None    Shift=    0.000
 RMSDP=9.94D-09 MaxDP=7.27D-07 DE=-1.51D-11 OVMax= 4.17D-06

 SCF Done:  E(UB3LYP) =  -308.277515951     A.U. after   18 cycles
            NFock= 18  Conv=0.99D-08     -V/T= 2.0071
 <Sx>= 0.0000 <Sy>= 0.0000 <Sz>= 0.5000 <S**2>= 0.7538 S= 0.5019
 <L.S>=  0.00000000000    
 KE= 3.061006785331D+02 PE=-1.223409871131D+03 EE= 3.572883099168D+02
 Annihilation of the first spin contaminant:
 S**2 before annihilation     0.7538,   after     0.7500
 Leave Link  502 at Thu Apr  7 19:24:13 2022, MaxMem=  1073741824 cpu:             529.8 elap:              66.3
 (Enter /home/saurabh/gaussian/g16/l801.exe)
 DoSCS=F DFT=T ScalE2(SS,OS)=  1.000000  1.000000
 Range of M.O.s used for correlation:     1   306
 NBasis=   306 NAE=    25 NBE=    24 NFC=     0 NFV=     0
 NROrb=    306 NOA=    25 NOB=    24 NVA=   281 NVB=   282

 **** Warning!!: The largest alpha MO coefficient is  0.11600716D+02


 **** Warning!!: The largest beta MO coefficient is  0.11271409D+02

 Leave Link  801 at Thu Apr  7 19:24:13 2022, MaxMem=  1073741824 cpu:               0.2 elap:               0.0
 (Enter /home/saurabh/gaussian/g16/l1101.exe)
 Using compressed storage, NAtomX=    15.
 Will process     16 centers per pass.
 Leave Link 1101 at Thu Apr  7 19:24:13 2022, MaxMem=  1073741824 cpu:               2.1 elap:               0.3
 (Enter /home/saurabh/gaussian/g16/l1102.exe)
 Symmetrizing basis deriv contribution to polar:
 IMax=3 JMax=2 DiffMx= 0.00D+00
 Leave Link 1102 at Thu Apr  7 19:24:13 2022, MaxMem=  1073741824 cpu:               0.3 elap:               0.1
 (Enter /home/saurabh/gaussian/g16/l1110.exe)
 Forming Gx(P) for the SCF density, NAtomX=    15.
 Integral derivatives from FoFJK, PRISM(SPDF).
 Do as many integral derivatives as possible in FoFJK.
 G2DrvN: MDV=    1073740143.
 G2DrvN: will do    16 centers at a time, making    1 passes.
 Calling FoFCou, ICntrl=  3107 FMM=F I1Cent=   0 AccDes= 0.00D+00.
 FoFJK:  IHMeth= 1 ICntrl=    3107 DoSepK=F KAlg= 0 I1Cent=           0 FoldK=F
 IRaf=         0 NMat=       1 IRICut=       1 DoRegI=T DoRafI=F ISym2E= 0 IDoP0=0 IntGTp=1.
 FoFCou: FMM=F IPFlag=           0 FMFlag=      100000 FMFlg1=           0
         NFxFlg=           0 DoJE=F BraDBF=F KetDBF=F FulRan=T
         wScrn=  0.000000 ICntrl=      3107 IOpCl=  1 I1Cent=           0 NGrid=           0
         NMat0=    1 NMatS0=      1 NMatT0=    0 NMatD0=    1 NMtDS0=    0 NMtDT0=    0
 Symmetry not used in FoFCou.
 End of G2Drv F.D. properties file   721 does not exist.
 End of G2Drv F.D. properties file   722 does not exist.
 End of G2Drv F.D. properties file   788 does not exist.
 Leave Link 1110 at Thu Apr  7 19:25:39 2022, MaxMem=  1073741824 cpu:             684.7 elap:              85.6
 (Enter /home/saurabh/gaussian/g16/l1002.exe)
 Minotr:  UHF open shell wavefunction.
          IDoAtm=111111111111111
          Direct CPHF calculation.
          Differentiating once with respect to nuclear coordinates.
          Requested convergence is 1.0D-08 RMS, and 1.0D-07 maximum.
          Secondary convergence is 1.0D-12 RMS, and 1.0D-12 maximum.
          NewPWx=T KeepS1=F KeepF1=F KeepIn=T MapXYZ=F SortEE=F KeepMc=T.
         4457 words used for storage of precomputed grid.
 Two-electron integrals replicated using symmetry.
          MDV=    1073741824 using IRadAn=       1.
          Solving linear equations simultaneously, MaxMat=     384.
 FoF2E skips out because all densities are zero.
 CalDSu exits because no D1Ps are significant.
 FoFJK:  IHMeth= 1 ICntrl=       0 DoSepK=F KAlg= 0 I1Cent=           0 FoldK=F
 IRaf= 970000000 NMat=      45 IRICut=     112 DoRegI=T DoRafI=T ISym2E= 2 IDoP0=3 IntGTp=3.
 FoFCou: FMM=F IPFlag=           0 FMFlag=      100000 FMFlg1=           0
         NFxFlg=           0 DoJE=F BraDBF=F KetDBF=F FulRan=T
         wScrn=  0.000000 ICntrl=         0 IOpCl=  1 I1Cent=           0 NGrid=           0
         NMat0=   45 NMatS0=     45 NMatT0=    0 NMatD0=   45 NMtDS0=    0 NMtDT0=    0
 Integrals replicated using symmetry in FoFCou.
 Raff kept on since  95.15% of shell-pairs survive, threshold=   0.20 IRatSp=95.
          There are    48 degrees of freedom in the 1st order CPHF.  IDoFFX=6 NUNeed=     0.
     42 vectors produced by pass  0 Test12= 2.87D-14 2.08D-09 XBig12= 1.86D-01 1.02D-01.
 AX will form    42 AO Fock derivatives at one time.
     42 vectors produced by pass  1 Test12= 2.87D-14 2.08D-09 XBig12= 1.05D-01 1.21D-01.
     42 vectors produced by pass  2 Test12= 2.87D-14 2.08D-09 XBig12= 2.45D-03 1.16D-02.
     42 vectors produced by pass  3 Test12= 2.87D-14 2.08D-09 XBig12= 2.20D-05 4.76D-04.
     42 vectors produced by pass  4 Test12= 2.87D-14 2.08D-09 XBig12= 1.05D-07 2.74D-05.
     42 vectors produced by pass  5 Test12= 2.87D-14 2.08D-09 XBig12= 6.00D-10 2.62D-06.
     22 vectors produced by pass  6 Test12= 2.87D-14 2.08D-09 XBig12= 2.98D-12 1.67D-07.
      4 vectors produced by pass  7 Test12= 2.87D-14 2.08D-09 XBig12= 1.62D-14 1.16D-08.
 InvSVY:  IOpt=1 It=  1 EMax= 1.78D-15
 Solved reduced A of dimension   278 with    42 vectors.
 End of Minotr F.D. properties file   721 does not exist.
 End of Minotr F.D. properties file   722 does not exist.
 End of Minotr F.D. properties file   788 does not exist.
 Leave Link 1002 at Thu Apr  7 19:28:44 2022, MaxMem=  1073741824 cpu:            1485.4 elap:             185.7
 (Enter /home/saurabh/gaussian/g16/l601.exe)
 Copying SCF densities to generalized density rwf, IOpCl= 1 IROHF=0.

 **********************************************************************

            Population analysis using the SCF Density.

 **********************************************************************

 Orbital symmetries:
 Alpha Orbitals:
       Occupied  (A) (A) (A) (A) (A) (A) (A) (A) (A) (A) (A) (A)
                 (A) (A) (A) (A) (A) (A) (A) (A) (A) (A) (A) (A)
                 (A)
       Virtual   (A) (A) (A) (A) (A) (A) (A) (A) (A) (A) (A) (A)
                 (A) (A) (A) (A) (A) (A) (A) (A) (A) (A) (A) (A)
                 (A) (A) (A) (A) (A) (A) (A) (A) (A) (A) (A) (A)
                 (A) (A) (A) (A) (A) (A) (A) (A) (A) (A) (A) (A)
                 (A) (A) (A) (A) (A) (A) (A) (A) (A) (A) (A) (A)
                 (A) (A) (A) (A) (A) (A) (A) (A) (A) (A) (A) (A)
                 (A) (A) (A) (A) (A) (A) (A) (A) (A) (A) (A) (A)
                 (A) (A) (A) (A) (A) (A) (A) (A) (A) (A) (A) (A)
                 (A) (A) (A) (A) (A) (A) (A) (A) (A) (A) (A) (A)
                 (A) (A) (A) (A) (A) (A) (A) (A) (A) (A) (A) (A)
                 (A) (A) (A) (A) (A) (A) (A) (A) (A) (A) (A) (A)
                 (A) (A) (A) (A) (A) (A) (A) (A) (A) (A) (A) (A)
                 (A) (A) (A) (A) (A) (A) (A) (A) (A) (A) (A) (A)
                 (A) (A) (A) (A) (A) (A) (A) (A) (A) (A) (A) (A)
                 (A) (A) (A) (A) (A) (A) (A) (A) (A) (A) (A) (A)
                 (A) (A) (A) (A) (A) (A) (A) (A) (A) (A) (A) (A)
                 (A) (A) (A) (A) (A) (A) (A) (A) (A) (A) (A) (A)
                 (A) (A) (A) (A) (A) (A) (A) (A) (A) (A) (A) (A)
                 (A) (A) (A) (A) (A) (A) (A) (A) (A) (A) (A) (A)
                 (A) (A) (A) (A) (A) (A) (A) (A) (A) (A) (A) (A)
                 (A) (A) (A) (A) (A) (A) (A) (A) (A) (A) (A) (A)
                 (A) (A) (A) (A) (A) (A) (A) (A) (A) (A) (A) (A)
                 (A) (A) (A) (A) (A) (A) (A) (A) (A) (A) (A) (A)
                 (A) (A) (A) (A) (A)
 Beta  Orbitals:
       Occupied  (A) (A) (A) (A) (A) (A) (A) (A) (A) (A) (A) (A)
                 (A) (A) (A) (A) (A) (A) (A) (A) (A) (A) (A) (A)
       Virtual   (A) (A) (A) (A) (A) (A) (A) (A) (A) (A) (A) (A)
                 (A) (A) (A) (A) (A) (A) (A) (A) (A) (A) (A) (A)
                 (A) (A) (A) (A) (A) (A) (A) (A) (A) (A) (A) (A)
                 (A) (A) (A) (A) (A) (A) (A) (A) (A) (A) (A) (A)
                 (A) (A) (A) (A) (A) (A) (A) (A) (A) (A) (A) (A)
                 (A) (A) (A) (A) (A) (A) (A) (A) (A) (A) (A) (A)
                 (A) (A) (A) (A) (A) (A) (A) (A) (A) (A) (A) (A)
                 (A) (A) (A) (A) (A) (A) (A) (A) (A) (A) (A) (A)
                 (A) (A) (A) (A) (A) (A) (A) (A) (A) (A) (A) (A)
                 (A) (A) (A) (A) (A) (A) (A) (A) (A) (A) (A) (A)
                 (A) (A) (A) (A) (A) (A) (A) (A) (A) (A) (A) (A)
                 (A) (A) (A) (A) (A) (A) (A) (A) (A) (A) (A) (A)
                 (A) (A) (A) (A) (A) (A) (A) (A) (A) (A) (A) (A)
                 (A) (A) (A) (A) (A) (A) (A) (A) (A) (A) (A) (A)
                 (A) (A) (A) (A) (A) (A) (A) (A) (A) (A) (A) (A)
                 (A) (A) (A) (A) (A) (A) (A) (A) (A) (A) (A) (A)
                 (A) (A) (A) (A) (A) (A) (A) (A) (A) (A) (A) (A)
                 (A) (A) (A) (A) (A) (A) (A) (A) (A) (A) (A) (A)
                 (A) (A) (A) (A) (A) (A) (A) (A) (A) (A) (A) (A)
                 (A) (A) (A) (A) (A) (A) (A) (A) (A) (A) (A) (A)
                 (A) (A) (A) (A) (A) (A) (A) (A) (A) (A) (A) (A)
                 (A) (A) (A) (A) (A) (A) (A) (A) (A) (A) (A) (A)
                 (A) (A) (A) (A) (A) (A) (A) (A) (A) (A) (A) (A)
                 (A) (A) (A) (A) (A) (A)
 The electronic state is 2-A.
 Alpha  occ. eigenvalues --  -19.25301 -19.19745 -10.24130 -10.19741 -10.18173
 Alpha  occ. eigenvalues --  -10.17571  -1.20425  -0.89397  -0.80739  -0.69317
 Alpha  occ. eigenvalues --   -0.68007  -0.58428  -0.52907  -0.51999  -0.50407
 Alpha  occ. eigenvalues --   -0.45965  -0.43539  -0.41377  -0.39700  -0.38454
 Alpha  occ. eigenvalues --   -0.35832  -0.34861  -0.34249  -0.28895  -0.28352
 Alpha virt. eigenvalues --    0.02682   0.05617   0.06486   0.06653   0.08807
 Alpha virt. eigenvalues --    0.09177   0.10897   0.11295   0.13117   0.13618
 Alpha virt. eigenvalues --    0.15053   0.16048   0.18358   0.19986   0.23925
 Alpha virt. eigenvalues --    0.25658   0.28293   0.28717   0.30350   0.33519
 Alpha virt. eigenvalues --    0.35369   0.35801   0.40212   0.41021   0.41302
 Alpha virt. eigenvalues --    0.42808   0.43471   0.44066   0.44752   0.44948
 Alpha virt. eigenvalues --    0.46064   0.46359   0.47223   0.47468   0.48589
 Alpha virt. eigenvalues --    0.52659   0.55475   0.56606   0.59705   0.60695
 Alpha virt. eigenvalues --    0.64172   0.66803   0.69320   0.71122   0.74492
 Alpha virt. eigenvalues --    0.76240   0.77931   0.79291   0.81269   0.83342
 Alpha virt. eigenvalues --    0.84726   0.88322   0.89557   0.89842   0.93591
 Alpha virt. eigenvalues --    0.97596   0.99193   1.00246   1.00680   1.02263
 Alpha virt. eigenvalues --    1.03079   1.06587   1.08405   1.10211   1.11252
 Alpha virt. eigenvalues --    1.12985   1.13655   1.16293   1.17355   1.18678
 Alpha virt. eigenvalues --    1.20187   1.21991   1.22866   1.24616   1.27285
 Alpha virt. eigenvalues --    1.27896   1.28544   1.29189   1.30874   1.33827
 Alpha virt. eigenvalues --    1.36212   1.37276   1.39560   1.41222   1.43159
 Alpha virt. eigenvalues --    1.43995   1.45848   1.47458   1.48897   1.50420
 Alpha virt. eigenvalues --    1.51820   1.54838   1.60428   1.63977   1.66243
 Alpha virt. eigenvalues --    1.69198   1.69935   1.79836   1.92528   1.97971
 Alpha virt. eigenvalues --    2.06841   2.10445   2.19792   2.21074   2.25532
 Alpha virt. eigenvalues --    2.27781   2.30930   2.31944   2.32301   2.36079
 Alpha virt. eigenvalues --    2.39026   2.46341   2.47739   2.50316   2.52360
 Alpha virt. eigenvalues --    2.53710   2.58436   2.59124   2.60112   2.61193
 Alpha virt. eigenvalues --    2.65744   2.68303   2.69840   2.72874   2.76250
 Alpha virt. eigenvalues --    2.76961   2.78166   2.79117   2.80210   2.84875
 Alpha virt. eigenvalues --    2.88439   2.90108   2.91791   2.93728   2.95799
 Alpha virt. eigenvalues --    2.97858   2.99204   3.00275   3.03443   3.04622
 Alpha virt. eigenvalues --    3.06725   3.06811   3.08439   3.09532   3.10388
 Alpha virt. eigenvalues --    3.11400   3.12333   3.12924   3.16183   3.24689
 Alpha virt. eigenvalues --    3.25851   3.28796   3.29389   3.32925   3.33061
 Alpha virt. eigenvalues --    3.34810   3.38244   3.38721   3.40761   3.42530
 Alpha virt. eigenvalues --    3.43324   3.45854   3.46513   3.48638   3.50148
 Alpha virt. eigenvalues --    3.53037   3.54779   3.57002   3.58563   3.60261
 Alpha virt. eigenvalues --    3.62481   3.66128   3.68960   3.72157   3.73918
 Alpha virt. eigenvalues --    3.75270   3.77345   3.78021   3.79164   3.81002
 Alpha virt. eigenvalues --    3.81716   3.85035   3.87999   3.90145   3.92779
 Alpha virt. eigenvalues --    3.94181   3.96347   3.98216   3.99258   4.00231
 Alpha virt. eigenvalues --    4.00937   4.04523   4.08052   4.08781   4.09852
 Alpha virt. eigenvalues --    4.10011   4.12536   4.13433   4.14569   4.16365
 Alpha virt. eigenvalues --    4.19407   4.21135   4.21681   4.26657   4.27944
 Alpha virt. eigenvalues --    4.32186   4.33068   4.36613   4.39848   4.41384
 Alpha virt. eigenvalues --    4.48253   4.53733   4.54489   4.55392   4.60507
 Alpha virt. eigenvalues --    4.61453   4.65126   4.68332   4.72604   4.74598
 Alpha virt. eigenvalues --    4.75607   4.79369   4.79996   4.81725   4.82675
 Alpha virt. eigenvalues --    4.86173   4.89030   4.91417   4.94955   4.97707
 Alpha virt. eigenvalues --    5.04448   5.07884   5.09057   5.09531   5.11208
 Alpha virt. eigenvalues --    5.12309   5.12602   5.13698   5.17024   5.19079
 Alpha virt. eigenvalues --    5.24175   5.25259   5.27860   5.28636   5.29751
 Alpha virt. eigenvalues --    5.30546   5.33878   5.36371   5.39450   5.40981
 Alpha virt. eigenvalues --    5.46054   5.50377   5.60016   5.68503   5.74385
 Alpha virt. eigenvalues --    5.83320   5.85255   5.86563   5.86900   5.91718
 Alpha virt. eigenvalues --    5.95148   6.04063   6.14094   6.24340   6.27136
 Alpha virt. eigenvalues --    6.31290   6.41825   6.43529   6.65624   6.76172
 Alpha virt. eigenvalues --    6.80117   7.01386   7.07641   7.27574   7.39669
 Alpha virt. eigenvalues --    9.42106  10.84022  11.22984  12.43930  13.15720
 Alpha virt. eigenvalues --   13.20770
  Beta  occ. eigenvalues --  -19.24334 -19.17815 -10.24166 -10.19700 -10.18174
  Beta  occ. eigenvalues --  -10.17572  -1.17869  -0.86512  -0.79994  -0.69284
  Beta  occ. eigenvalues --   -0.67178  -0.57910  -0.51851  -0.50506  -0.47691
  Beta  occ. eigenvalues --   -0.45534  -0.41634  -0.40144  -0.39555  -0.38249
  Beta  occ. eigenvalues --   -0.34860  -0.34237  -0.33577  -0.27147
  Beta virt. eigenvalues --   -0.11746   0.02730   0.05637   0.06568   0.06928
  Beta virt. eigenvalues --    0.09164   0.09335   0.11343   0.11537   0.13312
  Beta virt. eigenvalues --    0.13751   0.15358   0.16198   0.18841   0.20131
  Beta virt. eigenvalues --    0.23952   0.25741   0.28400   0.28776   0.30429
  Beta virt. eigenvalues --    0.33837   0.35464   0.35980   0.40316   0.41084
  Beta virt. eigenvalues --    0.41353   0.42879   0.43580   0.44160   0.44909
  Beta virt. eigenvalues --    0.45000   0.46111   0.46438   0.47281   0.47563
  Beta virt. eigenvalues --    0.48628   0.52973   0.56308   0.57231   0.59833
  Beta virt. eigenvalues --    0.61013   0.64641   0.68405   0.70673   0.71316
  Beta virt. eigenvalues --    0.74590   0.76330   0.78391   0.79545   0.81561
  Beta virt. eigenvalues --    0.83881   0.84833   0.88377   0.89655   0.89909
  Beta virt. eigenvalues --    0.93658   0.97760   0.99296   1.00346   1.00981
  Beta virt. eigenvalues --    1.02321   1.03229   1.06649   1.08509   1.10343
  Beta virt. eigenvalues --    1.11345   1.13059   1.13832   1.16586   1.17657
  Beta virt. eigenvalues --    1.19011   1.20484   1.22259   1.23018   1.24793
  Beta virt. eigenvalues --    1.27583   1.28054   1.28615   1.29450   1.31066
  Beta virt. eigenvalues --    1.34300   1.36473   1.37426   1.39831   1.41403
  Beta virt. eigenvalues --    1.43378   1.44254   1.46553   1.48500   1.49089
  Beta virt. eigenvalues --    1.51553   1.52156   1.55289   1.60971   1.64167
  Beta virt. eigenvalues --    1.67599   1.69856   1.70607   1.80546   1.93592
  Beta virt. eigenvalues --    1.99340   2.08195   2.12362   2.20244   2.21261
  Beta virt. eigenvalues --    2.25885   2.28096   2.31000   2.32098   2.32710
  Beta virt. eigenvalues --    2.36307   2.39243   2.46412   2.47801   2.50370
  Beta virt. eigenvalues --    2.52422   2.53757   2.58533   2.59211   2.60176
  Beta virt. eigenvalues --    2.61219   2.65873   2.68344   2.69873   2.72948
  Beta virt. eigenvalues --    2.76282   2.77196   2.78198   2.79184   2.80239
  Beta virt. eigenvalues --    2.84929   2.88478   2.90245   2.91888   2.93821
  Beta virt. eigenvalues --    2.95820   2.97885   2.99310   3.00334   3.03503
  Beta virt. eigenvalues --    3.04699   3.06761   3.06885   3.08467   3.09597
  Beta virt. eigenvalues --    3.10461   3.11481   3.12386   3.13040   3.16255
  Beta virt. eigenvalues --    3.24802   3.25920   3.29028   3.29575   3.33013
  Beta virt. eigenvalues --    3.33105   3.34858   3.38348   3.38777   3.40921
  Beta virt. eigenvalues --    3.42697   3.43349   3.46046   3.46702   3.48731
  Beta virt. eigenvalues --    3.50451   3.53518   3.54978   3.57512   3.58668
  Beta virt. eigenvalues --    3.62492   3.62942   3.66217   3.71536   3.72653
  Beta virt. eigenvalues --    3.74317   3.76069   3.77872   3.78252   3.79216
  Beta virt. eigenvalues --    3.81077   3.82134   3.85583   3.88278   3.90263
  Beta virt. eigenvalues --    3.92835   3.94641   3.96473   3.98270   3.99293
  Beta virt. eigenvalues --    4.00508   4.01521   4.04601   4.08231   4.08957
  Beta virt. eigenvalues --    4.10060   4.10122   4.12585   4.13530   4.14936
  Beta virt. eigenvalues --    4.16526   4.19522   4.21224   4.21944   4.26709
  Beta virt. eigenvalues --    4.28012   4.32248   4.33130   4.36790   4.39929
  Beta virt. eigenvalues --    4.41492   4.48438   4.54036   4.54677   4.55701
  Beta virt. eigenvalues --    4.60716   4.62103   4.65443   4.70843   4.72869
  Beta virt. eigenvalues --    4.74815   4.75911   4.79724   4.80276   4.82636
  Beta virt. eigenvalues --    4.83038   4.87260   4.89567   4.91792   4.95721
  Beta virt. eigenvalues --    4.98442   5.06150   5.08678   5.09571   5.10044
  Beta virt. eigenvalues --    5.12598   5.13720   5.14670   5.15940   5.17644
  Beta virt. eigenvalues --    5.20211   5.24221   5.25471   5.28171   5.28813
  Beta virt. eigenvalues --    5.29837   5.31127   5.34171   5.37116   5.39574
  Beta virt. eigenvalues --    5.41096   5.46296   5.50587   5.61812   5.69748
  Beta virt. eigenvalues --    5.74691   5.84473   5.85401   5.86668   5.86948
  Beta virt. eigenvalues --    5.92478   5.95418   6.06352   6.19086   6.26278
  Beta virt. eigenvalues --    6.32213   6.36914   6.45538   6.46850   6.66798
  Beta virt. eigenvalues --    6.78730   6.82473   7.03918   7.10031   7.28025
  Beta virt. eigenvalues --    7.40875   9.45032  10.85022  11.23748  12.43977
  Beta virt. eigenvalues --   13.15727  13.20774
          Condensed to atoms (all electrons):
               1          2          3          4          5          6
     1  C    4.892793   0.322373  -0.036567  -0.053714   0.402278   0.397121
     2  C    0.322373   4.997463   0.338362   0.333303  -0.038333  -0.036549
     3  C   -0.036567   0.338362   4.759272  -0.049383  -0.002938  -0.003959
     4  C   -0.053714   0.333303  -0.049383   4.889400   0.008269  -0.005899
     5  H    0.402278  -0.038333  -0.002938   0.008269   0.601706  -0.030790
     6  H    0.397121  -0.036549  -0.003959  -0.005899  -0.030790   0.611079
     7  H    0.397968  -0.029891   0.005379  -0.004284  -0.028627  -0.029603
     8  H   -0.032939   0.402586  -0.033492  -0.037123  -0.005415   0.007253
     9  H   -0.005671  -0.038760  -0.002654   0.396926  -0.000136   0.005412
    10  H    0.008838  -0.033450  -0.006838   0.400132  -0.000499  -0.000152
    11  H   -0.005745  -0.034427   0.007014   0.400232  -0.000063  -0.000487
    12  O    0.002352  -0.038800   0.279664  -0.004145   0.000137   0.000108
    13  O   -0.000333  -0.005607  -0.067753   0.000046  -0.000087  -0.000051
    14  H   -0.004034  -0.038916   0.386538  -0.005140  -0.000665   0.004434
    15  H    0.002503  -0.053426   0.412415   0.007735   0.004106  -0.001063
               7          8          9         10         11         12
     1  C    0.397968  -0.032939  -0.005671   0.008838  -0.005745   0.002352
     2  C   -0.029891   0.402586  -0.038760  -0.033450  -0.034427  -0.038800
     3  C    0.005379  -0.033492  -0.002654  -0.006838   0.007014   0.279664
     4  C   -0.004284  -0.037123   0.396926   0.400132   0.400232  -0.004145
     5  H   -0.028627  -0.005415  -0.000136  -0.000499  -0.000063   0.000137
     6  H   -0.029603   0.007253   0.005412  -0.000152  -0.000487   0.000108
     7  H    0.594497  -0.004939  -0.000605  -0.000073   0.004476  -0.000282
     8  H   -0.004939   0.594971   0.007303  -0.003885  -0.004813  -0.007342
     9  H   -0.000605   0.007303   0.613020  -0.027953  -0.030206  -0.000114
    10  H   -0.000073  -0.003885  -0.027953   0.580352  -0.028667   0.008976
    11  H    0.004476  -0.004813  -0.030206  -0.028667   0.602793   0.000001
    12  O   -0.000282  -0.007342  -0.000114   0.008976   0.000001   7.730559
    13  O    0.000026   0.013796   0.000011   0.000687  -0.000075   0.118886
    14  H   -0.000304   0.007791   0.004306  -0.000209  -0.000029  -0.018197
    15  H    0.000015  -0.004705  -0.000283   0.000554  -0.000281  -0.035940
              13         14         15
     1  C   -0.000333  -0.004034   0.002503
     2  C   -0.005607  -0.038916  -0.053426
     3  C   -0.067753   0.386538   0.412415
     4  C    0.000046  -0.005140   0.007735
     5  H   -0.000087  -0.000665   0.004106
     6  H   -0.000051   0.004434  -0.001063
     7  H    0.000026  -0.000304   0.000015
     8  H    0.013796   0.007791  -0.004705
     9  H    0.000011   0.004306  -0.000283
    10  H    0.000687  -0.000209   0.000554
    11  H   -0.000075  -0.000029  -0.000281
    12  O    0.118886  -0.018197  -0.035940
    13  O    8.099303   0.007868   0.009278
    14  H    0.007868   0.614670  -0.033420
    15  H    0.009278  -0.033420   0.604666
          Atomic-Atomic Spin Densities.
               1          2          3          4          5          6
     1  C   -0.004635   0.003672  -0.000373  -0.000230  -0.000240  -0.000292
     2  C    0.003672   0.044531  -0.002345  -0.002585   0.000509  -0.001045
     3  C   -0.000373  -0.002345  -0.031454   0.001049  -0.000174   0.000400
     4  C   -0.000230  -0.002585   0.001049  -0.002403  -0.000043   0.000190
     5  H   -0.000240   0.000509  -0.000174  -0.000043  -0.000140  -0.000089
     6  H   -0.000292  -0.001045   0.000400   0.000190  -0.000089   0.001282
     7  H    0.001280  -0.001627  -0.000262   0.000121   0.000164  -0.000592
     8  H   -0.000080   0.002399   0.001545  -0.000069   0.000024  -0.000048
     9  H   -0.000136  -0.000449   0.000356   0.000348  -0.000006   0.000085
    10  H   -0.000285   0.000726   0.000036   0.001398  -0.000008   0.000006
    11  H    0.000130   0.000009  -0.000097   0.000089   0.000005   0.000017
    12  O   -0.000189  -0.015761   0.009721   0.003401  -0.000022   0.000050
    13  O   -0.000034   0.007879  -0.005387  -0.000268   0.000008  -0.000009
    14  H    0.000160  -0.006195   0.003484   0.000457  -0.000022   0.000376
    15  H    0.000295  -0.008799   0.002894   0.000326  -0.000141   0.000426
               7          8          9         10         11         12
     1  C    0.001280  -0.000080  -0.000136  -0.000285   0.000130  -0.000189
     2  C   -0.001627   0.002399  -0.000449   0.000726   0.000009  -0.015761
     3  C   -0.000262   0.001545   0.000356   0.000036  -0.000097   0.009721
     4  C    0.000121  -0.000069   0.000348   0.001398   0.000089   0.003401
     5  H    0.000164   0.000024  -0.000006  -0.000008   0.000005  -0.000022
     6  H   -0.000592  -0.000048   0.000085   0.000006   0.000017   0.000050
     7  H    0.002063   0.000198  -0.000039   0.000031  -0.000091  -0.000025
     8  H    0.000198  -0.003062  -0.000066   0.000018   0.000094  -0.000746
     9  H   -0.000039  -0.000066  -0.000007  -0.000167   0.000115   0.000172
    10  H    0.000031   0.000018  -0.000167  -0.000952   0.000057  -0.001634
    11  H   -0.000091   0.000094   0.000115   0.000057  -0.000637   0.000093
    12  O   -0.000025  -0.000746   0.000172  -0.001634   0.000093   0.429460
    13  O    0.000021   0.000249  -0.000038  -0.000452  -0.000012  -0.131139
    14  H   -0.000065  -0.000342   0.000137  -0.000033   0.000012  -0.001211
    15  H   -0.000187  -0.000557   0.000075  -0.000048   0.000001  -0.004004
              13         14         15
     1  C   -0.000034   0.000160   0.000295
     2  C    0.007879  -0.006195  -0.008799
     3  C   -0.005387   0.003484   0.002894
     4  C   -0.000268   0.000457   0.000326
     5  H    0.000008  -0.000022  -0.000141
     6  H   -0.000009   0.000376   0.000426
     7  H    0.000021  -0.000065  -0.000187
     8  H    0.000249  -0.000342  -0.000557
     9  H   -0.000038   0.000137   0.000075
    10  H   -0.000452  -0.000033  -0.000048
    11  H   -0.000012   0.000012   0.000001
    12  O   -0.131139  -0.001211  -0.004004
    13  O    0.825422  -0.000092   0.002568
    14  H   -0.000092   0.002597   0.002553
    15  H    0.002568   0.002553   0.014777
 Mulliken charges and spin densities:
               1          2
     1  C   -0.287223  -0.000957
     2  C   -0.045929   0.020919
     3  C    0.014940  -0.020607
     4  C   -0.276355   0.001781
     5  H    0.091057  -0.000175
     6  H    0.083146   0.000756
     7  H    0.096248   0.000989
     8  H    0.100953  -0.000442
     9  H    0.079403   0.000380
    10  H    0.102187  -0.001307
    11  H    0.090277  -0.000215
    12  O   -0.035862   0.288166
    13  O   -0.175994   0.698717
    14  H    0.075307   0.001815
    15  H    0.087843   0.010179
 Sum of Mulliken charges =  -0.00000   1.00000
 Mulliken charges and spin densities with hydrogens summed into heavy atoms:
               1          2
     1  C   -0.016772   0.000613
     2  C    0.055024   0.020477
     3  C    0.178091  -0.008612
     4  C   -0.004488   0.000640
    12  O   -0.035862   0.288166
    13  O   -0.175994   0.698717
 APT charges:
               1
     1  C   -1.089589
     2  C   -0.159044
     3  C   -0.614654
     4  C   -1.017496
     5  H    0.320019
     6  H    0.311874
     7  H    0.434463
     8  H    0.280470
     9  H    0.304388
    10  H    0.264602
    11  H    0.426637
    12  O    0.022539
    13  O   -0.109337
    14  H    0.302745
    15  H    0.322385
 Sum of APT charges =  -0.00000
 APT charges with hydrogens summed into heavy atoms:
               1
     1  C   -0.023235
     2  C    0.121426
     3  C    0.010476
     4  C   -0.021869
    12  O    0.022539
    13  O   -0.109337
 Electronic spatial extent (au):  <R**2>=            685.9346
 Charge=             -0.0000 electrons
 Dipole moment (field-independent basis, Debye):
    X=              2.3078    Y=             -0.5998    Z=              0.7887  Tot=              2.5115
 Quadrupole moment (field-independent basis, Debye-Ang):
   XX=            -43.1790   YY=            -37.6975   ZZ=            -37.3844
   XY=              0.6888   XZ=             -1.6224   YZ=             -0.8964
 Traceless Quadrupole moment (field-independent basis, Debye-Ang):
   XX=             -3.7587   YY=              1.7228   ZZ=              2.0359
   XY=              0.6888   XZ=             -1.6224   YZ=             -0.8964
 Octapole moment (field-independent basis, Debye-Ang**2):
  XXX=             -4.5404  YYY=             -2.2981  ZZZ=              0.7334  XYY=             -6.9040
  XXY=             -0.0615  XXZ=              1.5096  XZZ=             -3.1091  YZZ=              0.0169
  YYZ=             -0.6774  XYZ=              0.6877
 Hexadecapole moment (field-independent basis, Debye-Ang**3):
 XXXX=           -581.3347 YYYY=           -224.6937 ZZZZ=           -104.8893 XXXY=              6.4528
 XXXZ=             -9.1694 YYYX=             -0.4268 YYYZ=              0.3290 ZZZX=              3.4233
 ZZZY=              0.3291 XXYY=           -131.9562 XXZZ=           -110.2228 YYZZ=            -56.9073
 XXYZ=             -2.0674 YYXZ=             -0.3639 ZZXY=              1.0635
 N-N= 2.517433667307D+02 E-N=-1.223409876229D+03  KE= 3.061006785331D+02
  Exact polarizability:       0.000       0.000       0.000       0.000       0.000       0.000
 Approx polarizability:      83.974       1.151      76.236       8.959       2.726      86.527
                          Isotropic Fermi Contact Couplings
        Atom                 a.u.       MegaHertz       Gauss      10(-4) cm-1
     1  C(13)             -0.00098      -1.10426      -0.39403      -0.36834
     2  C(13)              0.00565       6.35291       2.26688       2.11910
     3  C(13)             -0.01111     -12.49476      -4.45844      -4.16780
     4  C(13)              0.00037       0.41770       0.14904       0.13933
     5  H(1)              -0.00001      -0.03873      -0.01382      -0.01292
     6  H(1)               0.00017       0.76870       0.27429       0.25641
     7  H(1)               0.00050       2.23254       0.79663       0.74470
     8  H(1)               0.00035       1.58620       0.56600       0.52910
     9  H(1)               0.00014       0.62447       0.22283       0.20830
    10  H(1)               0.00007       0.32819       0.11711       0.10947
    11  H(1)              -0.00003      -0.12809      -0.04571      -0.04273
    12  O(17)              0.03787     -22.95391      -8.19053      -7.65660
    13  O(17)              0.04056     -24.58697      -8.77324      -8.20133
    14  H(1)               0.00081       3.63454       1.29689       1.21235
    15  H(1)               0.00291      13.02949       4.64925       4.34617
 --------------------------------------------------------
       Center         ----  Spin Dipole Couplings  ----
                      3XX-RR        3YY-RR        3ZZ-RR
 --------------------------------------------------------
     1   Atom        0.004557     -0.002047     -0.002510
     2   Atom        0.011223     -0.020461      0.009237
     3   Atom        0.014861     -0.009861     -0.005000
     4   Atom        0.005845     -0.002002     -0.003843
     5   Atom        0.002467     -0.000448     -0.002019
     6   Atom        0.002697     -0.001436     -0.001261
     7   Atom        0.002584     -0.001260     -0.001324
     8   Atom        0.011516     -0.008893     -0.002623
     9   Atom        0.003035     -0.001256     -0.001779
    10   Atom        0.002307      0.002811     -0.005118
    11   Atom        0.002577     -0.000666     -0.001911
    12   Atom       -0.101182      0.199170     -0.097988
    13   Atom       -0.196501      0.343257     -0.146756
    14   Atom        0.004109     -0.005315      0.001207
    15   Atom        0.002217      0.004436     -0.006653
 --------------------------------------------------------
                        XY            XZ            YZ
 --------------------------------------------------------
     1   Atom       -0.002194     -0.000355      0.000300
     2   Atom        0.003795     -0.023318     -0.006332
     3   Atom       -0.015091      0.008120     -0.002961
     4   Atom        0.004353      0.000570     -0.000041
     5   Atom       -0.002383     -0.000203      0.000075
     6   Atom       -0.001003      0.001248     -0.000354
     7   Atom       -0.000476     -0.000533     -0.000071
     8   Atom       -0.000357     -0.004999      0.000957
     9   Atom        0.002681      0.001994      0.001118
    10   Atom        0.007871     -0.000404     -0.000411
    11   Atom        0.002286     -0.000559     -0.000257
    12   Atom        0.812489     -0.698303     -0.874424
    13   Atom        1.578592     -1.373733     -1.612138
    14   Atom       -0.004145      0.010371     -0.004036
    15   Atom       -0.013474      0.005930     -0.005007
 --------------------------------------------------------


 ---------------------------------------------------------------------------------
              Anisotropic Spin Dipole Couplings in Principal Axis System
 ---------------------------------------------------------------------------------

       Atom             a.u.   MegaHertz   Gauss  10(-4) cm-1        Axes

              Baa    -0.0028    -0.379    -0.135    -0.126  0.2174  0.8177 -0.5331
     1 C(13)  Bbb    -0.0024    -0.324    -0.116    -0.108  0.1994  0.4974  0.8443
              Bcc     0.0052     0.704     0.251     0.235  0.9555 -0.2898 -0.0550
 
              Baa    -0.0218    -2.927    -1.044    -0.976  0.0599  0.9683  0.2425
     2 C(13)  Bbb    -0.0127    -1.702    -0.607    -0.568  0.6993 -0.2141  0.6820
              Bcc     0.0345     4.629     1.652     1.544  0.7123  0.1287 -0.6899
 
              Baa    -0.0171    -2.291    -0.817    -0.764  0.4422  0.8935 -0.0783
     3 C(13)  Bbb    -0.0074    -0.999    -0.357    -0.333 -0.2184  0.1919  0.9568
              Bcc     0.0245     3.290     1.174     1.097  0.8699 -0.4060  0.2800
 
              Baa    -0.0042    -0.560    -0.200    -0.187 -0.3318  0.6778  0.6561
     4 C(13)  Bbb    -0.0036    -0.487    -0.174    -0.162  0.2366 -0.6135  0.7534
              Bcc     0.0078     1.047     0.374     0.349  0.9132  0.4052  0.0433
 
              Baa    -0.0020    -1.084    -0.387    -0.361  0.0983  0.1011  0.9900
     5 H(1)   Bbb    -0.0018    -0.949    -0.339    -0.317  0.4799  0.8667 -0.1362
              Bcc     0.0038     2.033     0.725     0.678  0.8718 -0.4885 -0.0366
 
              Baa    -0.0017    -0.914    -0.326    -0.305  0.0231  0.8176  0.5754
     6 H(1)   Bbb    -0.0016    -0.844    -0.301    -0.282 -0.3497 -0.5326  0.7708
              Bcc     0.0033     1.759     0.628     0.587  0.9366 -0.2190  0.2736
 
              Baa    -0.0015    -0.797    -0.284    -0.266  0.1719  0.5906  0.7884
     7 H(1)   Bbb    -0.0012    -0.649    -0.232    -0.217  0.0157  0.7986 -0.6016
              Bcc     0.0027     1.446     0.516     0.482  0.9850 -0.1158 -0.1281
 
              Baa    -0.0090    -4.826    -1.722    -1.610 -0.0230  0.9861 -0.1648
     8 H(1)   Bbb    -0.0041    -2.176    -0.776    -0.726  0.3046  0.1639  0.9383
              Bcc     0.0131     7.002     2.498     2.336  0.9522 -0.0286 -0.3041
 
              Baa    -0.0027    -1.429    -0.510    -0.477 -0.1152  0.7391 -0.6636
     9 H(1)   Bbb    -0.0024    -1.283    -0.458    -0.428 -0.5096  0.5295  0.6782
              Bcc     0.0051     2.711     0.967     0.904  0.8527  0.4163  0.3156
 
              Baa    -0.0053    -2.837    -1.012    -0.946  0.7188 -0.6948  0.0262
    10 H(1)   Bbb    -0.0051    -2.742    -0.978    -0.915  0.0069  0.0448  0.9990
              Bcc     0.0105     5.579     1.991     1.861  0.6952  0.7178 -0.0370
 
              Baa    -0.0020    -1.058    -0.377    -0.353  0.1859 -0.1328  0.9736
    11 H(1)   Bbb    -0.0018    -0.982    -0.351    -0.328 -0.4297  0.8801  0.2021
              Bcc     0.0038     2.040     0.728     0.681  0.8836  0.4559 -0.1065
 
              Baa    -0.8373    60.589    21.620    20.210  0.1035  0.5927  0.7988
    12 O(17)  Bbb    -0.7714    55.818    19.917    18.619  0.8411 -0.4808  0.2478
              Bcc     1.6087  -116.408   -41.537   -38.829  0.5309  0.6462 -0.5483
 
              Baa    -1.5459   111.859    39.914    37.312  0.6573  0.0893  0.7483
    13 O(17)  Bbb    -1.5237   110.257    39.342    36.778 -0.5262  0.7652  0.3709
              Bcc     3.0696  -222.116   -79.256   -74.090  0.5395  0.6376 -0.5500
 
              Baa    -0.0079    -4.224    -1.507    -1.409 -0.5604  0.3028  0.7709
    14 H(1)   Bbb    -0.0069    -3.666    -1.308    -1.223  0.4048  0.9122 -0.0640
              Bcc     0.0148     7.891     2.816     2.632  0.7225 -0.2762  0.6337
 
              Baa    -0.0107    -5.705    -2.036    -1.903  0.7347  0.5042 -0.4538
    15 H(1)   Bbb    -0.0085    -4.511    -1.610    -1.505  0.1725  0.5081  0.8438
              Bcc     0.0191    10.216     3.645     3.408 -0.6560  0.6983 -0.2863
 

 ---------------------------------------------------------------------------------

 No NMR shielding tensors so no spin-rotation constants.
 Leave Link  601 at Thu Apr  7 19:28:45 2022, MaxMem=  1073741824 cpu:               2.4 elap:               0.3
 (Enter /home/saurabh/gaussian/g16/l701.exe)
 ... and contract with generalized density number  0.
 Compute integral second derivatives.
 Leave Link  701 at Thu Apr  7 19:28:45 2022, MaxMem=  1073741824 cpu:               1.8 elap:               0.2
 (Enter /home/saurabh/gaussian/g16/l702.exe)
 L702 exits ... SP integral derivatives will be done elsewhere.
 Leave Link  702 at Thu Apr  7 19:28:45 2022, MaxMem=  1073741824 cpu:               0.1 elap:               0.0
 (Enter /home/saurabh/gaussian/g16/l703.exe)
 Integral derivatives from FoFJK, PRISM(SPDF).
 Compute integral second derivatives, UseDBF=F ICtDFT=           0.
 Calling FoFJK, ICntrl=    100127 FMM=F ISym2X=0 I1Cent= 0 IOpClX= 1 NMat=1 NMatS=1 NMatT=0.
 FoFJK:  IHMeth= 1 ICntrl=  100127 DoSepK=F KAlg= 0 I1Cent=           0 FoldK=F
 IRaf=         0 NMat=       1 IRICut=       1 DoRegI=T DoRafI=F ISym2E= 0 IDoP0=0 IntGTp=1.
 FoFCou: FMM=F IPFlag=           0 FMFlag=      100000 FMFlg1=         800
         NFxFlg=           0 DoJE=F BraDBF=F KetDBF=F FulRan=T
         wScrn=  0.000000 ICntrl=    100127 IOpCl=  1 I1Cent=           0 NGrid=           0
         NMat0=    1 NMatS0=      1 NMatT0=    0 NMatD0=    1 NMtDS0=    0 NMtDT0=    0
 Symmetry not used in FoFCou.
 Leave Link  703 at Thu Apr  7 19:31:25 2022, MaxMem=  1073741824 cpu:            1279.7 elap:             160.0
 (Enter /home/saurabh/gaussian/g16/l716.exe)
 Dipole        = 9.07941549D-01-2.35996788D-01 3.10283192D-01
 Polarizability= 0.00000000D+00 0.00000000D+00 0.00000000D+00
                 0.00000000D+00 0.00000000D+00 0.00000000D+00
 ***** Axes restored to original set *****
 -------------------------------------------------------------------
 Center     Atomic                   Forces (Hartrees/Bohr)
 Number     Number              X              Y              Z
 -------------------------------------------------------------------
      1        6          -0.002857440    0.007432218   -0.002424361
      2        6          -0.004606191   -0.002417949    0.000017312
      3        6          -0.021396543    0.032685576    0.022600929
      4        6           0.000785858   -0.009469693   -0.000141009
      5        1          -0.001569131   -0.007379208    0.009378982
      6        1          -0.005322814   -0.002680671   -0.010403316
      7        1           0.012122624    0.005343232    0.000122586
      8        1           0.007532087    0.003838649    0.008993143
      9        1          -0.004465180   -0.004077991   -0.010176073
     10        1          -0.007042493    0.008229926    0.007089114
     11        1           0.012123911    0.003906982    0.000382329
     12        8           0.005929292    0.000253101   -0.011239762
     13        8           0.008014019   -0.011079155   -0.010301825
     14        1          -0.001215469   -0.008563295   -0.008361835
     15        1           0.001967468   -0.016021723    0.004463787
 -------------------------------------------------------------------
 Cartesian Forces:  Max     0.032685576 RMS     0.009649512
 FormGI is forming the generalized inverse of G from B-inverse, IUseBI=4.
 Leave Link  716 at Thu Apr  7 19:31:25 2022, MaxMem=  1073741824 cpu:               0.3 elap:               0.1
 (Enter /home/saurabh/gaussian/g16/l103.exe)

 GradGradGradGradGradGradGradGradGradGradGradGradGradGradGradGradGradGrad
 Berny optimization.
 Red2BG is reusing G-inverse.
 Internal  Forces:  Max     0.035946471 RMS     0.007269937
 Search for a local minimum.
 Step number   1 out of a maximum of  100
 All quantities printed in internal units (Hartrees-Bohrs-Radians)
 RMS Force = .72699D-02 SwitMx=.10000D-02 MixMth= 1
 Mixed Optimization -- RFO/linear search
 Second derivative matrix not updated -- analytic derivatives used.
 ITU=  0
     Eigenvalues ---    0.00203   0.00293   0.00365   0.00592   0.03582
     Eigenvalues ---    0.04024   0.04096   0.04428   0.04524   0.04582
     Eigenvalues ---    0.04615   0.04822   0.05791   0.09711   0.11872
     Eigenvalues ---    0.11957   0.12040   0.12525   0.13407   0.14272
     Eigenvalues ---    0.14893   0.16729   0.17985   0.22133   0.25712
     Eigenvalues ---    0.27494   0.28144   0.28484   0.29423   0.29482
     Eigenvalues ---    0.29580   0.29719   0.29818   0.29992   0.30573
     Eigenvalues ---    0.30967   0.32376   0.36345   0.56128
 RFO step:  Lambda=-1.14166923D-02 EMin= 2.02547227D-03
 Linear search not attempted -- first point.
 Iteration  1 RMS(Cart)=  0.03132689 RMS(Int)=  0.00113900
 Iteration  2 RMS(Cart)=  0.00129862 RMS(Int)=  0.00031275
 Iteration  3 RMS(Cart)=  0.00000222 RMS(Int)=  0.00031274
 Iteration  4 RMS(Cart)=  0.00000000 RMS(Int)=  0.00031274
 ITry= 1 IFail=0 DXMaxC= 1.06D-01 DCOld= 1.00D+10 DXMaxT= 3.00D-01 DXLimC= 3.00D+00 Rises=F
 Variable       Old X    -DE/DX   Delta X   Delta X   Delta X     New X
                                 (Linear)    (Quad)   (Total)
    R1        2.89736  -0.00063   0.00000  -0.00323  -0.00323   2.89413
    R2        2.09941  -0.01161   0.00000  -0.03784  -0.03784   2.06158
    R3        2.10033  -0.01184   0.00000  -0.03631  -0.03631   2.06402
    R4        2.09949  -0.01316   0.00000  -0.04026  -0.04026   2.05923
    R5        2.91310  -0.00689   0.00000  -0.03213  -0.03213   2.88097
    R6        2.90015  -0.00064   0.00000  -0.00741  -0.00741   2.89274
    R7        2.10191  -0.01173   0.00000  -0.03675  -0.03675   2.06516
    R8        2.65853   0.02396   0.00000   0.07196   0.07196   2.73049
    R9        2.10039  -0.01034   0.00000  -0.03803  -0.03803   2.06236
   R10        2.10820  -0.01561   0.00000  -0.05176  -0.05176   2.05644
   R11        2.10016  -0.01175   0.00000  -0.03562  -0.03562   2.06455
   R12        2.09860  -0.01266   0.00000  -0.04079  -0.04079   2.05781
   R13        2.09942  -0.01265   0.00000  -0.03941  -0.03941   2.06002
   R14        2.49452   0.00923   0.00000  -0.00252  -0.00252   2.49200
    A1        1.92311   0.00417   0.00000   0.02452   0.02437   1.94748
    A2        1.93321   0.00151   0.00000   0.00704   0.00698   1.94019
    A3        1.92367   0.00073   0.00000   0.00447   0.00440   1.92806
    A4        1.89825  -0.00270   0.00000  -0.01343  -0.01356   1.88469
    A5        1.88648  -0.00195   0.00000  -0.00550  -0.00566   1.88083
    A6        1.89819  -0.00195   0.00000  -0.01817  -0.01815   1.88004
    A7        1.92227  -0.00235   0.00000  -0.01553  -0.01585   1.90643
    A8        1.92140   0.00260   0.00000   0.02394   0.02391   1.94530
    A9        1.88630   0.00072   0.00000   0.00685   0.00632   1.89262
[...]
 ! D30   D(15,3,12,13)         -48.05           -DE/DX =    0.0                 !
 --------------------------------------------------------------------------------
 GradGradGradGradGradGradGradGradGradGradGradGradGradGradGradGradGradGrad

 Leave Link  103 at Thu Apr  7 19:44:02 2022, MaxMem=  1073741824 cpu:               0.2 elap:               0.0
 (Enter /home/saurabh/gaussian/g16/l9999.exe)

 ----------------------------------------------------------------------

 Electric dipole moment (input orientation):
 (Debye = 10**-18 statcoulomb cm , SI units = C m)
                  (au)            (Debye)         (10**-30 SI)
   Tot        0.109454D+01      0.278203D+01      0.927986D+01
   x         -0.602599D+00     -0.153165D+01     -0.510905D+01
   y          0.522305D+00      0.132757D+01      0.442829D+01
   z          0.749719D+00      0.190560D+01      0.635639D+01

 Dipole polarizability, Alpha (input orientation).
 (esu units = cm**3 , SI units = C**2 m**2 J**-1)
 Alpha(0;0):
               (au)            (10**-24 esu)      (10**-40 SI)
   iso        0.581578D+02      0.861810D+01      0.958892D+01
   aniso      0.125441D+02      0.185885D+01      0.206824D+01
   xx         0.568350D+02      0.842208D+01      0.937083D+01
   yx        -0.257221D+01     -0.381162D+00     -0.424100D+00
   yy         0.561846D+02      0.832570D+01      0.926359D+01
   zx        -0.575691D+01     -0.853087D+00     -0.949187D+00
   zy         0.210712D+01      0.312243D+00      0.347418D+00
   zz         0.614538D+02      0.910651D+01      0.101324D+02

 ----------------------------------------------------------------------

 Dipole orientation:
     6         -4.30614167          2.30466144          5.21046543
     6         -3.74140545          1.21924695          2.58836915
     6         -1.56228528          2.67992364          1.40061512
     6         -3.19990939         -1.61865939          2.69652048
     1         -4.76845981          4.31215700          5.12075911
     1         -2.69041541          2.07986809          6.47661920
     1         -5.90504946          1.32734526          6.06711950
     1         -5.38601836          1.53848285          1.37939481
     1         -1.57960860         -2.01460353          3.91459866
     1         -2.79171267         -2.38120518          0.82804701
     1         -4.82046064         -2.63860878          3.45861734
     8         -1.08010160          1.88900789         -1.19324796
     8         -2.81020571          2.77288426         -2.75178113
     1          0.22255438          2.31259499          2.36618678
     1         -1.93195220          4.70414226          1.35401773

 Electric dipole moment (dipole orientation):
 (Debye = 10**-18 statcoulomb cm , SI units = C m)
                  (au)            (Debye)         (10**-30 SI)
   Tot        0.109454D+01      0.278203D+01      0.927986D+01
   x          0.000000D+00      0.000000D+00      0.000000D+00
   y          0.000000D+00      0.000000D+00      0.000000D+00
   z          0.109454D+01      0.278203D+01      0.927986D+01

 Dipole polarizability, Alpha (dipole orientation).
 (esu units = cm**3 , SI units = C**2 m**2 J**-1)
 Alpha(0;0):
               (au)            (10**-24 esu)      (10**-40 SI)
   iso        0.581578D+02      0.861810D+01      0.958892D+01
   aniso      0.125441D+02      0.185885D+01      0.206824D+01
   xx         0.527245D+02      0.781296D+01      0.869309D+01
   yx        -0.582768D+00     -0.863572D-01     -0.960854D-01
   yy         0.558240D+02      0.827226D+01      0.920414D+01
   zx         0.197206D+00      0.292228D-01      0.325148D-01
   zy        -0.210360D+01     -0.311722D+00     -0.346837D+00
   zz         0.659249D+02      0.976906D+01      0.108695D+02

 ----------------------------------------------------------------------
 Unable to Open any file for archive entry.
 1\1\GINC-MEDIAWIKI\Freq\UB3LYP\CC-pVTZ\C4H9O2(2)\SAURABH\07-Apr-2022\0
 \\#P Geom=AllCheck Guess=TCheck SCRF=Check GenChk UB3LYP/CC-pVTZ Freq\
 \Mol_02\\0,2\C,-3.1966548489,2.0152054706,0.0521062271\C,-2.2772046526
 ,0.9029169089,-0.4597019697\C,-0.8649424921,1.4512790374,-0.6242112372
 \C,-2.3078666964,-0.3238957237,0.4538868725\H,-3.2055212802,2.87316141
 45,-0.622033881\H,-2.8828842272,2.3653677903,1.0385369747\H,-4.2207699
 302,1.6523225908,0.1435828971\H,-2.6123778516,0.6080328773,-1.45767143
 9\H,-1.9922260161,-0.0638252022,1.4674434753\H,-1.6492726405,-1.111030
 7298,0.0881061843\H,-3.3173440627,-0.7319535718,0.5155496812\O,0.03475
 46841,0.4740894154,-1.2242034379\O,-0.1890918404,0.3422953679,-2.51636
 69421\H,-0.4019683983,1.6742588275,0.3385304408\H,-0.8447793281,2.3354
 189502,-1.2599556469\\Version=ES64L-G16RevC.01\State=2-A\HF=-308.28385
 17\S2=0.753947\S2-1=0.\S2A=0.75001\RMSD=2.386e-09\RMSF=1.050e-05\ZeroP
 oint=0.1278214\Thermal=0.1352856\ETot=-308.148566\HTot=-308.1476219\GT
 ot=-308.1881188\Dipole=-0.6025988,0.5223052,0.7497195\DipoleDeriv=0.02
 40213,0.0477213,0.0710769,-0.0034474,0.0512987,0.0286154,0.0158919,0.0
 151726,0.1238249,0.0904773,-0.0156173,-0.0452129,-0.0268426,0.0962458,
 -0.0955486,-0.03359,-0.0511045,0.0693046,0.3909193,-0.0341121,-0.07232
 38,-0.0499668,0.3171174,0.131263,-0.0524812,0.0692952,0.3784158,0.0434
 822,0.0214558,0.0362252,0.0277865,-0.0056741,0.0552005,0.0226349,0.033
 1222,0.1065167,0.0610609,0.0000941,0.017356,0.0313361,-0.1023482,0.081
 7311,0.0008471,0.1109855,-0.0227195,0.0271731,-0.0210347,-0.0890829,0.
 0139053,0.0277877,-0.0381597,-0.0339682,-0.0810053,-0.1105735,-0.13399
 55,-0.026447,0.0436348,-0.0695135,0.0231571,-0.0127823,0.0281662,-0.01
 17837,0.054404,0.0026769,-0.0004891,-0.0096198,-0.0154572,-0.007516,-0
 .0162327,-0.0350415,-0.0225137,-0.0995468,0.0432486,-0.0180625,-0.0675
 639,-0.0335111,0.0188543,-0.0792752,-0.0481594,-0.0089432,-0.1227824,0
 .010563,0.1032513,0.0188547,0.0792796,-0.0555537,-0.0225621,0.0346499,
 -0.0418937,0.0342462,-0.124045,-0.0944434,0.0303898,-0.0615541,0.02547
 02,0.0330378,0.0045122,0.0239393,0.0432965,-0.2569006,0.025278,-0.0286
 001,0.0320539,-0.1668421,-0.0510895,0.0047462,-0.0138354,-0.4144026,-0
 .1973984,0.020717,0.0801582,0.0421022,-0.1940256,0.0167888,0.1195106,-
 0.0592104,0.0653763,-0.0062419,-0.0003437,-0.031468,0.0280474,0.043220
 7,-0.034128,-0.0625438,-0.0625537,-0.0794093,0.0249587,-0.0079677,0.04
 61759,0.0057817,-0.0711924,0.0031416,0.0348251,0.1003288,-0.025951\Pol
 ar=56.8350024,-2.572208,56.1846182,-5.7569147,2.1071231,61.4537547\Qua
 drupole=-0.2585438,1.4072582,-1.1487143,1.5364345,2.0442062,-0.7746114
 \PG=C01 [X(C4H9O2)]\NImag=0\\0.52855055,0.04776761,0.50914321,0.018696
 82,-0.03229166,0.54880752,-0.11230383,0.03997536,0.02080791,0.47058186
 ,0.04267182,-0.12787716,-0.02627539,0.01221348,0.47848014,0.02044743,-
 0.02479737,-0.09153652,0.03398352,0.02938017,0.56985785,-0.02643330,0.
 00233680,0.00452088,-0.14694170,-0.04430835,-0.00250829,0.42182901,0.0
 2342302,0.00674518,-0.00297526,-0.04426075,-0.09514737,0.00558490,0.03
 533616,0.49862891,0.01395435,0.00169408,-0.00277627,0.00073263,0.00304
 750,-0.08012548,0.08476634,-0.06775100,0.59708340,-0.00020201,0.019031
 14,-0.01336999,-0.07919794,-0.00105498,-0.00024364,-0.00309429,-0.0300
 5336,0.02113511,0.57317890,0.00396262,-0.02788266,0.01572839,-0.000080
 06,-0.13943330,0.04560453,-0.00761297,-0.01400522,0.01043098,-0.004557
 54,0.50208252,-0.00164490,-0.00680392,0.00735242,-0.00047671,0.0489919
 2,-0.11865332,0.00480173,0.00500208,-0.00400152,-0.00267230,0.05261046
 ,0.52117509,-0.04770323,-0.00033251,0.00063053,-0.00091577,0.01447942,
 -0.01395221,0.00052095,0.00140285,-0.00132571,-0.00254749,0.00228197,0
 .00203323,0.04879976,0.00023824,-0.20368271,0.12549610,-0.00096426,-0.
 01841712,0.01532907,-0.00111364,0.00002836,0.00088729,0.00386366,-0.00
 270588,-0.00343128,-0.00224434,0.22313563,-0.00017331,0.12667401,-0.14
 989630,-0.00058675,-0.00998354,0.00772901,0.00010519,-0.00009438,0.000
 19636,0.00133562,-0.00125773,-0.00024244,-0.00142382,-0.13862556,0.159
 79110,-0.07028098,-0.02363442,-0.06912961,0.00585611,0.00641631,0.0195
 1573,0.00152726,0.00041444,0.00142439,0.00060040,-0.00106068,0.0003973
 6,-0.00076476,0.00042219,0.00099036,0.07398554,-0.02359507,-0.07216635
 ,-0.07001859,-0.00747002,-0.00877352,-0.02271820,-0.00125725,0.0003541
 0,0.00001958,-0.00107723,0.00142019,-0.00121175,0.00826185,0.00919891,
 0.02290882,0.02354188,0.07677870,-0.06891216,-0.07075001,-0.25399366,-
 0.00219623,-0.00396277,-0.01168715,-0.00129391,-0.00006622,-0.00017556
 ,-0.00005897,0.00092424,0.00092774,-0.00615279,-0.00632784,-0.01769053
 ,0.07484516,0.08093573,0.27753582,-0.27544179,-0.08462810,0.01868299,-
 0.01941135,-0.00644809,0.00160918,0.00023847,0.00391970,0.00152267,0.0
 0067533,-0.00134479,-0.00019534,0.00123898,-0.00006086,0.00023596,-0.0
 0858989,-0.00321644,0.00035875,0.30048039,-0.08597859,-0.07732389,0.00
 766784,0.02504065,0.00743363,-0.00154024,0.00113260,-0.00373582,-0.000
 96473,0.00052227,0.00164249,-0.00016072,-0.02355644,-0.00864807,0.0007
 4040,-0.00868658,-0.00414977,0.00121723,0.09107587,0.08369602,0.018408
 66,0.00745030,-0.04772331,0.01175478,0.00413610,-0.00224566,0.00043004
 ,-0.00179014,-0.00082285,-0.00068948,0.00034091,0.00015185,0.01986308,
 0.00660475,-0.00173625,-0.02836235,-0.01041756,0.00298906,-0.02230129,
 -0.00647077,0.04847295,0.00579740,0.00752955,0.02032247,-0.07179782,-0
 .02111158,-0.07099949,-0.01702290,-0.01086970,-0.03015707,0.00031875,0
 .00035525,0.00074189,0.00069613,-0.00066706,-0.00059082,-0.00207086,0.
 00346263,0.00192948,0.00087590,-0.00082520,-0.00007088,0.08262421,-0.0
 0603449,-0.00925677,-0.02266226,-0.02272784,-0.06618499,-0.06044822,-0
 .00545132,-0.00450463,-0.01275527,0.00853035,0.00564069,0.02688498,-0.
 00068454,0.00050509,0.00031157,0.00320242,-0.00300435,-0.00147129,-0.0
 0012693,0.00103411,0.00070171,0.02354482,0.07756701,-0.00218217,-0.004
 48138,-0.01001748,-0.07250618,-0.06114967,-0.25596588,-0.00022912,0.00
 051992,0.00161390,-0.00600824,-0.00275447,-0.01916403,0.00010110,-0.00
 019163,0.00074958,0.00148415,-0.00124134,0.00079959,0.00022034,0.00038
 445,0.00017730,0.07730776,0.06594313,0.27958482,-0.00002647,-0.0003330
 4,-0.00051084,-0.00096903,0.00031596,0.00073062,0.00084601,0.00054280,
 0.00128606,-0.06897196,-0.01851383,-0.06781384,-0.00002954,0.00003980,
 0.00026291,0.00011465,0.00032863,0.00002233,-0.00007246,-0.00005059,-0
 .00014870,0.00079902,0.00003140,0.00039067,0.06989406,-0.00017049,0.00
 198957,0.00076862,0.00861307,0.00587490,0.02643827,0.00103118,0.001487
 86,0.00019134,-0.01894119,-0.06390627,-0.06015371,-0.00024518,0.000228
 13,-0.00023454,-0.00017241,-0.00014014,-0.00059256,0.00007004,-0.00011
 519,-0.00007992,-0.00008230,-0.00413846,0.00344277,0.02093419,0.068057
 12,0.00048991,-0.00115705,0.00087463,-0.00613725,-0.00430942,-0.021025
 42,-0.00108777,-0.00117874,0.00017338,-0.06778383,-0.05929740,-0.26265
 998,0.00021695,0.00009729,0.00037289,-0.00039121,0.00079276,0.00064780
 ,-0.00002457,0.00006030,-0.00000251,0.00046170,0.00396106,-0.00095983,
 0.07576358,0.06265669,0.28934379,0.00033388,-0.00015063,-0.00023389,0.
 00053805,-0.00182916,-0.00146468,0.00013476,0.00000393,-0.00033740,-0.
 14476188,0.11497210,0.05499357,0.00038964,0.00005605,0.00026690,-0.000
 07215,0.00013390,0.00017182,0.00047479,-0.00022195,-0.00000885,-0.0000
 4346,0.00028550,-0.00013571,0.00655784,-0.00838023,-0.00317092,0.15447
 456,-0.00131180,-0.00347854,0.00469111,0.01518242,-0.01859129,-0.01035
 309,0.00129981,-0.00050604,-0.00104272,0.11318135,-0.18188301,-0.06445
 473,0.00116956,-0.00123004,-0.00049201,-0.00021948,0.00030875,0.000057
 17,0.00006184,0.00025252,0.00003698,-0.00001121,0.00101562,0.00008556,
 0.00420245,-0.00573290,-0.00268092,-0.12595206,0.19870110,0.00074145,0
 .00298156,-0.00246064,-0.01403362,0.01471337,0.00791008,-0.00002416,-0
 .00055123,0.00092349,0.05563794,-0.06622482,-0.07983588,-0.00054837,0.
 00119422,0.00057254,0.00007114,0.00035711,0.00023448,0.00011016,-0.000
 15826,-0.00019940,-0.00032577,-0.00079572,0.00079427,0.01901023,-0.020
 83046,-0.00987705,-0.06132703,0.06925254,0.08391598,0.00070989,0.00047
 920,-0.00029283,-0.00017283,0.00077144,0.00007882,0.00105043,0.0005770
 6,0.00036790,-0.27266281,-0.08911938,0.01157505,0.00027738,-0.00004033
 ,0.00004634,-0.00004098,0.00001273,0.00002921,0.00043846,-0.00035140,-
 0.00012218,0.00036430,-0.00022415,0.00052802,-0.00811445,-0.00249866,0
 .00020796,-0.01759877,-0.00713181,0.00023102,0.29555857,-0.00147103,0.
 00132629,-0.00057275,-0.02530506,-0.01088646,0.00023568,0.00139246,-0.
 00491339,0.00364650,-0.08739502,-0.08117807,0.00424113,0.00026597,0.00
 041186,0.00003010,0.00004060,-0.00012044,0.00001691,0.00084087,-0.0002
 8200,-0.00002630,0.00038440,0.00111520,-0.00016482,-0.00742932,-0.0037
 7160,0.00032460,0.02185067,0.00987736,-0.00016348,0.09764432,0.0880786
 4,0.00019430,-0.00108298,0.00038891,0.01986300,0.00787290,-0.00183785,
 -0.00096412,0.00332416,-0.00234174,0.01060854,0.00379848,-0.04726751,0
 .00000462,-0.00018789,-0.00017079,-0.00015712,0.00000865,0.00001911,-0
 .00033441,0.00004722,0.00033767,0.00027741,-0.00081246,0.00050604,-0.0
 2860938,-0.01075856,0.00233367,0.01069011,0.00476744,-0.00121454,-0.01
 270906,-0.00771480,0.04884032,-0.00677787,-0.00597264,0.00026764,-0.03
 028500,0.02935349,0.02000858,-0.09955980,0.05549958,-0.01712298,0.0013
 0474,-0.00004584,-0.00062482,0.00049010,-0.00030931,-0.00026956,0.0001
 2563,-0.00001490,0.00034021,-0.00146270,0.00181879,0.00128361,0.002748
 49,0.00088660,-0.00082787,-0.00020105,0.00010279,0.00019715,-0.0004425
 6,-0.00025933,0.00064266,-0.00003365,0.00048400,-0.00026223,0.18221007
 ,-0.00038844,0.00162110,0.00041680,0.01009575,0.00334525,-0.00027328,0
 .05595221,-0.10587097,0.01085271,-0.00094338,-0.00070719,0.00066885,-0
 .00049406,0.00045663,-0.00010023,-0.00013075,-0.00016552,-0.00016380,-
 0.00010124,0.00003091,-0.00039496,-0.00054893,0.00022491,-0.00051195,-
 0.00002362,0.00008673,-0.00001347,-0.00073696,0.00103807,0.00034277,-0
 .00035989,0.00042127,0.00011503,-0.11455488,0.16715784,0.00073117,0.00
 190893,0.00002675,0.01196120,-0.00559636,-0.00730615,-0.00077351,-0.00
 846090,-0.05916333,0.00030845,0.00034613,0.00067382,0.00008690,-0.0004
 8787,0.00018614,-0.00019255,0.00016421,0.00012988,0.00009630,-0.000709
 52,0.00018428,-0.00138407,0.00051559,0.00018473,0.00008079,-0.00020748
 ,-0.00010062,0.00050473,-0.00061185,-0.00024533,0.00014250,-0.00038833
 ,0.00001202,0.05732301,0.05389643,0.45546454,0.00054152,-0.00016596,0.
 00038229,-0.00088082,0.00027789,0.00133544,0.00999101,-0.00465070,0.02
 476653,0.00008150,0.00055578,0.00041266,-0.00002658,0.00007211,-0.0000
 8217,-0.00019738,0.00016657,0.00009645,0.00005193,0.00003125,-0.000108
 83,0.00095613,0.00057337,0.00113088,-0.00004538,-0.00015032,0.00014424
 ,-0.00006724,-0.00013022,-0.00009213,0.00004729,-0.00006313,-0.0000423
 1,-0.04614495,0.01931058,-0.08470600,0.03631936,-0.00034499,-0.0001285
 6,-0.00000587,-0.00224953,0.00136268,-0.00033507,-0.01073565,-0.004406
 44,-0.03760973,0.00055833,-0.00019918,-0.00013184,-0.00002246,0.000013
 02,0.00002012,-0.00005554,0.00009104,0.00013148,-0.00002044,0.00006181
 ,0.00013748,0.00027037,-0.00008619,0.00038898,-0.00002468,0.00000994,0
 .00011356,-0.00013892,0.00021563,0.00003502,-0.00001704,0.00020079,-0.
 00002633,0.02766374,-0.03205100,-0.02009841,-0.01690717,0.03433011,-0.
 00026277,0.00000019,0.00041882,-0.00305579,0.00065372,0.00242971,0.008
 38174,-0.02155126,-0.05329500,0.00008719,-0.00052300,-0.00067372,0.000
 02996,0.00002282,-0.00002616,-0.00012836,0.00011546,0.00021444,0.00012
 965,0.00007854,0.00019027,0.00085848,0.00025867,0.00005381,-0.00015864
 ,0.00020606,0.00021933,0.00012074,0.00074024,-0.00037649,-0.00011659,0
 .00016585,0.00018839,-0.06072233,-0.04258899,-0.37730787,0.05274432,0.
 06252017,0.42449693,0.00162871,-0.00068738,-0.00100178,-0.01376986,-0.
 00737245,-0.02798536,-0.09694933,-0.02154173,-0.10562687,0.00159732,0.
 00133872,-0.00089938,-0.00005510,-0.00000459,0.00006181,-0.00010503,0.
 00058702,0.00084789,0.00024715,-0.00000134,0.00038907,-0.00547501,-0.0
 0210692,0.00143405,0.00018279,-0.00032550,0.00103510,-0.00001007,-0.00
 020134,0.00011455,0.00022563,0.00039779,0.00019472,0.00677575,0.004918
 16,0.02181954,-0.00174136,0.00470078,0.00531130,0.10643901,0.00024200,
 0.00022315,0.00034654,-0.00669861,-0.00193510,-0.01046507,-0.01877891,
 -0.06090913,-0.03366404,0.00038483,0.00046806,-0.00138694,-0.00000642,
 0.00004723,0.00010212,0.00000217,0.00034642,0.00004989,0.00002428,-0.0
 0003233,0.00010574,-0.00192716,-0.00012454,-0.00017922,-0.00005778,0.0
 0003936,0.00045474,-0.00001371,-0.00007664,-0.00004723,0.00021856,0.00
 014042,0.00018036,-0.00725996,-0.00614265,-0.02531585,0.00271701,-0.00
 347450,-0.00356663,0.02073022,0.06334614,-0.00046356,0.00018147,0.0004
 9329,0.00122259,0.00141374,0.00325991,-0.09627849,-0.04259617,-0.24881
 270,0.00045760,0.00020857,0.00125176,0.00003938,-0.00006854,-0.0000552
 8,-0.00035791,0.00019064,0.00016749,-0.00015682,0.00016627,0.00021943,
 0.00116121,0.00060981,0.00090960,-0.00020011,-0.00054305,0.00024056,-0
 .00004124,0.00000926,-0.00008499,0.00000138,-0.00005752,0.00018004,-0.
 00365051,-0.00286027,-0.01641790,0.00266738,-0.00474359,-0.00131631,0.
 10334767,0.05151475,0.27323332,0.00160752,-0.00121498,0.00022742,-0.00
 033006,-0.02437518,0.01944434,-0.04613658,-0.00974328,0.00461405,-0.00
 631856,-0.00113135,-0.00062821,-0.00037047,0.00071233,-0.00017868,-0.0
 0008757,0.00013571,-0.00002724,0.00025681,0.00005069,-0.00031668,0.001
 22973,0.00030171,-0.00070768,0.00003597,0.00021500,0.00007896,0.000092
 63,0.00011982,-0.00020807,-0.00004846,-0.00163753,0.00124593,-0.008747
 20,0.02800543,-0.00599845,0.00111496,-0.00267680,-0.00321890,0.0010094
 0,0.01042347,-0.00774857,0.05669187,0.00098959,0.00074815,-0.00031361,
 -0.00136460,-0.00925029,0.00835792,-0.00922314,-0.21324540,0.12301751,
 -0.00204924,0.00064683,-0.00066453,-0.00027568,0.00065897,0.00000084,-
 0.00008015,0.00002198,0.00000185,-0.00004570,0.00013559,-0.00033431,0.
 00049612,0.00019730,-0.00009035,0.00003762,0.00003093,0.00017599,0.000
 12148,0.00008940,-0.00010540,0.00003936,-0.00041989,0.00046878,0.01260
 789,-0.02944539,0.00504529,-0.00163706,0.00406086,0.00346814,-0.000431
 43,0.00808412,-0.00342537,0.00081495,0.23768686,-0.00002522,0.00047384
 ,0.00004185,-0.00133310,0.00106770,-0.00080313,0.00015345,0.13258424,-
 0.14847608,0.00125601,0.00006472,0.00096573,0.00039714,-0.00031093,0.0
 0022013,-0.00000918,0.00011450,-0.00011851,0.00004644,-0.00035802,0.00
 000717,0.00046768,-0.00024130,0.00073358,-0.00010569,-0.00030346,0.000
 41936,-0.00002816,-0.00000500,-0.00005653,0.00003247,0.00042723,0.0000
 2625,0.00341744,-0.01938564,0.00367903,0.00135125,-0.00039598,0.004783
 87,0.00095769,0.02187084,-0.01326824,-0.00657822,-0.13560275,0.1518455
 1\\0.00000383,0.00000087,-0.00000370,0.00000270,-0.00000458,0.00000267
 ,-0.00003508,0.00002463,0.00002369,-0.00000044,0.00000462,-0.00000029,
 0.00000053,0.00000031,-0.00000025,0.00000088,0.00000040,0.00000260,-0.
 00000373,-0.00000118,0.00000021,0.00000014,0.00000206,-0.00000080,0.00
 000039,-0.00000003,0.00000166,0.00000333,-0.00000337,-0.00000206,-0.00
 000340,-0.00000172,-0.00000002,0.00002688,-0.00003435,-0.00001491,-0.0
 0000147,0.00000481,0.00000375,0.00000405,-0.00000296,-0.00000265,0.000
 00139,0.00001048,-0.00000990\\\@
 The archive entry for this job was punched.


 THOSE WHO ASPIRE NOT TO GUESS AND DIVINE,
 BUT TO DISCOVER AND KNOW, WHO PROPOSE NOT TO DEVISE 
 MIMIC AND FABULOUS WORLDS OF THEIR OWN, BUT TO 
 EXAMINE AND DISSECT THE NATURE OF THIS VERY WORLD 
 ITSELF, MUST GO TO THE FACTS THEMSELVES FOR EVERYTHING.

                               -- FRANCIS BACON, 1620
 Job cpu time:       0 days  1 hours  2 minutes 47.2 seconds.
 Elapsed time:       0 days  0 hours  7 minutes 51.3 seconds.
 File lengths (MBytes):  RWF=    222 Int=      0 D2E=      0 Chk=     11 Scr=      1
 Normal termination of Gaussian 16 at Thu Apr  7 19:44:02 2022.
