 Entering Gaussian System, Link 0=g16
 Input=Mol_01.com
 Output=Mol_01.log
 Initial command:
 /home/saurabh/gaussian/g16/l1.exe "/home/saurabh/gaussian/gauss_scr/Gau-41173.inp" -scrdir="/home/saurabh/gaussian/gauss_scr/"
 Entering Link 1 = /home/saurabh/gaussian/g16/l1.exe PID=     41174.
  
 Copyright (c) 1988-2019, Gaussian, Inc.  All Rights Reserved.
  
 This is part of the Gaussian(R) 16 program.  It is based on
 the Gaussian(R) 09 system (copyright 2009, Gaussian, Inc.),
 the Gaussian(R) 03 system (copyright 2003, Gaussian, Inc.),
 the Gaussian(R) 98 system (copyright 1998, Gaussian, Inc.),
 the Gaussian(R) 94 system (copyright 1995, Gaussian, Inc.),
 the Gaussian 92(TM) system (copyright 1992, Gaussian, Inc.),
 the Gaussian 90(TM) system (copyright 1990, Gaussian, Inc.),
 the Gaussian 88(TM) system (copyright 1988, Gaussian, Inc.),
 the Gaussian 86(TM) system (copyright 1986, Carnegie Mellon
 University), and the Gaussian 82(TM) system (copyright 1983,
 Carnegie Mellon University). Gaussian is a federally registered
 trademark of Gaussian, Inc.
  
 This software contains proprietary and confidential information,
 including trade secrets, belonging to Gaussian, Inc.
  
 This software is provided under written license and may be
 used, copied, transmitted, or stored only in accord with that
 written license.
  
 The following legend is applicable only to US Government
 contracts under FAR:
  
                    RESTRICTED RIGHTS LEGEND
  
 Use, reproduction and disclosure by the US Government is
 subject to restrictions as set forth in subparagraphs (a)
 and (c) of the Commercial Computer Software - Restricted
 Rights clause in FAR 52.227-19.
  
 Gaussian, Inc.
 340 Quinnipiac St., Bldg. 40, Wallingford CT 06492
  
  
 ---------------------------------------------------------------
 Warning -- This program may not be used in any manner that
 competes with the business of Gaussian, Inc. or will provide
 assistance to any competitor of Gaussian, Inc.  The licensee
 of this program is prohibited from giving any competitor of
 Gaussian, Inc. access to this program.  By using this program,
 the user acknowledges that Gaussian, Inc. is engaged in the
 business of creating and licensing software in the field of
 computational chemistry and represents and warrants to the
 licensee that it is not a competitor of Gaussian, Inc. and that
 it will not use this program in any manner prohibited above.
 ---------------------------------------------------------------
  

 Cite this work as:
 Gaussian 16, Revision C.01,
 M. J. Frisch, G. W. Trucks, H. B. Schlegel, G. E. Scuseria, 
 M. A. Robb, J. R. Cheeseman, G. Scalmani, V. Barone, 
 G. A. Petersson, H. Nakatsuji, X. Li, M. Caricato, A. V. Marenich, 
 J. Bloino, B. G. Janesko, R. Gomperts, B. Mennucci, H. P. Hratchian, 
 J. V. Ortiz, A. F. Izmaylov, J. L. Sonnenberg, D. Williams-Young, 
 F. Ding, F. Lipparini, F. Egidi, J. Goings, B. Peng, A. Petrone, 
 T. Henderson, D. Ranasinghe, V. G. Zakrzewski, J. Gao, N. Rega, 
 G. Zheng, W. Liang, M. Hada, M. Ehara, K. Toyota, R. Fukuda, 
 J. Hasegawa, M. Ishida, T. Nakajima, Y. Honda, O. Kitao, H. Nakai, 
 T. Vreven, K. Throssell, J. A. Montgomery, Jr., J. E. Peralta, 
 F. Ogliaro, M. J. Bearpark, J. J. Heyd, E. N. Brothers, K. N. Kudin, 
 V. N. Staroverov, T. A. Keith, R. Kobayashi, J. Normand, 
 K. Raghavachari, A. P. Rendell, J. C. Burant, S. S. Iyengar, 
 J. Tomasi, M. Cossi, J. M. Millam, M. Klene, C. Adamo, R. Cammi, 
 J. W. Ochterski, R. L. Martin, K. Morokuma, O. Farkas, 
 J. B. Foresman, and D. J. Fox, Gaussian, Inc., Wallingford CT, 2019.
 
 ******************************************
 Gaussian 16:  ES64L-G16RevC.01  3-Jul-2019
                 7-Apr-2022 
 ******************************************
 %mem=8gb
 %nproc=8
 Will use up to    8 processors via shared memory.
 %chk=Mol_01.chk
 ----------------------------------------------------------------------
 #p B3LYP/cc-PVTZ scf(verytight, maxcycles=1000) opt(calcfc, maxcyc=100
 0) freq(hpmodes) int(grid=ultrafine)
 ----------------------------------------------------------------------
 1/6=1000,10=4,18=20,19=15,26=4,38=1/1,3;
 2/9=110,12=2,17=6,18=5,40=1/2;
 3/5=16,6=1,11=2,25=1,30=1,71=2,74=-5,75=-5,140=1/1,2,3;
 4//1;
 5/5=2,7=1000,17=3,38=5/2;
 8/6=4,10=90,11=11/1;
 11/6=1,8=1,9=11,15=111,16=1/1,2,10;
 10/6=1,13=1/2;
 6/7=2,8=2,9=2,10=2,28=1/1;
 7/10=1,25=1/1,2,3,16;
 1/6=1000,10=4,18=20,19=15,26=4/3(2);
 2/9=110/2;
 99//99;
 2/9=110/2;
 3/5=16,6=1,11=2,25=1,30=1,71=1,74=-5,75=-5/1,2,3;
 4/5=5,16=3,69=1/1;
 5/5=2,7=1000,17=3,38=5/2;
 7//1,2,3,16;
 1/6=1000,18=20,19=15,26=4/3(-5);
 2/9=110/2;
 6/7=2,8=2,9=2,10=2,19=2,28=1/1;
 99/9=1/99;
 Leave Link    1 at Thu Apr  7 19:08:44 2022, MaxMem=  1073741824 cpu:               0.5 elap:               0.1
 (Enter /home/saurabh/gaussian/g16/l101.exe)
 ------
 Mol_01
 ------
 Symbolic Z-matrix:
 Charge =  0 Multiplicity = 2
 C                    -3.33013   2.06663   0.32395 
 C                    -2.45211   1.14285  -0.52665 
 C                    -1.0904    1.78611  -0.78953 
 C                    -2.26664  -0.21228   0.16055 
 H                    -3.47969   3.0374   -0.19515 
 H                    -2.85846   2.25812   1.31196 
 H                    -4.32675   1.60374   0.48722 
 H                    -1.20836   2.7447   -1.33845 
 H                    -0.54325   1.97034   0.16024 
 H                    -2.95421   0.97551  -1.50446 
 H                    -1.76383  -0.09023   1.14432 
 H                    -1.64899  -0.88115  -0.47635 
 H                    -3.25263  -0.69832   0.32131 
 
 ITRead=  0  0  0  0  0  0  0  0  0  0  0  0  0
 MicOpt= -1 -1 -1 -1 -1 -1 -1 -1 -1 -1 -1 -1 -1
 NAtoms=     13 NQM=       13 NQMF=       0 NMMI=      0 NMMIF=      0
                NMic=       0 NMicF=      0.
                    Isotopes and Nuclear Properties:
 (Nuclear quadrupole moments (NQMom) in fm**2, nuclear magnetic moments (NMagM)
  in nuclear magnetons)

  Atom         1           2           3           4           5           6           7           8           9          10
 IAtWgt=          12          12          12          12           1           1           1           1           1           1
 AtmWgt=  12.0000000  12.0000000  12.0000000  12.0000000   1.0078250   1.0078250   1.0078250   1.0078250   1.0078250   1.0078250
 NucSpn=           0           0           0           0           1           1           1           1           1           1
 AtZEff=  -0.0000000  -0.0000000  -0.0000000  -0.0000000  -0.0000000  -0.0000000  -0.0000000  -0.0000000  -0.0000000  -0.0000000
 NQMom=    0.0000000   0.0000000   0.0000000   0.0000000   0.0000000   0.0000000   0.0000000   0.0000000   0.0000000   0.0000000
 NMagM=    0.0000000   0.0000000   0.0000000   0.0000000   2.7928460   2.7928460   2.7928460   2.7928460   2.7928460   2.7928460
 AtZNuc=   6.0000000   6.0000000   6.0000000   6.0000000   1.0000000   1.0000000   1.0000000   1.0000000   1.0000000   1.0000000

  Atom        11          12          13
 IAtWgt=           1           1           1
 AtmWgt=   1.0078250   1.0078250   1.0078250
 NucSpn=           1           1           1
 AtZEff=  -0.0000000  -0.0000000  -0.0000000
 NQMom=    0.0000000   0.0000000   0.0000000
 NMagM=    2.7928460   2.7928460   2.7928460
 AtZNuc=   1.0000000   1.0000000   1.0000000
 Leave Link  101 at Thu Apr  7 19:08:44 2022, MaxMem=  1073741824 cpu:               1.8 elap:               0.3
 (Enter /home/saurabh/gaussian/g16/l103.exe)

 GradGradGradGradGradGradGradGradGradGradGradGradGradGradGradGradGradGrad
 Berny optimization.
 Initialization pass.
                           ----------------------------
                           !    Initial Parameters    !
                           ! (Angstroms and Degrees)  !
 --------------------------                            --------------------------
 ! Name  Definition              Value          Derivative Info.                !
 --------------------------------------------------------------------------------
 ! R1    R(1,2)                  1.5323         calculate D2E/DX2 analytically  !
 ! R2    R(1,5)                  1.111          calculate D2E/DX2 analytically  !
 ! R3    R(1,6)                  1.1114         calculate D2E/DX2 analytically  !
 ! R4    R(1,7)                  1.1109         calculate D2E/DX2 analytically  !
 ! R5    R(2,3)                  1.5288         calculate D2E/DX2 analytically  !
 ! R6    R(2,4)                  1.5307         calculate D2E/DX2 analytically  !
 ! R7    R(2,10)                 1.1119         calculate D2E/DX2 analytically  !
 ! R8    R(3,8)                  1.1109         calculate D2E/DX2 analytically  !
 ! R9    R(3,9)                  1.1115         calculate D2E/DX2 analytically  !
 ! R10   R(4,11)                 1.1115         calculate D2E/DX2 analytically  !
 ! R11   R(4,12)                 1.1111         calculate D2E/DX2 analytically  !
 ! R12   R(4,13)                 1.111          calculate D2E/DX2 analytically  !
 ! A1    A(2,1,5)              110.1556         calculate D2E/DX2 analytically  !
 ! A2    A(2,1,6)              110.7429         calculate D2E/DX2 analytically  !
 ! A3    A(2,1,7)              110.1484         calculate D2E/DX2 analytically  !
 ! A4    A(5,1,6)              108.78           calculate D2E/DX2 analytically  !
 ! A5    A(5,1,7)              108.1792         calculate D2E/DX2 analytically  !
 ! A6    A(6,1,7)              108.7744         calculate D2E/DX2 analytically  !
 ! A7    A(1,2,3)              110.6215         calculate D2E/DX2 analytically  !
 ! A8    A(1,2,4)              110.729          calculate D2E/DX2 analytically  !
 ! A9    A(1,2,10)             108.6731         calculate D2E/DX2 analytically  !
 ! A10   A(3,2,4)              109.9853         calculate D2E/DX2 analytically  !
 ! A11   A(3,2,10)             108.321          calculate D2E/DX2 analytically  !
 ! A12   A(4,2,10)             108.4392         calculate D2E/DX2 analytically  !
 ! A13   A(2,3,8)              110.699          calculate D2E/DX2 analytically  !
 ! A14   A(2,3,9)              111.179          calculate D2E/DX2 analytically  !
 ! A15   A(8,3,9)              109.3582         calculate D2E/DX2 analytically  !
 ! A16   A(2,4,11)             110.79           calculate D2E/DX2 analytically  !
 ! A17   A(2,4,12)             110.0573         calculate D2E/DX2 analytically  !
 ! A18   A(2,4,13)             110.1661         calculate D2E/DX2 analytically  !
 ! A19   A(11,4,12)            108.7822         calculate D2E/DX2 analytically  !
 ! A20   A(11,4,13)            108.7495         calculate D2E/DX2 analytically  !
 ! A21   A(12,4,13)            108.2364         calculate D2E/DX2 analytically  !
 ! D1    D(5,1,2,3)             59.2321         calculate D2E/DX2 analytically  !
 ! D2    D(5,1,2,4)           -178.5689         calculate D2E/DX2 analytically  !
 ! D3    D(5,1,2,10)           -59.5642         calculate D2E/DX2 analytically  !
 ! D4    D(6,1,2,3)            -61.1469         calculate D2E/DX2 analytically  !
 ! D5    D(6,1,2,4)             61.0522         calculate D2E/DX2 analytically  !
 ! D6    D(6,1,2,10)          -179.9431         calculate D2E/DX2 analytically  !
 ! D7    D(7,1,2,3)            178.4858         calculate D2E/DX2 analytically  !
 ! D8    D(7,1,2,4)            -59.3151         calculate D2E/DX2 analytically  !
 ! D9    D(7,1,2,10)            59.6896         calculate D2E/DX2 analytically  !
 ! D10   D(1,2,3,8)            -60.4898         calculate D2E/DX2 analytically  !
 ! D11   D(1,2,3,9)             61.2736         calculate D2E/DX2 analytically  !
 ! D12   D(4,2,3,8)            176.8766         calculate D2E/DX2 analytically  !
 ! D13   D(4,2,3,9)            -61.36           calculate D2E/DX2 analytically  !
 ! D14   D(10,2,3,8)            58.5198         calculate D2E/DX2 analytically  !
 ! D15   D(10,2,3,9)          -179.7168         calculate D2E/DX2 analytically  !
 ! D16   D(1,2,4,11)           -60.9973         calculate D2E/DX2 analytically  !
 ! D17   D(1,2,4,12)           178.6549         calculate D2E/DX2 analytically  !
 ! D18   D(1,2,4,13)            59.3809         calculate D2E/DX2 analytically  !
 ! D19   D(3,2,4,11)            61.5729         calculate D2E/DX2 analytically  !
 ! D20   D(3,2,4,12)           -58.7749         calculate D2E/DX2 analytically  !
 ! D21   D(3,2,4,13)          -178.0489         calculate D2E/DX2 analytically  !
 ! D22   D(10,2,4,11)          179.8568         calculate D2E/DX2 analytically  !
 ! D23   D(10,2,4,12)           59.509          calculate D2E/DX2 analytically  !
 ! D24   D(10,2,4,13)          -59.765          calculate D2E/DX2 analytically  !
 --------------------------------------------------------------------------------
 Trust Radius=3.00D-01 FncErr=1.00D-07 GrdErr=1.00D-06 EigMax=2.50D+02 EigMin=1.00D-04
 Number of steps in this run=    100 maximum allowed number of steps=    100.
 GradGradGradGradGradGradGradGradGradGradGradGradGradGradGradGradGradGrad

 Leave Link  103 at Thu Apr  7 19:08:44 2022, MaxMem=  1073741824 cpu:               0.1 elap:               0.0
 (Enter /home/saurabh/gaussian/g16/l202.exe)
                          Input orientation:                          
 ---------------------------------------------------------------------
 Center     Atomic      Atomic             Coordinates (Angstroms)
 Number     Number       Type             X           Y           Z
 ---------------------------------------------------------------------
      1          6           0       -3.330128    2.066626    0.323946
      2          6           0       -2.452108    1.142853   -0.526649
      3          6           0       -1.090397    1.786106   -0.789532
      4          6           0       -2.266638   -0.212277    0.160551
      5          1           0       -3.479686    3.037405   -0.195150
      6          1           0       -2.858461    2.258120    1.311962
      7          1           0       -4.326754    1.603743    0.487223
      8          1           0       -1.208359    2.744695   -1.338447
      9          1           0       -0.543246    1.970336    0.160239
     10          1           0       -2.954207    0.975514   -1.504460
     11          1           0       -1.763833   -0.090228    1.144316
     12          1           0       -1.648989   -0.881146   -0.476347
     13          1           0       -3.252628   -0.698320    0.321314
 ---------------------------------------------------------------------
                    Distance matrix (angstroms):
                    1          2          3          4          5
     1  C    0.000000
     2  C    1.532250   0.000000
     3  C    2.516927   1.528770   0.000000
     4  C    2.520141   1.530693   2.505940   0.000000
     5  H    1.110963   2.180627   2.761836   3.486896   0.000000
     6  H    1.111447   2.188478   2.786597   2.789062   1.806818
     7  H    1.110937   2.180517   3.483872   2.765632   1.799595
     8  H    2.779431   2.184451   1.110908   3.480034   2.559635
     9  H    2.793346   2.190958   1.111476   2.780985   3.144458
    10  H    2.162155   1.111854   2.154523   2.157745   2.498362
    11  H    2.788962   2.187769   2.777393   1.111531   3.810565
    12  H    3.486554   2.178095   2.743054   1.111087   4.334231
    13  H    2.766033   2.179402   3.475859   1.110972   3.778085
                    6          7          8          9         10
     6  H    0.000000
     7  H    1.806734   0.000000
     8  H    3.159788   3.789357   0.000000
     9  H    2.601827   3.815264   1.813302   0.000000
    10  H    3.096204   2.499071   2.491094   3.094127   0.000000
    11  H    2.596354   3.141635   3.809128   2.589240   3.093349
    12  H    3.809969   3.778037   3.752879   3.123917   2.491545
    13  H    3.142815   2.545735   4.334536   3.806366   2.494840
                   11         12         13
    11  H    0.000000
    12  H    1.807011   0.000000
    13  H    1.806548   1.800373   0.000000
 Stoichiometry    C4H9(2)
 Framework group  C1[X(C4H9)]
 Deg. of freedom    33
 Full point group                 C1      NOp   1
 Largest Abelian subgroup         C1      NOp   1
 Largest concise Abelian subgroup C1      NOp   1
                         Standard orientation:                         
 ---------------------------------------------------------------------
 Center     Atomic      Atomic             Coordinates (Angstroms)
 Number     Number       Type             X           Y           Z
 ---------------------------------------------------------------------
      1          6           0       -0.887298   -1.085070    0.122632
      2          6           0        0.000024    0.052677   -0.393104
      3          6           0       -0.545084    1.407662    0.058575
      4          6           0        1.440734   -0.120410    0.094150
      5          1           0       -1.924198   -0.964236   -0.257472
      6          1           0       -0.912078   -1.092205    1.233780
      7          1           0       -0.499747   -2.063721   -0.232654
      8          1           0       -1.570761    1.569657   -0.336217
      9          1           0       -0.560584    1.484912    1.167255
     10          1           0       -0.000558    0.028663   -1.504699
     11          1           0        1.486870   -0.099610    1.204529
     12          1           0        2.078983    0.696419   -0.305779
     13          1           0        1.851823   -1.089036   -0.262258
 ---------------------------------------------------------------------
 Rotational constants (GHZ):           8.4053776           7.7980061           4.7454627
 Leave Link  202 at Thu Apr  7 19:08:44 2022, MaxMem=  1073741824 cpu:               0.1 elap:               0.0
 (Enter /home/saurabh/gaussian/g16/l301.exe)
 Standard basis: CC-pVTZ (5D, 7F)
 Ernie: Thresh=  0.10000D-02 Tol=  0.10000D-05 Strict=F.
 Ernie:  12 primitive shells out of 176 were deleted.
 There are   275 symmetry adapted cartesian basis functions of A   symmetry.
 There are   246 symmetry adapted basis functions of A   symmetry.
   246 basis functions,   361 primitive gaussians,   275 cartesian basis functions
    17 alpha electrons       16 beta electrons
       nuclear repulsion energy       125.9640236321 Hartrees.
 IExCor=  402 DFT=T Ex+Corr=B3LYP ExCW=0 ScaHFX=  0.200000
 ScaDFX=  0.800000  0.720000  1.000000  0.810000 ScalE2=  1.000000  1.000000
 IRadAn=      5 IRanWt=     -1 IRanGd=            0 ICorTp=0 IEmpDi=  4
 NAtoms=   13 NActive=   13 NUniq=   13 SFac= 1.00D+00 NAtFMM=   60 NAOKFM=F Big=F
 Integral buffers will be    131072 words long.
 Raffenetti 2 integral format.
 Two-electron integral symmetry is turned on.
 Leave Link  301 at Thu Apr  7 19:08:44 2022, MaxMem=  1073741824 cpu:               0.5 elap:               0.1
 (Enter /home/saurabh/gaussian/g16/l302.exe)
 NPDir=0 NMtPBC=     1 NCelOv=     1 NCel=       1 NClECP=     1 NCelD=      1
         NCelK=      1 NCelE2=     1 NClLst=     1 CellRange=     0.0.
 One-electron integrals computed using PRISM.
 One-electron integral symmetry used in STVInt
 NBasis=   246 RedAO= T EigKep=  8.48D-04  NBF=   246
 NBsUse=   246 1.00D-06 EigRej= -1.00D+00 NBFU=   246
 Precomputing XC quadrature grid using
 IXCGrd= 4 IRadAn=           5 IRanWt=          -1 IRanGd=           0 AccXCQ= 0.00D+00.
 Generated NRdTot=       0 NPtTot=           0 NUsed=           0 NTot=          32
 NSgBfM=   275   275   275   275   275 MxSgAt=    13 MxSgA2=    13.
 Leave Link  302 at Thu Apr  7 19:08:44 2022, MaxMem=  1073741824 cpu:               1.7 elap:               0.2
 (Enter /home/saurabh/gaussian/g16/l303.exe)
 DipDrv:  MaxL=1.
 Leave Link  303 at Thu Apr  7 19:08:44 2022, MaxMem=  1073741824 cpu:               0.3 elap:               0.1
 (Enter /home/saurabh/gaussian/g16/l401.exe)
 ExpMin= 1.03D-01 ExpMax= 8.24D+03 ExpMxC= 2.81D+02 IAcc=3 IRadAn=         5 AccDes= 0.00D+00
 Harris functional with IExCor=  402 and IRadAn=       5 diagonalized for initial guess.
 HarFok:  IExCor=  402 AccDes= 0.00D+00 IRadAn=         5 IDoV= 1 UseB2=F ITyADJ=14
 ICtDFT=  3500011 ScaDFX=  1.000000  1.000000  1.000000  1.000000
 FoFCou: FMM=F IPFlag=           0 FMFlag=      100000 FMFlg1=           0
         NFxFlg=           0 DoJE=T BraDBF=F KetDBF=T FulRan=T
         wScrn=  0.000000 ICntrl=       500 IOpCl=  0 I1Cent=   200000004 NGrid=           0
         NMat0=    1 NMatS0=      1 NMatT0=    0 NMatD0=    1 NMtDS0=    0 NMtDT0=    0
 Petite list used in FoFCou.
 Harris En= -157.861510278981    
 JPrj=0 DoOrth=F DoCkMO=F.
 Initial guess <Sx>= 0.0000 <Sy>= 0.0000 <Sz>= 0.5000 <S**2>= 0.7500 S= 0.5000
 Leave Link  401 at Thu Apr  7 19:08:45 2022, MaxMem=  1073741824 cpu:               6.8 elap:               0.9
 (Enter /home/saurabh/gaussian/g16/l502.exe)
 Integral symmetry usage will be decided dynamically.
 UHF open shell SCF:
 Using DIIS extrapolation, IDIIS=  1040.
 NGot=  1073741824 LenX=  1073585516 LenY=  1073509450
 Requested convergence on RMS density matrix=1.00D-08 within1000 cycles.
 Requested convergence on MAX density matrix=1.00D-06.
 Requested convergence on             energy=1.00D-06.
 No special actions if energy rises.
 Fock matrices will be formed incrementally for  20 cycles.
 Integral accuracy reduced to 1.0D-05 until final iterations.

 Cycle   1  Pass 0  IDiag  1:
 FoFJK:  IHMeth= 1 ICntrl=       0 DoSepK=F KAlg= 0 I1Cent=           0 FoldK=F
 IRaf= 990000000 NMat=       1 IRICut=       1 DoRegI=T DoRafI=F ISym2E= 0 IDoP0=0 IntGTp=1.
 FoFCou: FMM=F IPFlag=           0 FMFlag=      100000 FMFlg1=           0
         NFxFlg=           0 DoJE=F BraDBF=F KetDBF=F FulRan=T
         wScrn=  0.000000 ICntrl=         0 IOpCl=  1 I1Cent=           0 NGrid=           0
         NMat0=    1 NMatS0=      1 NMatT0=    0 NMatD0=    1 NMtDS0=    0 NMtDT0=    0
 Symmetry not used in FoFCou.
 E= -157.652108461410    
 DIIS: error= 3.48D-02 at cycle   1 NSaved=   1.
 NSaved= 1 IEnMin= 1 EnMin= -157.652108461410     IErMin= 1 ErrMin= 3.48D-02
 ErrMax= 3.48D-02  0.00D+00 EMaxC= 1.00D-01 BMatC= 7.15D-01 BMatP= 7.15D-01
 IDIUse=3 WtCom= 6.52D-01 WtEn= 3.48D-01
 Coeff-Com:  0.100D+01
 Coeff-En:   0.100D+01
 Coeff:      0.100D+01
 Gap=     0.217 Goal=   None    Shift=    0.000
 Gap=     0.250 Goal=   None    Shift=    0.000
 GapD=    0.217 DampG=1.000 DampE=0.500 DampFc=0.5000 IDamp=-1.
 Damping current iteration by 5.00D-01
 RMSDP=2.88D-03 MaxDP=1.25D-01              OVMax= 1.93D-01

 Cycle   2  Pass 0  IDiag  1:
 RMSU=  1.43D-03    CP:  9.85D-01
 E= -157.725975977165     Delta-E=       -0.073867515755 Rises=F Damp=T
 DIIS: error= 6.24D-03 at cycle   2 NSaved=   2.
 NSaved= 2 IEnMin= 2 EnMin= -157.725975977165     IErMin= 2 ErrMin= 6.24D-03
 ErrMax= 6.24D-03  0.00D+00 EMaxC= 1.00D-01 BMatC= 4.11D-02 BMatP= 7.15D-01
 IDIUse=3 WtCom= 9.38D-01 WtEn= 6.24D-02
 Coeff-Com:  0.942D-01 0.906D+00
 Coeff-En:   0.197D+00 0.803D+00
 Coeff:      0.101D+00 0.899D+00
 Gap=     0.271 Goal=   None    Shift=    0.000
 Gap=     0.268 Goal=   None    Shift=    0.000
 RMSDP=6.27D-04 MaxDP=3.66D-02 DE=-7.39D-02 OVMax= 1.26D-01

 Cycle   3  Pass 0  IDiag  1:
 RMSU=  4.48D-04    CP:  9.89D-01  6.96D-01
 E= -157.833005135646     Delta-E=       -0.107029158482 Rises=F Damp=F
 DIIS: error= 4.02D-03 at cycle   3 NSaved=   3.
 NSaved= 3 IEnMin= 3 EnMin= -157.833005135646     IErMin= 3 ErrMin= 4.02D-03
 ErrMax= 4.02D-03  0.00D+00 EMaxC= 1.00D-01 BMatC= 9.77D-03 BMatP= 4.11D-02
 IDIUse=3 WtCom= 9.60D-01 WtEn= 4.02D-02
 Coeff-Com: -0.137D-01 0.278D+00 0.735D+00
 Coeff-En:   0.000D+00 0.000D+00 0.100D+01
 Coeff:     -0.132D-01 0.267D+00 0.746D+00
 Gap=     0.271 Goal=   None    Shift=    0.000
 Gap=     0.245 Goal=   None    Shift=    0.000
 RMSDP=1.68D-04 MaxDP=6.37D-03 DE=-1.07D-01 OVMax= 1.53D-02

 Cycle   4  Pass 0  IDiag  1:
 RMSU=  1.43D-04    CP:  9.88D-01  7.38D-01  8.62D-01
 E= -157.834843498126     Delta-E=       -0.001838362479 Rises=F Damp=F
 DIIS: error= 1.73D-03 at cycle   4 NSaved=   4.
 NSaved= 4 IEnMin= 4 EnMin= -157.834843498126     IErMin= 4 ErrMin= 1.73D-03
 ErrMax= 1.73D-03  0.00D+00 EMaxC= 1.00D-01 BMatC= 2.74D-03 BMatP= 9.77D-03
 IDIUse=3 WtCom= 9.83D-01 WtEn= 1.73D-02
 Coeff-Com: -0.163D-01 0.523D-01 0.377D+00 0.587D+00
 Coeff-En:   0.000D+00 0.000D+00 0.163D+00 0.837D+00
 Coeff:     -0.161D-01 0.514D-01 0.373D+00 0.592D+00
 Gap=     0.267 Goal=   None    Shift=    0.000
 Gap=     0.251 Goal=   None    Shift=    0.000
 RMSDP=6.22D-05 MaxDP=3.05D-03 DE=-1.84D-03 OVMax= 7.04D-03

 Cycle   5  Pass 0  IDiag  1:
 RMSU=  3.28D-05    CP:  9.88D-01  7.36D-01  9.17D-01  6.75D-01
 E= -157.835469811621     Delta-E=       -0.000626313496 Rises=F Damp=F
 DIIS: error= 3.09D-04 at cycle   5 NSaved=   5.
 NSaved= 5 IEnMin= 5 EnMin= -157.835469811621     IErMin= 5 ErrMin= 3.09D-04
 ErrMax= 3.09D-04  0.00D+00 EMaxC= 1.00D-01 BMatC= 8.38D-05 BMatP= 2.74D-03
 IDIUse=3 WtCom= 9.97D-01 WtEn= 3.09D-03
 Coeff-Com: -0.440D-02-0.158D-03 0.814D-01 0.211D+00 0.712D+00
 Coeff-En:   0.000D+00 0.000D+00 0.000D+00 0.000D+00 0.100D+01
 Coeff:     -0.439D-02-0.157D-03 0.812D-01 0.210D+00 0.713D+00
 Gap=     0.268 Goal=   None    Shift=    0.000
 Gap=     0.250 Goal=   None    Shift=    0.000
 RMSDP=1.51D-05 MaxDP=7.73D-04 DE=-6.26D-04 OVMax= 1.49D-03

 Cycle   6  Pass 0  IDiag  1:
 RMSU=  1.17D-05    CP:  9.88D-01  7.35D-01  9.24D-01  7.21D-01  8.26D-01
 E= -157.835490258801     Delta-E=       -0.000020447180 Rises=F Damp=F
 DIIS: error= 6.58D-05 at cycle   6 NSaved=   6.
 NSaved= 6 IEnMin= 6 EnMin= -157.835490258801     IErMin= 6 ErrMin= 6.58D-05
 ErrMax= 6.58D-05  0.00D+00 EMaxC= 1.00D-01 BMatC= 3.84D-06 BMatP= 8.38D-05
 IDIUse=1 WtCom= 1.00D+00 WtEn= 0.00D+00
 Coeff-Com:  0.179D-03-0.336D-02-0.634D-02 0.857D-02 0.149D+00 0.852D+00
 Coeff:      0.179D-03-0.336D-02-0.634D-02 0.857D-02 0.149D+00 0.852D+00
 Gap=     0.268 Goal=   None    Shift=    0.000
 Gap=     0.251 Goal=   None    Shift=    0.000
 RMSDP=5.15D-06 MaxDP=2.42D-04 DE=-2.04D-05 OVMax= 5.41D-04

 Initial convergence to 1.0D-05 achieved.  Increase integral accuracy.
 Cycle   7  Pass 1  IDiag  1:
 E= -157.835493773066     Delta-E=       -0.000003514265 Rises=F Damp=F
 DIIS: error= 3.26D-05 at cycle   1 NSaved=   1.
 NSaved= 1 IEnMin= 1 EnMin= -157.835493773066     IErMin= 1 ErrMin= 3.26D-05
 ErrMax= 3.26D-05  0.00D+00 EMaxC= 1.00D-01 BMatC= 1.27D-06 BMatP= 1.27D-06
 IDIUse=1 WtCom= 1.00D+00 WtEn= 0.00D+00
 Coeff-Com:  0.100D+01
 Coeff:      0.100D+01
 Gap=     0.268 Goal=   None    Shift=    0.000
 Gap=     0.251 Goal=   None    Shift=    0.000
 RMSDP=5.15D-06 MaxDP=2.42D-04 DE=-3.51D-06 OVMax= 2.58D-04

 Cycle   8  Pass 1  IDiag  1:
 RMSU=  3.88D-06    CP:  1.00D+00
 E= -157.835493847358     Delta-E=       -0.000000074292 Rises=F Damp=F
 DIIS: error= 3.44D-05 at cycle   2 NSaved=   2.
 NSaved= 2 IEnMin= 2 EnMin= -157.835493847358     IErMin= 1 ErrMin= 3.26D-05
 ErrMax= 3.44D-05  0.00D+00 EMaxC= 1.00D-01 BMatC= 1.36D-06 BMatP= 1.27D-06
 IDIUse=1 WtCom= 1.00D+00 WtEn= 0.00D+00
 Coeff-Com:  0.509D+00 0.491D+00
 Coeff:      0.509D+00 0.491D+00
 Gap=     0.268 Goal=   None    Shift=    0.000
 Gap=     0.251 Goal=   None    Shift=    0.000
 RMSDP=1.48D-06 MaxDP=5.60D-05 DE=-7.43D-08 OVMax= 1.51D-04

 Cycle   9  Pass 1  IDiag  1:
 RMSU=  1.20D-06    CP:  1.00D+00  7.74D-01
 E= -157.835494187229     Delta-E=       -0.000000339871 Rises=F Damp=F
 DIIS: error= 6.36D-06 at cycle   3 NSaved=   3.
 NSaved= 3 IEnMin= 3 EnMin= -157.835494187229     IErMin= 3 ErrMin= 6.36D-06
 ErrMax= 6.36D-06  0.00D+00 EMaxC= 1.00D-01 BMatC= 4.55D-08 BMatP= 1.27D-06
 IDIUse=1 WtCom= 1.00D+00 WtEn= 0.00D+00
 Coeff-Com: -0.414D-01 0.843D-01 0.957D+00
 Coeff:     -0.414D-01 0.843D-01 0.957D+00
 Gap=     0.268 Goal=   None    Shift=    0.000
 Gap=     0.251 Goal=   None    Shift=    0.000
 RMSDP=5.33D-07 MaxDP=2.57D-05 DE=-3.40D-07 OVMax= 4.80D-05

 Cycle  10  Pass 1  IDiag  1:
 RMSU=  4.89D-07    CP:  1.00D+00  8.23D-01  1.08D+00
 E= -157.835494205743     Delta-E=       -0.000000018514 Rises=F Damp=F
 DIIS: error= 4.25D-06 at cycle   4 NSaved=   4.
 NSaved= 4 IEnMin= 4 EnMin= -157.835494205743     IErMin= 4 ErrMin= 4.25D-06
 ErrMax= 4.25D-06  0.00D+00 EMaxC= 1.00D-01 BMatC= 9.70D-09 BMatP= 4.55D-08
 IDIUse=1 WtCom= 1.00D+00 WtEn= 0.00D+00
 Coeff-Com: -0.933D-01-0.440D-01 0.338D+00 0.799D+00
 Coeff:     -0.933D-01-0.440D-01 0.338D+00 0.799D+00
 Gap=     0.268 Goal=   None    Shift=    0.000
 Gap=     0.251 Goal=   None    Shift=    0.000
 RMSDP=2.45D-07 MaxDP=1.42D-05 DE=-1.85D-08 OVMax= 2.57D-05

 Cycle  11  Pass 1  IDiag  1:
 RMSU=  1.98D-07    CP:  1.00D+00  8.51D-01  1.16D+00  1.01D+00
 E= -157.835494209804     Delta-E=       -0.000000004061 Rises=F Damp=F
 DIIS: error= 1.01D-06 at cycle   5 NSaved=   5.
 NSaved= 5 IEnMin= 5 EnMin= -157.835494209804     IErMin= 5 ErrMin= 1.01D-06
 ErrMax= 1.01D-06  0.00D+00 EMaxC= 1.00D-01 BMatC= 8.77D-10 BMatP= 9.70D-09
 IDIUse=1 WtCom= 1.00D+00 WtEn= 0.00D+00
 Coeff-Com: -0.183D-01-0.230D-01-0.482D-01 0.199D+00 0.891D+00
 Coeff:     -0.183D-01-0.230D-01-0.482D-01 0.199D+00 0.891D+00
 Gap=     0.268 Goal=   None    Shift=    0.000
 Gap=     0.251 Goal=   None    Shift=    0.000
 RMSDP=8.32D-08 MaxDP=4.35D-06 DE=-4.06D-09 OVMax= 8.61D-06

 Cycle  12  Pass 1  IDiag  1:
 RMSU=  4.40D-08    CP:  1.00D+00  8.57D-01  1.19D+00  1.13D+00  1.06D+00
 E= -157.835494210113     Delta-E=       -0.000000000309 Rises=F Damp=F
 DIIS: error= 5.49D-07 at cycle   6 NSaved=   6.
 NSaved= 6 IEnMin= 6 EnMin= -157.835494210113     IErMin= 6 ErrMin= 5.49D-07
 ErrMax= 5.49D-07  0.00D+00 EMaxC= 1.00D-01 BMatC= 2.59D-10 BMatP= 8.77D-10
 IDIUse=1 WtCom= 1.00D+00 WtEn= 0.00D+00
 Coeff-Com: -0.963D-03-0.796D-02-0.547D-01 0.305D-01 0.464D+00 0.569D+00
 Coeff:     -0.963D-03-0.796D-02-0.547D-01 0.305D-01 0.464D+00 0.569D+00
 Gap=     0.268 Goal=   None    Shift=    0.000
 Gap=     0.251 Goal=   None    Shift=    0.000
 RMSDP=2.45D-08 MaxDP=1.04D-06 DE=-3.09D-10 OVMax= 2.47D-06

 Cycle  13  Pass 1  IDiag  1:
 RMSU=  1.54D-08    CP:  1.00D+00  8.56D-01  1.19D+00  1.14D+00  1.09D+00
                    CP:  6.32D-01
 E= -157.835494210181     Delta-E=       -0.000000000068 Rises=F Damp=F
 DIIS: error= 1.23D-07 at cycle   7 NSaved=   7.
 NSaved= 7 IEnMin= 7 EnMin= -157.835494210181     IErMin= 7 ErrMin= 1.23D-07
 ErrMax= 1.23D-07  0.00D+00 EMaxC= 1.00D-01 BMatC= 9.14D-12 BMatP= 2.59D-10
 IDIUse=1 WtCom= 1.00D+00 WtEn= 0.00D+00
 Coeff-Com:  0.127D-02-0.914D-03-0.148D-01-0.662D-02 0.853D-01 0.194D+00
 Coeff-Com:  0.742D+00
 Coeff:      0.127D-02-0.914D-03-0.148D-01-0.662D-02 0.853D-01 0.194D+00
 Coeff:      0.742D+00
 Gap=     0.268 Goal=   None    Shift=    0.000
 Gap=     0.251 Goal=   None    Shift=    0.000
 RMSDP=5.68D-09 MaxDP=2.39D-07 DE=-6.80D-11 OVMax= 5.64D-07

 SCF Done:  E(UB3LYP) =  -157.835494210     A.U. after   13 cycles
            NFock= 13  Conv=0.57D-08     -V/T= 2.0090
 <Sx>= 0.0000 <Sy>= 0.0000 <Sz>= 0.5000 <S**2>= 0.7530 S= 0.5015
 <L.S>=  0.00000000000    
 KE= 1.564234417927D+02 PE=-6.162249331386D+02 EE= 1.760019735036D+02
 Annihilation of the first spin contaminant:
 S**2 before annihilation     0.7530,   after     0.7500
 Leave Link  502 at Thu Apr  7 19:09:11 2022, MaxMem=  1073741824 cpu:             205.5 elap:              25.7
 (Enter /home/saurabh/gaussian/g16/l801.exe)
 DoSCS=F DFT=T ScalE2(SS,OS)=  1.000000  1.000000
 Range of M.O.s used for correlation:     1   246
 NBasis=   246 NAE=    17 NBE=    16 NFC=     0 NFV=     0
 NROrb=    246 NOA=    17 NOB=    16 NVA=   229 NVB=   230

 **** Warning!!: The largest alpha MO coefficient is  0.14765717D+02


 **** Warning!!: The largest beta MO coefficient is  0.14394145D+02

 Leave Link  801 at Thu Apr  7 19:09:11 2022, MaxMem=  1073741824 cpu:               0.2 elap:               0.0
 (Enter /home/saurabh/gaussian/g16/l1101.exe)
 Using compressed storage, NAtomX=    13.
 Will process     14 centers per pass.
 Leave Link 1101 at Thu Apr  7 19:09:11 2022, MaxMem=  1073741824 cpu:               1.5 elap:               0.2
 (Enter /home/saurabh/gaussian/g16/l1102.exe)
 Symmetrizing basis deriv contribution to polar:
 IMax=3 JMax=2 DiffMx= 0.00D+00
 Leave Link 1102 at Thu Apr  7 19:09:11 2022, MaxMem=  1073741824 cpu:               0.2 elap:               0.1
 (Enter /home/saurabh/gaussian/g16/l1110.exe)
 Forming Gx(P) for the SCF density, NAtomX=    13.
 Integral derivatives from FoFJK, PRISM(SPDF).
 Do as many integral derivatives as possible in FoFJK.
 G2DrvN: MDV=    1073740349.
 G2DrvN: will do    14 centers at a time, making    1 passes.
 Calling FoFCou, ICntrl=  3107 FMM=F I1Cent=   0 AccDes= 0.00D+00.
 FoFJK:  IHMeth= 1 ICntrl=    3107 DoSepK=F KAlg= 0 I1Cent=           0 FoldK=F
 IRaf=         0 NMat=       1 IRICut=       1 DoRegI=T DoRafI=F ISym2E= 0 IDoP0=0 IntGTp=1.
 FoFCou: FMM=F IPFlag=           0 FMFlag=      100000 FMFlg1=           0
         NFxFlg=           0 DoJE=F BraDBF=F KetDBF=F FulRan=T
         wScrn=  0.000000 ICntrl=      3107 IOpCl=  1 I1Cent=           0 NGrid=           0
         NMat0=    1 NMatS0=      1 NMatT0=    0 NMatD0=    1 NMtDS0=    0 NMtDT0=    0
 Symmetry not used in FoFCou.
 End of G2Drv F.D. properties file   721 does not exist.
 End of G2Drv F.D. properties file   722 does not exist.
 End of G2Drv F.D. properties file   788 does not exist.
 Leave Link 1110 at Thu Apr  7 19:09:59 2022, MaxMem=  1073741824 cpu:             379.4 elap:              47.4
 (Enter /home/saurabh/gaussian/g16/l1002.exe)
 Minotr:  UHF open shell wavefunction.
          IDoAtm=1111111111111
          Direct CPHF calculation.
          Differentiating once with respect to nuclear coordinates.
          Requested convergence is 1.0D-08 RMS, and 1.0D-07 maximum.
          Secondary convergence is 1.0D-12 RMS, and 1.0D-12 maximum.
          NewPWx=T KeepS1=F KeepF1=F KeepIn=T MapXYZ=F SortEE=F KeepMc=T.
         3847 words used for storage of precomputed grid.
 Keep R1 and R2 ints in memory in canonical form, NReq=933555493.
 FoFCou: FMM=F IPFlag=           0 FMFlag=           0 FMFlg1=           0
         NFxFlg=           0 DoJE=F BraDBF=F KetDBF=F FulRan=T
         wScrn=  0.000000 ICntrl=       600 IOpCl=  0 I1Cent=           0 NGrid=           0
         NMat0=    1 NMatS0=  30381 NMatT0=    0 NMatD0=    1 NMtDS0=    0 NMtDT0=    0
 Symmetry not used in FoFCou.
 Two-electron integral symmetry not used.
          MDV=    1073741824 using IRadAn=       1.
          Solving linear equations simultaneously, MaxMat=       0.
          There are    42 degrees of freedom in the 1st order CPHF.  IDoFFX=6 NUNeed=     0.
     36 vectors produced by pass  0 Test12= 1.80D-14 2.38D-09 XBig12= 1.54D-01 1.31D-01.
 AX will form    36 AO Fock derivatives at one time.
     36 vectors produced by pass  1 Test12= 1.80D-14 2.38D-09 XBig12= 1.66D-02 2.89D-02.
     36 vectors produced by pass  2 Test12= 1.80D-14 2.38D-09 XBig12= 4.09D-04 4.60D-03.
     36 vectors produced by pass  3 Test12= 1.80D-14 2.38D-09 XBig12= 2.69D-06 2.94D-04.
     36 vectors produced by pass  4 Test12= 1.80D-14 2.38D-09 XBig12= 2.07D-08 1.90D-05.
     36 vectors produced by pass  5 Test12= 1.80D-14 2.38D-09 XBig12= 1.08D-10 1.12D-06.
     16 vectors produced by pass  6 Test12= 1.80D-14 2.38D-09 XBig12= 4.74D-13 7.17D-08.
      3 vectors produced by pass  7 Test12= 1.80D-14 2.38D-09 XBig12= 1.86D-15 4.85D-09.
 InvSVY:  IOpt=1 It=  1 EMax= 1.22D-15
 Solved reduced A of dimension   235 with    36 vectors.
 End of Minotr F.D. properties file   721 does not exist.
 End of Minotr F.D. properties file   722 does not exist.
 End of Minotr F.D. properties file   788 does not exist.
 Leave Link 1002 at Thu Apr  7 19:10:58 2022, MaxMem=  1073741824 cpu:             475.7 elap:              59.5
 (Enter /home/saurabh/gaussian/g16/l601.exe)
 Copying SCF densities to generalized density rwf, IOpCl= 1 IROHF=0.

 **********************************************************************

            Population analysis using the SCF Density.

 **********************************************************************

 Orbital symmetries:
 Alpha Orbitals:
       Occupied  (A) (A) (A) (A) (A) (A) (A) (A) (A) (A) (A) (A)
                 (A) (A) (A) (A) (A)
       Virtual   (A) (A) (A) (A) (A) (A) (A) (A) (A) (A) (A) (A)
                 (A) (A) (A) (A) (A) (A) (A) (A) (A) (A) (A) (A)
                 (A) (A) (A) (A) (A) (A) (A) (A) (A) (A) (A) (A)
                 (A) (A) (A) (A) (A) (A) (A) (A) (A) (A) (A) (A)
                 (A) (A) (A) (A) (A) (A) (A) (A) (A) (A) (A) (A)
                 (A) (A) (A) (A) (A) (A) (A) (A) (A) (A) (A) (A)
                 (A) (A) (A) (A) (A) (A) (A) (A) (A) (A) (A) (A)
                 (A) (A) (A) (A) (A) (A) (A) (A) (A) (A) (A) (A)
                 (A) (A) (A) (A) (A) (A) (A) (A) (A) (A) (A) (A)
                 (A) (A) (A) (A) (A) (A) (A) (A) (A) (A) (A) (A)
                 (A) (A) (A) (A) (A) (A) (A) (A) (A) (A) (A) (A)
                 (A) (A) (A) (A) (A) (A) (A) (A) (A) (A) (A) (A)
                 (A) (A) (A) (A) (A) (A) (A) (A) (A) (A) (A) (A)
                 (A) (A) (A) (A) (A) (A) (A) (A) (A) (A) (A) (A)
                 (A) (A) (A) (A) (A) (A) (A) (A) (A) (A) (A) (A)
                 (A) (A) (A) (A) (A) (A) (A) (A) (A) (A) (A) (A)
                 (A) (A) (A) (A) (A) (A) (A) (A) (A) (A) (A) (A)
                 (A) (A) (A) (A) (A) (A) (A) (A) (A) (A) (A) (A)
                 (A) (A) (A) (A) (A) (A) (A) (A) (A) (A) (A) (A)
                 (A)
 Beta  Orbitals:
       Occupied  (A) (A) (A) (A) (A) (A) (A) (A) (A) (A) (A) (A)
                 (A) (A) (A) (A)
       Virtual   (A) (A) (A) (A) (A) (A) (A) (A) (A) (A) (A) (A)
                 (A) (A) (A) (A) (A) (A) (A) (A) (A) (A) (A) (A)
                 (A) (A) (A) (A) (A) (A) (A) (A) (A) (A) (A) (A)
                 (A) (A) (A) (A) (A) (A) (A) (A) (A) (A) (A) (A)
                 (A) (A) (A) (A) (A) (A) (A) (A) (A) (A) (A) (A)
                 (A) (A) (A) (A) (A) (A) (A) (A) (A) (A) (A) (A)
                 (A) (A) (A) (A) (A) (A) (A) (A) (A) (A) (A) (A)
                 (A) (A) (A) (A) (A) (A) (A) (A) (A) (A) (A) (A)
                 (A) (A) (A) (A) (A) (A) (A) (A) (A) (A) (A) (A)
                 (A) (A) (A) (A) (A) (A) (A) (A) (A) (A) (A) (A)
                 (A) (A) (A) (A) (A) (A) (A) (A) (A) (A) (A) (A)
                 (A) (A) (A) (A) (A) (A) (A) (A) (A) (A) (A) (A)
                 (A) (A) (A) (A) (A) (A) (A) (A) (A) (A) (A) (A)
                 (A) (A) (A) (A) (A) (A) (A) (A) (A) (A) (A) (A)
                 (A) (A) (A) (A) (A) (A) (A) (A) (A) (A) (A) (A)
                 (A) (A) (A) (A) (A) (A) (A) (A) (A) (A) (A) (A)
                 (A) (A) (A) (A) (A) (A) (A) (A) (A) (A) (A) (A)
                 (A) (A) (A) (A) (A) (A) (A) (A) (A) (A) (A) (A)
                 (A) (A) (A) (A) (A) (A) (A) (A) (A) (A) (A) (A)
                 (A) (A)
 The electronic state is 2-A.
 Alpha  occ. eigenvalues --  -10.19001 -10.18573 -10.17448 -10.16630  -0.80842
 Alpha  occ. eigenvalues --   -0.68370  -0.67294  -0.55765  -0.46529  -0.43501
 Alpha  occ. eigenvalues --   -0.41943  -0.39095  -0.38386  -0.34848  -0.33363
 Alpha  occ. eigenvalues --   -0.33145  -0.23653
 Alpha virt. eigenvalues --    0.03156   0.06686   0.07482   0.08252   0.09860
 Alpha virt. eigenvalues --    0.10255   0.12115   0.14038   0.14906   0.15788
 Alpha virt. eigenvalues --    0.18899   0.19209   0.24252   0.24816   0.29220
 Alpha virt. eigenvalues --    0.29815   0.30284   0.31724   0.33277   0.35385
 Alpha virt. eigenvalues --    0.38737   0.43176   0.43236   0.43699   0.43991
 Alpha virt. eigenvalues --    0.45090   0.45704   0.46213   0.47440   0.47808
 Alpha virt. eigenvalues --    0.48512   0.48825   0.49726   0.53767   0.60974
 Alpha virt. eigenvalues --    0.61421   0.65894   0.71320   0.73236   0.75906
 Alpha virt. eigenvalues --    0.77405   0.80489   0.83340   0.87335   0.89063
 Alpha virt. eigenvalues --    0.89840   0.91594   0.93956   0.96398   0.98779
 Alpha virt. eigenvalues --    1.00749   1.01113   1.03069   1.05665   1.09702
 Alpha virt. eigenvalues --    1.10070   1.10385   1.11697   1.13866   1.16408
 Alpha virt. eigenvalues --    1.19223   1.21201   1.22210   1.22904   1.24570
 Alpha virt. eigenvalues --    1.25682   1.28467   1.29511   1.30948   1.31914
 Alpha virt. eigenvalues --    1.36144   1.36893   1.38183   1.40393   1.42835
 Alpha virt. eigenvalues --    1.44482   1.45963   1.47485   1.49524   1.53122
 Alpha virt. eigenvalues --    1.56186   1.61291   1.61580   1.65997   2.11565
 Alpha virt. eigenvalues --    2.20251   2.23495   2.25588   2.28676   2.29489
 Alpha virt. eigenvalues --    2.33006   2.35231   2.41613   2.47501   2.48948
 Alpha virt. eigenvalues --    2.50219   2.53094   2.56058   2.56518   2.59426
 Alpha virt. eigenvalues --    2.60322   2.61635   2.66389   2.67789   2.70101
 Alpha virt. eigenvalues --    2.73626   2.76123   2.76770   2.78804   2.79779
 Alpha virt. eigenvalues --    2.81535   2.83322   2.86342   2.90052   2.90587
 Alpha virt. eigenvalues --    2.96387   2.96522   2.98341   3.00278   3.02076
 Alpha virt. eigenvalues --    3.04230   3.06626   3.07572   3.07970   3.09454
 Alpha virt. eigenvalues --    3.10932   3.11147   3.12521   3.14119   3.19676
 Alpha virt. eigenvalues --    3.24207   3.26556   3.28416   3.30132   3.32937
 Alpha virt. eigenvalues --    3.34152   3.35812   3.37565   3.39712   3.41096
 Alpha virt. eigenvalues --    3.43272   3.43897   3.47675   3.49591   3.49920
 Alpha virt. eigenvalues --    3.54053   3.55020   3.57703   3.60161   3.65258
 Alpha virt. eigenvalues --    3.66049   3.68893   3.70623   3.76115   3.78453
 Alpha virt. eigenvalues --    3.79727   3.81284   3.82447   3.86123   3.86702
 Alpha virt. eigenvalues --    3.89156   3.91271   3.93001   3.94020   3.95625
 Alpha virt. eigenvalues --    3.98259   3.99604   4.01136   4.03939   4.04926
 Alpha virt. eigenvalues --    4.07770   4.09831   4.10807   4.12776   4.13434
 Alpha virt. eigenvalues --    4.14179   4.16912   4.19790   4.22198   4.26608
 Alpha virt. eigenvalues --    4.27698   4.31931   4.32734   4.38256   4.39087
 Alpha virt. eigenvalues --    4.41227   4.51210   4.52676   4.59561   4.60969
 Alpha virt. eigenvalues --    4.67619   4.70282   4.75245   4.76401   4.78328
 Alpha virt. eigenvalues --    4.80769   4.82473   4.84983   4.88919   4.93034
 Alpha virt. eigenvalues --    4.96129   5.03413   5.09253   5.10328   5.12344
 Alpha virt. eigenvalues --    5.13274   5.16083   5.20464   5.24229   5.25660
 Alpha virt. eigenvalues --    5.27939   5.28727   5.30902   5.31558   5.38544
 Alpha virt. eigenvalues --    5.39244   5.42092   5.47856   5.49665   5.74864
 Alpha virt. eigenvalues --    5.82447   5.85607   5.86757   5.87658   5.91348
 Alpha virt. eigenvalues --   10.82101  11.80044  13.15421  13.16312
  Beta  occ. eigenvalues --  -10.18595 -10.17537 -10.17328 -10.16611  -0.80168
  Beta  occ. eigenvalues --   -0.68197  -0.65063  -0.55100  -0.46128  -0.43216
  Beta  occ. eigenvalues --   -0.41147  -0.38844  -0.37805  -0.34307  -0.32941
  Beta  occ. eigenvalues --   -0.32792
  Beta virt. eigenvalues --   -0.07728   0.03286   0.06821   0.07666   0.08640
  Beta virt. eigenvalues --    0.10010   0.10450   0.12287   0.14138   0.15139
  Beta virt. eigenvalues --    0.16054   0.19179   0.19702   0.24359   0.25228
  Beta virt. eigenvalues --    0.29549   0.30114   0.30825   0.33607   0.34414
  Beta virt. eigenvalues --    0.36525   0.39531   0.43415   0.43708   0.43995
  Beta virt. eigenvalues --    0.44440   0.45777   0.45921   0.46573   0.47665
  Beta virt. eigenvalues --    0.48108   0.48734   0.49577   0.50157   0.54744
  Beta virt. eigenvalues --    0.61395   0.62081   0.66707   0.71576   0.73552
  Beta virt. eigenvalues --    0.76070   0.77711   0.81032   0.83988   0.88005
  Beta virt. eigenvalues --    0.89378   0.90034   0.91864   0.94380   0.96660
  Beta virt. eigenvalues --    0.99012   1.01011   1.01260   1.03803   1.06970
  Beta virt. eigenvalues --    1.10000   1.10393   1.10859   1.12446   1.14295
  Beta virt. eigenvalues --    1.16742   1.19926   1.22008   1.23030   1.23440
  Beta virt. eigenvalues --    1.25182   1.26249   1.28683   1.29818   1.31288
  Beta virt. eigenvalues --    1.32385   1.36270   1.37098   1.38358   1.40684
  Beta virt. eigenvalues --    1.43252   1.44845   1.46649   1.47867   1.49770
  Beta virt. eigenvalues --    1.53486   1.57146   1.61716   1.62060   1.66530
  Beta virt. eigenvalues --    2.16337   2.20621   2.24199   2.26309   2.29103
  Beta virt. eigenvalues --    2.30011   2.33938   2.35786   2.42573   2.47796
  Beta virt. eigenvalues --    2.49329   2.50899   2.54051   2.56453   2.57247
  Beta virt. eigenvalues --    2.59815   2.61045   2.62239   2.67311   2.68283
  Beta virt. eigenvalues --    2.70621   2.74287   2.77140   2.78091   2.78907
  Beta virt. eigenvalues --    2.79981   2.83063   2.84066   2.87104   2.91016
  Beta virt. eigenvalues --    2.91406   2.96838   2.98301   2.99194   3.02008
  Beta virt. eigenvalues --    3.02614   3.04979   3.06987   3.08180   3.08693
  Beta virt. eigenvalues --    3.10365   3.11177   3.11627   3.13556   3.15631
  Beta virt. eigenvalues --    3.21914   3.24910   3.27227   3.28899   3.30374
  Beta virt. eigenvalues --    3.33586   3.34435   3.36509   3.38341   3.40059
  Beta virt. eigenvalues --    3.41512   3.43918   3.44343   3.48091   3.50035
  Beta virt. eigenvalues --    3.50136   3.54600   3.55294   3.58101   3.60408
  Beta virt. eigenvalues --    3.65779   3.66356   3.69321   3.71459   3.76883
  Beta virt. eigenvalues --    3.78577   3.79875   3.81626   3.82882   3.86638
  Beta virt. eigenvalues --    3.87063   3.89532   3.91742   3.93311   3.94154
  Beta virt. eigenvalues --    3.95952   3.98589   3.99748   4.01675   4.04442
  Beta virt. eigenvalues --    4.05247   4.08103   4.09993   4.11028   4.12901
  Beta virt. eigenvalues --    4.13727   4.14394   4.17438   4.19947   4.22458
  Beta virt. eigenvalues --    4.26784   4.27942   4.32060   4.32881   4.38458
  Beta virt. eigenvalues --    4.39658   4.41424   4.51327   4.53167   4.60060
  Beta virt. eigenvalues --    4.61203   4.68372   4.70549   4.75521   4.76636
  Beta virt. eigenvalues --    4.79416   4.80955   4.83105   4.85341   4.89105
  Beta virt. eigenvalues --    4.93251   4.97111   5.04873   5.09569   5.10459
  Beta virt. eigenvalues --    5.12522   5.13459   5.16448   5.20868   5.24473
  Beta virt. eigenvalues --    5.25978   5.28118   5.28785   5.31039   5.31788
  Beta virt. eigenvalues --    5.39122   5.39387   5.42297   5.47991   5.50187
  Beta virt. eigenvalues --    5.75088   5.83300   5.85708   5.86888   5.87784
  Beta virt. eigenvalues --    5.91455  10.82727  11.81351  13.15549  13.16344
          Condensed to atoms (all electrons):
               1          2          3          4          5          6
     1  C    4.899515   0.353671  -0.065279  -0.052632   0.397210   0.392835
     2  C    0.353671   4.848654   0.356930   0.346795  -0.037734  -0.035587
     3  C   -0.065279   0.356930   5.225267  -0.054247  -0.001989  -0.002975
     4  C   -0.052632   0.346795  -0.054247   4.872683   0.008481  -0.005354
     5  H    0.397210  -0.037734  -0.001989   0.008481   0.604337  -0.029338
     6  H    0.392835  -0.035587  -0.002975  -0.005354  -0.029338   0.606718
     7  H    0.390463  -0.033620   0.009573  -0.004682  -0.028503  -0.028430
     8  H   -0.001141  -0.046445   0.398263   0.008335   0.004848  -0.000432
     9  H   -0.001981  -0.046119   0.395715  -0.007508  -0.000408   0.005344
    10  H   -0.040685   0.408709  -0.038694  -0.038932  -0.005175   0.008427
    11  H   -0.006409  -0.034863  -0.006408   0.399012  -0.000128   0.005286
    12  H    0.009038  -0.035394   0.000051   0.398407  -0.000579  -0.000216
    13  H   -0.003817  -0.037948   0.008286   0.399241  -0.000173  -0.000569
               7          8          9         10         11         12
     1  C    0.390463  -0.001141  -0.001981  -0.040685  -0.006409   0.009038
     2  C   -0.033620  -0.046445  -0.046119   0.408709  -0.034863  -0.035394
     3  C    0.009573   0.398263   0.395715  -0.038694  -0.006408   0.000051
     4  C   -0.004682   0.008335  -0.007508  -0.038932   0.399012   0.398407
     5  H   -0.028503   0.004848  -0.000408  -0.005175  -0.000128  -0.000579
     6  H   -0.028430  -0.000432   0.005344   0.008427   0.005286  -0.000216
     7  H    0.607529  -0.000359  -0.000384  -0.005562  -0.000408  -0.000269
     8  H   -0.000359   0.600307  -0.043868  -0.007665  -0.000169  -0.000010
     9  H   -0.000384  -0.043868   0.602915   0.008208   0.005089  -0.000287
    10  H   -0.005562  -0.007665   0.008208   0.633217   0.008196  -0.005456
    11  H   -0.000408  -0.000169   0.005089   0.008196   0.611005  -0.029132
    12  H   -0.000269  -0.000010  -0.000287  -0.005456  -0.029132   0.601909
    13  H    0.003996  -0.000617  -0.000207  -0.005705  -0.030889  -0.029440
              13
     1  C   -0.003817
     2  C   -0.037948
     3  C    0.008286
     4  C    0.399241
     5  H   -0.000173
     6  H   -0.000569
     7  H    0.003996
     8  H   -0.000617
     9  H   -0.000207
    10  H   -0.005705
    11  H   -0.030889
    12  H   -0.029440
    13  H    0.614754
          Atomic-Atomic Spin Densities.
               1          2          3          4          5          6
     1  C    0.085984   0.017243  -0.039388  -0.001303  -0.003032  -0.004814
     2  C    0.017243  -0.022128  -0.031179   0.007356  -0.000363  -0.000493
     3  C   -0.039388  -0.031179   1.046353  -0.008304   0.002353   0.003650
     4  C   -0.001303   0.007356  -0.008304   0.009546   0.000029   0.000049
     5  H   -0.003032  -0.000363   0.002353   0.000029  -0.002759   0.000778
     6  H   -0.004814  -0.000493   0.003650   0.000049   0.000778  -0.001997
     7  H   -0.010965  -0.003562   0.004365  -0.000172   0.001707   0.002395
     8  H   -0.003825   0.001452   0.005677   0.000017   0.000291   0.000224
     9  H   -0.003604   0.002416   0.006085   0.000509   0.000164   0.000409
    10  H   -0.005335   0.002225  -0.002651   0.001513   0.000259   0.000159
    11  H   -0.000704   0.000804  -0.000043   0.000135   0.000015   0.000065
    12  H    0.001292  -0.002595   0.006195  -0.003688  -0.000032  -0.000110
    13  H    0.001451  -0.000097   0.000027  -0.000729  -0.000026  -0.000102
               7          8          9         10         11         12
     1  C   -0.010965  -0.003825  -0.003604  -0.005335  -0.000704   0.001292
     2  C   -0.003562   0.001452   0.002416   0.002225   0.000804  -0.002595
     3  C    0.004365   0.005677   0.006085  -0.002651  -0.000043   0.006195
     4  C   -0.000172   0.000017   0.000509   0.001513   0.000135  -0.003688
     5  H    0.001707   0.000291   0.000164   0.000259   0.000015  -0.000032
     6  H    0.002395   0.000224   0.000409   0.000159   0.000065  -0.000110
     7  H    0.023483   0.000321   0.000288   0.001145   0.000167  -0.000306
     8  H    0.000321  -0.023749   0.005769   0.001139   0.000034  -0.000184
     9  H    0.000288   0.005769  -0.025422   0.000047   0.000080  -0.000352
    10  H    0.001145   0.001139   0.000047   0.007062   0.000019  -0.000624
    11  H    0.000167   0.000034   0.000080   0.000019  -0.000073  -0.000079
    12  H   -0.000306  -0.000184  -0.000352  -0.000624  -0.000079   0.001639
    13  H   -0.001055   0.000005  -0.000082  -0.000399  -0.000282   0.001249
              13
     1  C    0.001451
     2  C   -0.000097
     3  C    0.000027
     4  C   -0.000729
     5  H   -0.000026
     6  H   -0.000102
     7  H   -0.001055
     8  H    0.000005
     9  H   -0.000082
    10  H   -0.000399
    11  H   -0.000282
    12  H    0.001249
    13  H   -0.000117
 Mulliken charges and spin densities:
               1          2
     1  C   -0.270789   0.033000
     2  C   -0.007051  -0.028922
     3  C   -0.224494   0.993139
     4  C   -0.269601   0.004957
     5  H    0.089151  -0.000616
     6  H    0.084290   0.000212
     7  H    0.090653   0.017809
     8  H    0.088953  -0.012831
     9  H    0.083489  -0.013693
    10  H    0.081117   0.004560
    11  H    0.079819   0.000138
    12  H    0.091376   0.002404
    13  H    0.083087  -0.000157
 Sum of Mulliken charges =  -0.00000   1.00000
 Mulliken charges and spin densities with hydrogens summed into heavy atoms:
               1          2
     1  C   -0.006695   0.050404
     2  C    0.074066  -0.024361
     3  C   -0.052052   0.966615
     4  C   -0.015319   0.007342
 APT charges:
               1
     1  C   -0.949270
     2  C   -0.244371
     3  C   -0.595499
     4  C   -0.973342
     5  H    0.340082
     6  H    0.262712
     7  H    0.336352
     8  H    0.324866
     9  H    0.246168
    10  H    0.309521
    11  H    0.263091
    12  H    0.350772
    13  H    0.328917
 Sum of APT charges =  -0.00000
 APT charges with hydrogens summed into heavy atoms:
               1
     1  C   -0.010123
     2  C    0.065150
     3  C   -0.024464
     4  C   -0.030562
 Electronic spatial extent (au):  <R**2>=            336.7438
 Charge=              0.0000 electrons
 Dipole moment (field-independent basis, Debye):
    X=             -0.2649    Y=             -0.6685    Z=              0.0118  Tot=              0.7192
 Quadrupole moment (field-independent basis, Debye-Ang):
   XX=            -28.3482   YY=            -30.1790   ZZ=            -27.6108
   XY=             -0.2827   XZ=              0.0108   YZ=              0.4545
 Traceless Quadrupole moment (field-independent basis, Debye-Ang):
   XX=              0.3645   YY=             -1.4664   ZZ=              1.1019
   XY=             -0.2827   XZ=              0.0108   YZ=              0.4545
 Octapole moment (field-independent basis, Debye-Ang**2):
  XXX=             -2.0989  YYY=             -7.0650  ZZZ=              0.8513  XYY=              0.9263
  XXY=              0.7424  XXZ=             -1.4905  XZZ=             -0.0648  YZZ=             -0.2629
  YYZ=             -0.3481  XYZ=              0.0002
 Hexadecapole moment (field-independent basis, Debye-Ang**3):
 XXXX=           -219.4653 YYYY=           -211.2939 ZZZZ=            -67.2347 XXXY=              0.0729
 XXXZ=              1.1015 YYYX=             -0.7914 YYYZ=              2.8351 ZZZX=             -0.1015
 ZZZY=              0.5813 XXYY=            -69.3411 XXZZ=            -48.6704 YYZZ=            -45.5997
 XXYZ=             -0.4714 YYXZ=             -0.8569 ZZXY=              0.0202
 N-N= 1.259640236321D+02 E-N=-6.162249173938D+02  KE= 1.564234417927D+02
  Exact polarizability:       0.000       0.000       0.000       0.000       0.000       0.000
 Approx polarizability:      67.629      -1.558      70.387       0.727       1.277      68.863
                          Isotropic Fermi Contact Couplings
        Atom                 a.u.       MegaHertz       Gauss      10(-4) cm-1
     1  C(13)              0.05451      61.27898      21.86586      20.44047
     2  C(13)             -0.00911     -10.23964      -3.65376      -3.41558
     3  C(13)              0.24387     274.15765      97.82627      91.44915
     4  C(13)              0.00818       9.19492       3.28098       3.06709
     5  H(1)              -0.00017      -0.77514      -0.27659      -0.25856
     6  H(1)              -0.00051      -2.29112      -0.81753      -0.76423
     7  H(1)               0.00635      28.36311      10.12066       9.46092
     8  H(1)              -0.00235     -10.51705      -3.75275      -3.50811
     9  H(1)              -0.00222      -9.90368      -3.53388      -3.30351
    10  H(1)               0.00358      16.01873       5.71588       5.34327
    11  H(1)              -0.00026      -1.17925      -0.42079      -0.39336
    12  H(1)              -0.00026      -1.15465      -0.41201      -0.38515
    13  H(1)               0.00005       0.22182       0.07915       0.07399
 --------------------------------------------------------
       Center         ----  Spin Dipole Couplings  ----
                      3XX-RR        3YY-RR        3ZZ-RR
 --------------------------------------------------------
     1   Atom       -0.020914      0.051789     -0.030875
     2   Atom       -0.020165      0.043478     -0.023313
     3   Atom        0.025282      0.300208     -0.325490
     4   Atom        0.005512      0.004191     -0.009703
     5   Atom        0.004548      0.003831     -0.008379
     6   Atom       -0.007949      0.005495      0.002455
     7   Atom       -0.003108      0.007066     -0.003958
     8   Atom        0.054633     -0.024286     -0.030346
     9   Atom       -0.039418     -0.028415      0.067833
    10   Atom       -0.009021      0.004599      0.004422
    11   Atom        0.001971      0.000057     -0.002027
    12   Atom        0.011089     -0.003127     -0.007962
    13   Atom        0.001275      0.002170     -0.003445
 --------------------------------------------------------
                        XY            XZ            YZ
 --------------------------------------------------------
     1   Atom        0.034571     -0.006575     -0.019114
     2   Atom        0.001393     -0.003369      0.000779
     3   Atom        0.672238     -0.327675     -0.403651
     4   Atom       -0.016034      0.005027     -0.005046
     5   Atom        0.008206      0.002542      0.002216
     6   Atom        0.002076     -0.002731     -0.007771
     7   Atom       -0.001758     -0.002097      0.002292
     8   Atom       -0.002743      0.034378     -0.028595
     9   Atom        0.026610     -0.002774      0.006128
    10   Atom       -0.002861     -0.004246      0.014574
    11   Atom       -0.006077      0.005186     -0.004352
    12   Atom       -0.006422     -0.001888      0.000531
    13   Atom       -0.004599     -0.000630      0.000699
 --------------------------------------------------------


 ---------------------------------------------------------------------------------
              Anisotropic Spin Dipole Couplings in Principal Axis System
 ---------------------------------------------------------------------------------

       Atom             a.u.   MegaHertz   Gauss  10(-4) cm-1        Axes

              Baa    -0.0358    -4.804    -1.714    -1.603 -0.5680  0.3831  0.7284
     1 C(13)  Bbb    -0.0339    -4.543    -1.621    -1.515  0.7391 -0.1519  0.6562
              Bcc     0.0697     9.347     3.335     3.118  0.3621  0.9111 -0.1969
 
              Baa    -0.0255    -3.420    -1.220    -1.141  0.5387 -0.0204  0.8423
     2 C(13)  Bbb    -0.0180    -2.419    -0.863    -0.807  0.8423 -0.0122 -0.5389
              Bcc     0.0435     5.839     2.084     1.948  0.0213  0.9997  0.0106
 
              Baa    -0.5244   -70.363   -25.107   -23.471 -0.4932  0.6723  0.5521
     3 C(13)  Bbb    -0.5216   -69.998   -24.977   -23.349  0.6383 -0.1515  0.7547
              Bcc     1.0460   140.361    50.084    46.819  0.5910  0.7246 -0.3545
 
              Baa    -0.0114    -1.530    -0.546    -0.510  0.2998  0.5587  0.7733
     4 C(13)  Bbb    -0.0111    -1.486    -0.530    -0.496  0.6441  0.4794 -0.5961
              Bcc     0.0225     3.016     1.076     1.006  0.7038 -0.6768  0.2161
 
              Baa    -0.0089    -4.757    -1.698    -1.587 -0.1346 -0.0849  0.9872
     5 H(1)   Bbb    -0.0040    -2.145    -0.765    -0.715 -0.6865  0.7264 -0.0312
              Bcc     0.0129     6.902     2.463     2.302  0.7145  0.6820  0.1561
 
              Baa    -0.0086    -4.602    -1.642    -1.535  0.9737 -0.0180  0.2273
     6 H(1)   Bbb    -0.0038    -2.036    -0.726    -0.679 -0.1606  0.6534  0.7398
              Bcc     0.0124     6.638     2.369     2.214  0.1619  0.7568 -0.6332
 
              Baa    -0.0057    -3.048    -1.088    -1.017  0.6010 -0.0602  0.7970
     7 H(1)   Bbb    -0.0022    -1.191    -0.425    -0.397  0.7755  0.2854 -0.5632
              Bcc     0.0079     4.239     1.513     1.414 -0.1936  0.9565  0.2182
 
              Baa    -0.0614   -32.749   -11.686   -10.924 -0.2175  0.5858  0.7807
     8 H(1)   Bbb    -0.0071    -3.797    -1.355    -1.266  0.3195  0.7985 -0.5101
              Bcc     0.0685    36.545    13.040    12.190  0.9223 -0.1385  0.3608
 
              Baa    -0.0614   -32.744   -11.684   -10.922  0.7729 -0.6328  0.0466
     9 H(1)   Bbb    -0.0069    -3.662    -1.307    -1.222  0.6344  0.7720 -0.0398
              Bcc     0.0682    36.406    12.991    12.144 -0.0108  0.0603  0.9981
 
              Baa    -0.0110    -5.849    -2.087    -1.951  0.6659 -0.4411  0.6017
    10 H(1)   Bbb    -0.0090    -4.799    -1.713    -1.601  0.7261  0.5681 -0.3873
              Bcc     0.0200    10.648     3.799     3.552 -0.1710  0.6948  0.6986
 
              Baa    -0.0056    -2.999    -1.070    -1.000 -0.4259  0.2174  0.8782
    11 H(1)   Bbb    -0.0051    -2.738    -0.977    -0.913  0.6048  0.7903  0.0977
              Bcc     0.0108     5.737     2.047     1.914  0.6729 -0.5728  0.4681
 
              Baa    -0.0082    -4.349    -1.552    -1.451  0.1089  0.0341  0.9935
    12 H(1)   Bbb    -0.0056    -2.980    -1.063    -0.994  0.3515  0.9335 -0.0706
              Bcc     0.0137     7.329     2.615     2.445  0.9298 -0.3569 -0.0897
 
              Baa    -0.0035    -1.886    -0.673    -0.629  0.0604 -0.0733  0.9955
    13 H(1)   Bbb    -0.0029    -1.546    -0.552    -0.516  0.7408  0.6717  0.0046
              Bcc     0.0064     3.432     1.225     1.145 -0.6690  0.7372  0.0949
 

 ---------------------------------------------------------------------------------

 No NMR shielding tensors so no spin-rotation constants.
 Leave Link  601 at Thu Apr  7 19:10:59 2022, MaxMem=  1073741824 cpu:               2.2 elap:               0.3
 (Enter /home/saurabh/gaussian/g16/l701.exe)
 ... and contract with generalized density number  0.
 Compute integral second derivatives.
 Leave Link  701 at Thu Apr  7 19:10:59 2022, MaxMem=  1073741824 cpu:               1.6 elap:               0.2
 (Enter /home/saurabh/gaussian/g16/l702.exe)
 L702 exits ... SP integral derivatives will be done elsewhere.
 Leave Link  702 at Thu Apr  7 19:10:59 2022, MaxMem=  1073741824 cpu:               0.2 elap:               0.0
 (Enter /home/saurabh/gaussian/g16/l703.exe)
 Integral derivatives from FoFJK, PRISM(SPDF).
 Compute integral second derivatives, UseDBF=F ICtDFT=           0.
 Calling FoFJK, ICntrl=    100127 FMM=F ISym2X=0 I1Cent= 0 IOpClX= 1 NMat=1 NMatS=1 NMatT=0.
 FoFJK:  IHMeth= 1 ICntrl=  100127 DoSepK=F KAlg= 0 I1Cent=           0 FoldK=F
 IRaf=         0 NMat=       1 IRICut=       1 DoRegI=T DoRafI=F ISym2E= 0 IDoP0=0 IntGTp=1.
 FoFCou: FMM=F IPFlag=           0 FMFlag=      100000 FMFlg1=         800
         NFxFlg=           0 DoJE=F BraDBF=F KetDBF=F FulRan=T
         wScrn=  0.000000 ICntrl=    100127 IOpCl=  1 I1Cent=           0 NGrid=           0
         NMat0=    1 NMatS0=      1 NMatT0=    0 NMatD0=    1 NMtDS0=    0 NMtDT0=    0
 Symmetry not used in FoFCou.
 Leave Link  703 at Thu Apr  7 19:12:31 2022, MaxMem=  1073741824 cpu:             736.4 elap:              92.1
 (Enter /home/saurabh/gaussian/g16/l716.exe)
 Dipole        =-1.04208263D-01-2.63005053D-01 4.63001120D-03
 Polarizability= 0.00000000D+00 0.00000000D+00 0.00000000D+00
                 0.00000000D+00 0.00000000D+00 0.00000000D+00
 ***** Axes restored to original set *****
 -------------------------------------------------------------------
 Center     Atomic                   Forces (Hartrees/Bohr)
 Number     Number              X              Y              Z
 -------------------------------------------------------------------
      1        6          -0.005301565    0.009999075    0.001189463
      2        6           0.014535896   -0.011229345   -0.012428720
      3        6          -0.028989060    0.032714476    0.023986408
      4        6          -0.002382250   -0.010847545   -0.000246148
      5        1           0.000326813   -0.009315854    0.008253402
      6        1          -0.006246032   -0.001424518   -0.010508254
      7        1           0.010360221    0.005395325   -0.000651319
      8        1           0.010710499   -0.014667776   -0.003498058
      9        1           0.004098939   -0.009497469   -0.014621427
     10        1           0.003431582    0.002005318    0.009373059
     11        1          -0.005416140   -0.002385744   -0.010470870
     12        1          -0.006640650    0.006018010    0.009376594
     13        1           0.011511747    0.003236048    0.000245871
 -------------------------------------------------------------------
 Cartesian Forces:  Max     0.032714476 RMS     0.011205029
 Force constants in Cartesian coordinates: 
                1             2             3             4             5 
      1  0.489825D+00
      2  0.286544D-01  0.492608D+00
      3  0.303971D-01 -0.311157D-01  0.493456D+00
      4 -0.956384D-01  0.253629D-01  0.248472D-01  0.435977D+00
      5  0.408656D-01 -0.105003D+00 -0.369518D-01  0.122773D-01  0.451420D+00
      6  0.305280D-01 -0.281761D-01 -0.103859D+00  0.574735D-01  0.185046D-02
      7 -0.318671D-01 -0.344699D-02  0.111588D-01 -0.141857D+00 -0.277629D-01
      8  0.112652D-01  0.860649D-02 -0.298823D-03 -0.479793D-01 -0.852201D-01
      9  0.190483D-01  0.645716D-02 -0.513491D-02 -0.960822D-03  0.609592D-02
     10 -0.342648D-02  0.216375D-01 -0.760427D-02 -0.767646D-01  0.768128D-02
     11  0.786526D-02 -0.272120D-01  0.812234D-02  0.127935D-01 -0.154025D+00
     12  0.250958D-02 -0.165118D-01  0.811255D-02 -0.101649D-01  0.417421D-01
     13 -0.540376D-01  0.228051D-01 -0.134108D-01 -0.424109D-02  0.155465D-01
     14  0.238451D-01 -0.214877D+00  0.905536D-01  0.315318D-02 -0.181520D-01
     15 -0.144250D-01  0.920914D-01 -0.101646D+00  0.234046D-02 -0.162414D-01
     16 -0.923813D-01 -0.159761D-01 -0.855484D-01  0.691692D-02  0.273132D-02
     17 -0.156599D-01 -0.564519D-01 -0.303143D-01 -0.819299D-02 -0.444605D-02
     18 -0.845436D-01 -0.309476D-01 -0.220596D+00 -0.636984D-02 -0.391301D-02
     19 -0.224268D+00 -0.845729D-01  0.259597D-01 -0.180043D-01 -0.736984D-02
     20 -0.854571D-01 -0.891856D-01  0.138913D-01  0.193010D-01  0.586885D-02
     21  0.257888D-01  0.136911D-01 -0.535223D-01  0.179927D-01  0.667688D-02
     22  0.159407D-02 -0.337268D-03 -0.345176D-03  0.319655D-02 -0.256244D-01
     23 -0.524809D-03 -0.724548D-03 -0.729330D-04  0.392736D-02 -0.899752D-02
     24 -0.191011D-02 -0.986639D-03  0.335067D-03 -0.217188D-02  0.883259D-02
     25  0.217718D-02  0.237060D-03 -0.124267D-02 -0.151068D-01 -0.692965D-02
     26 -0.142001D-02 -0.999374D-03 -0.159981D-04 -0.696984D-02  0.321771D-02
     27 -0.519593D-03 -0.192705D-03  0.689111D-03  0.334042D-02  0.200864D-02
     28  0.734366D-02  0.449138D-02  0.175968D-01 -0.917679D-01 -0.153379D-01
     29 -0.731330D-02 -0.468069D-02 -0.191269D-01 -0.157480D-01 -0.563991D-01
     30 -0.751532D-02 -0.453676D-02 -0.177769D-01 -0.839203D-01 -0.263128D-01
     31 -0.103620D-03 -0.560919D-03 -0.578865D-03 -0.303743D-02 -0.788983D-04
     32 -0.193310D-03  0.181517D-02  0.114017D-02  0.136899D-01  0.262057D-02
     33  0.674826D-03 -0.859098D-03  0.785683D-03 -0.732636D-02 -0.119179D-02
     34  0.126974D-03  0.119938D-02 -0.892113D-03 -0.257513D-02  0.144865D-02
     35 -0.303710D-03 -0.536948D-02  0.421133D-02  0.153255D-01 -0.172812D-01
     36  0.803659D-04  0.226897D-02 -0.959347D-03 -0.912126D-02  0.975368D-02
     37  0.655046D-03  0.506400D-03 -0.337324D-03  0.290253D-02  0.255284D-02
     38 -0.162332D-02  0.147385D-02 -0.223496D-04 -0.269404D-01 -0.136033D-01
     39 -0.113384D-03 -0.118221D-02  0.116087D-03  0.140411D-01  0.765047D-02
                6             7             8             9            10 
      6  0.514442D+00
      7  0.115995D-01  0.333111D+00
      8  0.179105D-01  0.582906D-01  0.371689D+00
      9 -0.783992D-01  0.996757D-01 -0.943357D-01  0.401177D+00
     10 -0.914363D-02  0.214214D-02 -0.277924D-01  0.150033D-01  0.525491D+00
     11  0.369997D-01 -0.541483D-02 -0.199806D-01  0.106772D-01  0.949688D-02
     12 -0.984279D-01  0.372672D-02  0.967314D-02 -0.448134D-02 -0.619871D-02
     13 -0.921643D-02  0.108811D-02  0.104336D-02 -0.118080D-02 -0.225822D-02
     14  0.915157D-02 -0.171146D-02  0.542849D-03  0.557371D-03  0.277246D-02
     15  0.872432D-02 -0.569193D-03 -0.659576D-03  0.560260D-03  0.220741D-02
     16  0.163861D-01  0.192414D-02  0.330059D-03  0.111168D-02  0.680298D-03
     17 -0.181082D-01 -0.110550D-02 -0.360217D-04  0.782333D-03 -0.119133D-02
     18 -0.188713D-01 -0.175921D-02 -0.655720D-05  0.787123D-03 -0.337832D-03
     19  0.296155D-02 -0.217490D-02  0.334859D-02  0.330750D-02  0.543427D-03
     20 -0.384385D-02  0.177248D-02 -0.168675D-02 -0.158410D-02  0.578856D-03
     21 -0.443933D-02  0.211837D-02 -0.262004D-02 -0.150826D-02 -0.838551D-03
     22  0.150109D-01 -0.515685D-01  0.264147D-01 -0.269018D-01 -0.553362D-02
     23  0.939965D-02  0.129684D-01 -0.217142D+00  0.113172D+00 -0.380796D-02
     24  0.796167D-03 -0.156948D-01  0.890441D-01 -0.994890D-01  0.244710D-02
     25 -0.267998D-01 -0.952084D-01 -0.195022D-01 -0.857090D-01  0.117066D-02
     26 -0.101772D-01 -0.307799D-01 -0.526554D-01 -0.330764D-01  0.250789D-03
     27  0.293191D-02 -0.108862D+00 -0.199921D-01 -0.218394D+00  0.443971D-03
     28 -0.859486D-01 -0.175924D-01 -0.461598D-02 -0.247797D-01 -0.197683D-02
     29 -0.273144D-01 -0.680383D-02 -0.165741D-02 -0.116134D-01  0.138379D-01
     30 -0.212994D+00  0.102568D-02  0.317868D-03  0.511795D-02 -0.689507D-02
     31 -0.417743D-02  0.551507D-03 -0.128582D-03  0.122792D-02 -0.953841D-01
     32  0.265723D-01  0.110752D-02  0.146022D-02  0.204075D-03 -0.130405D-01
     33 -0.157671D-01 -0.707851D-03 -0.106604D-02  0.361860D-03 -0.867489D-01
     34  0.169399D-02  0.515643D-03 -0.759360D-03 -0.201471D-03 -0.119381D+00
     35 -0.174107D-01  0.637613D-03  0.868863D-03 -0.702831D-03  0.710729D-01
     36  0.874443D-02 -0.243189D-03 -0.164423D-03  0.484545D-03  0.713913D-01
     37 -0.367585D-03  0.935686D-03  0.853430D-04  0.359256D-03 -0.225302D+00
     38  0.314630D-02  0.224873D-02 -0.478902D-02  0.336591D-02 -0.814965D-01
     39 -0.288131D-02 -0.146861D-02  0.219769D-02 -0.108129D-02  0.262739D-01
               11            12            13            14            15 
     11  0.467247D+00
     12  0.338249D-01  0.508963D+00
     13  0.184388D-02  0.283732D-02  0.562912D-01
     14 -0.167592D-02 -0.405213D-02 -0.294475D-01  0.238957D+00
     15 -0.170889D-02 -0.166355D-02  0.131604D-01 -0.997869D-01  0.107040D+00
     16 -0.822526D-03  0.383217D-03 -0.243740D-02 -0.644227D-03 -0.255651D-02
     17  0.113518D-02 -0.105608D-02  0.119960D-01  0.588199D-02  0.238947D-01
     18  0.116374D-02  0.852473D-03 -0.568257D-02 -0.233498D-02 -0.120140D-01
     19 -0.127237D-02 -0.480242D-03  0.468078D-02  0.161592D-02 -0.385155D-03
     20  0.136600D-02 -0.965661D-04 -0.241353D-01 -0.112587D-01  0.297035D-02
     21  0.720553D-03  0.337207D-03  0.131460D-01  0.577940D-02 -0.258181D-02
     22 -0.148713D-02  0.515719D-03 -0.210334D-03  0.537723D-03  0.258269D-04
     23 -0.302241D-03  0.717573D-04 -0.309966D-03  0.693706D-03  0.109009D-03
     24  0.274604D-03  0.692923D-03  0.390784D-03 -0.244131D-03  0.547927D-04
     25  0.115030D-02 -0.390823D-03 -0.171192D-03  0.119280D-03  0.101305D-03
     26  0.123190D-02 -0.188069D-02  0.109482D-03 -0.182672D-04  0.895689D-04
     27  0.215571D-03  0.768865D-03  0.119097D-03 -0.115370D-03 -0.116304D-03
     28 -0.160281D-03 -0.332301D-02  0.601383D-03 -0.562511D-03 -0.589861D-03
     29  0.221355D-02  0.268875D-01 -0.675239D-03  0.464275D-03  0.337318D-03
     30 -0.328699D-03 -0.140381D-01  0.288446D-04 -0.248525D-03  0.908747D-03
     31 -0.123519D-01 -0.870161D-01  0.104711D-03 -0.273400D-05  0.343898D-03
     32 -0.536581D-01 -0.256115D-01 -0.318659D-03  0.238143D-03 -0.200735D-03
     33 -0.241732D-01 -0.219736D+00  0.215909D-03  0.863358D-04  0.283071D-03
     34  0.725657D-01  0.706926D-01  0.292965D-03  0.394632D-03  0.376458D-03
     35 -0.126559D+00 -0.749098D-01  0.130918D-02 -0.126006D-02 -0.993621D-03
     36 -0.775523D-01 -0.126179D+00 -0.389424D-03  0.742932D-03  0.643041D-03
     37 -0.842065D-01  0.269086D-01  0.296658D-03 -0.697774D-04 -0.300214D-04
     38 -0.897806D-01  0.119192D-01  0.233069D-03  0.463953D-03  0.988342D-04
     39  0.117645D-01 -0.552017D-01 -0.182583D-04 -0.891836D-04 -0.192659D-03
               16            17            18            19            20 
     16  0.980006D-01
     17  0.157078D-01  0.581608D-01
     18  0.926396D-01  0.379202D-01  0.244450D+00
     19 -0.111108D-01 -0.510005D-02  0.184631D-02  0.247477D+00
     20 -0.348087D-02 -0.271443D-02  0.785357D-03  0.928547D-01  0.960812D-01
     21 -0.244228D-01 -0.120129D-01  0.493388D-02 -0.324822D-01 -0.132422D-01
     22 -0.175840D-03  0.132484D-03  0.728176D-04  0.369951D-03 -0.752438D-04
     23  0.535608D-04  0.881520D-05 -0.644375D-04 -0.406643D-03  0.510849D-03
     24  0.742914D-04  0.757303D-04 -0.729353D-04 -0.461520D-03  0.158826D-03
     25 -0.771986D-05  0.364170D-03  0.861525D-03  0.593663D-03 -0.139697D-03
     26  0.972394D-04  0.369741D-03  0.276304D-03 -0.235750D-03  0.300451D-03
     27 -0.329193D-03  0.196799D-03  0.274992D-03 -0.200834D-03  0.219231D-03
     28 -0.141289D-02  0.251224D-02  0.277207D-02  0.967902D-03 -0.684443D-03
     29  0.237401D-02 -0.194723D-02 -0.233224D-02  0.608454D-04  0.711049D-03
     30  0.265597D-02 -0.225178D-02 -0.830018D-03  0.178196D-03  0.714030D-03
     31  0.701585D-04  0.465680D-03  0.254369D-03 -0.482142D-04 -0.107060D-04
     32 -0.205645D-03 -0.116753D-03 -0.662656D-03  0.447608D-04 -0.103533D-03
     33 -0.325470D-03  0.520129D-03  0.741255D-03  0.343362D-04  0.351755D-04
     34  0.972868D-05  0.749074D-04  0.200186D-03  0.549063D-03 -0.248802D-03
     35 -0.243789D-03  0.250593D-03  0.150468D-03  0.329259D-04  0.332665D-03
     36  0.739765D-04  0.365186D-03  0.311959D-03 -0.104691D-04 -0.106299D-04
     37 -0.758608D-04 -0.348138D-05  0.461415D-04  0.423807D-03 -0.274829D-03
     38  0.792213D-04 -0.947342D-04 -0.346251D-04  0.999856D-03 -0.222107D-03
     39 -0.142409D-03 -0.118432D-04  0.331239D-04 -0.267126D-03  0.311638D-05
               21            22            23            24            25 
     21  0.554170D-01
     22 -0.358609D-03  0.476512D-01
     23  0.313563D-04 -0.101653D-01  0.221572D+00
     24  0.309933D-03  0.213160D-01 -0.119776D+00  0.106625D+00
     25 -0.802184D-05  0.332343D-02 -0.212327D-02 -0.479370D-02  0.107513D+00
     26  0.534388D-03  0.115505D-01  0.459415D-02  0.226530D-01  0.298195D-01
     27  0.404790D-03 -0.973648D-02 -0.272184D-02 -0.103205D-01  0.115090D+00
     28 -0.458996D-03  0.114293D-02  0.337779D-03  0.964206D-03 -0.479218D-02
     29  0.678020D-03  0.671099D-03  0.277844D-03 -0.320185D-03 -0.276660D-02
     30  0.399103D-03 -0.582240D-03 -0.719704D-03  0.531646D-03  0.185426D-02
     31 -0.102332D-03 -0.588407D-05  0.120471D-03  0.172424D-04  0.401391D-03
     32 -0.990020D-04  0.747505D-04  0.196354D-03 -0.361964D-03 -0.426114D-03
     33  0.118243D-04  0.293925D-03 -0.199885D-04  0.437646D-03  0.748186D-03
     34 -0.175821D-03  0.591433D-05  0.809466D-04 -0.752297D-04 -0.665787D-04
     35  0.168412D-03  0.819660D-04  0.251624D-03  0.629469D-05 -0.120789D-03
     36 -0.189194D-03 -0.227785D-03 -0.684443D-04  0.565789D-04  0.107528D-03
     37 -0.198458D-03  0.210117D-03 -0.150605D-03 -0.102388D-03  0.173870D-03
     38 -0.305950D-03 -0.177387D-02 -0.938317D-03  0.643919D-03  0.318017D-03
     39  0.427188D-03  0.916906D-03  0.659309D-03  0.430576D-04  0.181327D-03
               26            27            28            29            30 
     26  0.445741D-01
     27  0.207165D-01  0.222020D+00
     28 -0.291401D-02  0.743501D-03  0.106495D+00
     29 -0.420933D-03  0.488257D-03  0.157157D-01  0.640458D-01
     30  0.313413D-04  0.123856D-02  0.926738D-01  0.302516D-01  0.236442D+00
     31  0.431912D-04 -0.112739D-03  0.706673D-03  0.983899D-03  0.236205D-04
     32 -0.138484D-03 -0.570141D-03  0.799679D-03 -0.489613D-02  0.293852D-02
     33  0.684382D-03  0.318927D-03  0.618890D-04  0.331694D-02 -0.132484D-04
     34  0.115348D-03 -0.304472D-04 -0.265206D-03  0.401946D-04 -0.921375D-04
     35 -0.202102D-03 -0.426310D-04  0.920732D-04  0.113523D-02  0.189364D-03
     36 -0.578261D-04 -0.113018D-03 -0.583017D-04 -0.706233D-03  0.862405D-03
     37  0.333500D-03  0.543413D-04  0.550305D-03 -0.376754D-03  0.564713D-03
     38  0.146596D-03 -0.210156D-03  0.326226D-03  0.115377D-02 -0.444480D-04
     39  0.222622D-03  0.297010D-03  0.346226D-03 -0.546376D-03  0.151109D-03
               31            32            33            34            35 
     31  0.998777D-01
     32  0.129678D-01  0.574049D-01
     33  0.988649D-01  0.241656D-01  0.242352D+00
     34  0.859093D-02 -0.948057D-02 -0.789832D-02  0.127089D+00
     35  0.126968D-02 -0.247910D-02 -0.175996D-02 -0.821487D-01  0.141461D+00
     36  0.156786D-01 -0.154968D-01 -0.149189D-01 -0.791645D-01  0.825980D-01
     37 -0.117238D-01 -0.501961D-02  0.211294D-02 -0.148916D-01 -0.700480D-02
     38 -0.271699D-02 -0.234327D-02  0.261488D-03  0.167177D-01  0.885041D-02
     39 -0.244231D-01 -0.120179D-01  0.514298D-02  0.155668D-01  0.849575D-02
               36            37            38            39 
     36  0.134124D+00
     37  0.188313D-02  0.245845D+00
     38 -0.167220D-02  0.936282D-01  0.996827D-01
     39 -0.286734D-02 -0.308934D-01 -0.171459D-01  0.560137D-01
 FormGI is forming the generalized inverse of G from B-inverse, IUseBI=4.
 Leave Link  716 at Thu Apr  7 19:12:31 2022, MaxMem=  1073741824 cpu:               0.2 elap:               0.0
 (Enter /home/saurabh/gaussian/g16/l103.exe)

 GradGradGradGradGradGradGradGradGradGradGradGradGradGradGradGradGradGrad
 Berny optimization.
 Red2BG is reusing G-inverse.
 Internal  Forces:  Max     0.016705677 RMS     0.006431579
 Search for a local minimum.
 Step number   1 out of a maximum of  100
 All quantities printed in internal units (Hartrees-Bohrs-Radians)
 RMS Force = .64316D-02 SwitMx=.10000D-02 MixMth= 1
 Mixed Optimization -- RFO/linear search
 Second derivative matrix not updated -- analytic derivatives used.
 ITU=  0
     Eigenvalues ---    0.00216   0.00283   0.00306   0.03621   0.03929
     Eigenvalues ---    0.04116   0.04401   0.04446   0.04517   0.04606
     Eigenvalues ---    0.04890   0.11238   0.11574   0.12014   0.12514
     Eigenvalues ---    0.13350   0.14009   0.14472   0.14938   0.16812
     Eigenvalues ---    0.18583   0.25673   0.27322   0.28358   0.29372
     Eigenvalues ---    0.29383   0.29495   0.29656   0.29826   0.29906
     Eigenvalues ---    0.30238   0.30518   0.31442
 RFO step:  Lambda=-1.54384577D-02 EMin= 2.15920592D-03
 Linear search not attempted -- first point.
 Iteration  1 RMS(Cart)=  0.04932451 RMS(Int)=  0.00714440
 Iteration  2 RMS(Cart)=  0.00594891 RMS(Int)=  0.00465210
 Iteration  3 RMS(Cart)=  0.00007698 RMS(Int)=  0.00465173
 Iteration  4 RMS(Cart)=  0.00000149 RMS(Int)=  0.00465172
 Iteration  5 RMS(Cart)=  0.00000003 RMS(Int)=  0.00465172
 ITry= 1 IFail=0 DXMaxC= 1.31D-01 DCOld= 1.00D+10 DXMaxT= 3.00D-01 DXLimC= 3.00D+00 Rises=F
 Variable       Old X    -DE/DX   Delta X   Delta X   Delta X     New X
                                 (Linear)    (Quad)   (Total)
    R1        2.89553   0.00235   0.00000   0.02057   0.02057   2.91611
    R2        2.09942  -0.01204   0.00000  -0.03905  -0.03905   2.06037
    R3        2.10033  -0.01224   0.00000  -0.03780  -0.03780   2.06253
    R4        2.09937  -0.01164   0.00000  -0.03522  -0.03522   2.06415
    R5        2.88896  -0.01004   0.00000  -0.06628  -0.06628   2.82268
    R6        2.89259   0.00268   0.00000   0.00533   0.00533   2.89792
    R7        2.10110  -0.01009   0.00000  -0.03150  -0.03150   2.06960
    R8        2.09931  -0.01207   0.00000  -0.04951  -0.04951   2.04980
    R9        2.10039  -0.01205   0.00000  -0.04786  -0.04786   2.05252
   R10        2.10049  -0.01198   0.00000  -0.03601  -0.03601   2.06448
[...]
 ! R12   R(4,13)                 1.0912         -DE/DX =    0.0                 !
 ! A1    A(2,1,5)              111.1779         -DE/DX =    0.0                 !
 ! A2    A(2,1,6)              110.6982         -DE/DX =    0.0                 !
 ! A3    A(2,1,7)              111.0145         -DE/DX =    0.0                 !
 ! A4    A(5,1,6)              107.8592         -DE/DX =    0.0                 !
 ! A5    A(5,1,7)              107.9217         -DE/DX =    0.0                 !
 ! A6    A(6,1,7)              108.0347         -DE/DX =    0.0                 !
 ! A7    A(1,2,3)              111.8114         -DE/DX =    0.0                 !
 ! A8    A(1,2,4)              111.4986         -DE/DX =    0.0                 !
 ! A9    A(1,2,10)             106.752          -DE/DX =    0.0                 !
 ! A10   A(3,2,4)              111.8119         -DE/DX =    0.0                 !
 ! A11   A(3,2,10)             107.8779         -DE/DX =    0.0                 !
 ! A12   A(4,2,10)             106.7556         -DE/DX =    0.0                 !
 ! A13   A(2,3,8)              120.8376         -DE/DX =    0.0                 !
 ! A14   A(2,3,9)              120.8393         -DE/DX =    0.0                 !
 ! A15   A(8,3,9)              117.752          -DE/DX =    0.0                 !
 ! A16   A(2,4,11)             110.698          -DE/DX =    0.0                 !
 ! A17   A(2,4,12)             111.1781         -DE/DX =    0.0                 !
 ! A18   A(2,4,13)             111.0151         -DE/DX =    0.0                 !
 ! A19   A(11,4,12)            107.8592         -DE/DX =    0.0                 !
 ! A20   A(11,4,13)            108.034          -DE/DX =    0.0                 !
 ! A21   A(12,4,13)            107.9216         -DE/DX =    0.0                 !
 ! D1    D(5,1,2,3)             55.7588         -DE/DX =    0.0                 !
 ! D2    D(5,1,2,4)           -178.2422         -DE/DX =    0.0                 !
 ! D3    D(5,1,2,10)           -62.0017         -DE/DX =    0.0                 !
 ! D4    D(6,1,2,3)            -64.1068         -DE/DX =    0.0                 !
 ! D5    D(6,1,2,4)             61.8922         -DE/DX =    0.0                 !
 ! D6    D(6,1,2,10)           178.1327         -DE/DX =    0.0                 !
 ! D7    D(7,1,2,3)            175.9144         -DE/DX =    0.0                 !
 ! D8    D(7,1,2,4)            -58.0866         -DE/DX =    0.0                 !
 ! D9    D(7,1,2,10)            58.1538         -DE/DX =    0.0                 !
 ! D10   D(1,2,3,8)            -31.5419         -DE/DX =    0.0                 !
 ! D11   D(1,2,3,9)            157.3186         -DE/DX =    0.0                 !
 ! D12   D(4,2,3,8)           -157.3691         -DE/DX =    0.0                 !
 ! D13   D(4,2,3,9)             31.4913         -DE/DX =    0.0                 !
 ! D14   D(10,2,3,8)            85.5422         -DE/DX =    0.0                 !
 ! D15   D(10,2,3,9)           -85.5973         -DE/DX =    0.0                 !
 ! D16   D(1,2,4,11)           -61.8979         -DE/DX =    0.0                 !
 ! D17   D(1,2,4,12)           178.2364         -DE/DX =    0.0                 !
 ! D18   D(1,2,4,13)            58.0803         -DE/DX =    0.0                 !
 ! D19   D(3,2,4,11)            64.1008         -DE/DX =    0.0                 !
 ! D20   D(3,2,4,12)           -55.7649         -DE/DX =    0.0                 !
 ! D21   D(3,2,4,13)          -175.9209         -DE/DX =    0.0                 !
 ! D22   D(10,2,4,11)         -178.1362         -DE/DX =    0.0                 !
 ! D23   D(10,2,4,12)           61.9981         -DE/DX =    0.0                 !
 ! D24   D(10,2,4,13)          -58.1579         -DE/DX =    0.0                 !
 --------------------------------------------------------------------------------
 GradGradGradGradGradGradGradGradGradGradGradGradGradGradGradGradGradGrad

 Leave Link  103 at Thu Apr  7 19:23:05 2022, MaxMem=  1073741824 cpu:               0.1 elap:               0.0
 (Enter /home/saurabh/gaussian/g16/l9999.exe)

 ----------------------------------------------------------------------

 Electric dipole moment (input orientation):
 (Debye = 10**-18 statcoulomb cm , SI units = C m)
                  (au)            (Debye)         (10**-30 SI)
   Tot        0.118692D+00      0.301685D+00      0.100631D+01
   x         -0.894326D-01     -0.227315D+00     -0.758241D+00
   y         -0.479725D-01     -0.121934D+00     -0.406728D+00
   z         -0.615489D-01     -0.156442D+00     -0.521833D+00

 Dipole polarizability, Alpha (input orientation).
 (esu units = cm**3 , SI units = C**2 m**2 J**-1)
 Alpha(0;0):
               (au)            (10**-24 esu)      (10**-40 SI)
   iso        0.497289D+02      0.736906D+01      0.819918D+01
   aniso      0.961018D+01      0.142408D+01      0.158451D+01
   xx         0.522554D+02      0.774345D+01      0.861575D+01
   yx        -0.108649D+00     -0.161001D-01     -0.179137D-01
   yy         0.524906D+02      0.777831D+01      0.865454D+01
   zx        -0.279400D+01     -0.414028D+00     -0.460668D+00
   zy        -0.140672D+01     -0.208454D+00     -0.231937D+00
   zz         0.444406D+02      0.658542D+01      0.732727D+01

 ----------------------------------------------------------------------

 Dipole orientation:
     6         -5.27859717         -4.58427540          3.05869040
     6         -2.68724408         -3.28228452          2.99929715
     6         -1.13226016         -4.14723182          0.81920695
     6         -2.94717745         -0.39395187          3.05912203
     1         -5.08085563         -6.63667777          3.07478251
     1         -6.39189854         -4.06883210          1.39977411
     1         -6.34320981         -4.03620281          4.73744554
     1         -1.31167493         -6.04941420          0.09363033
     1          0.38853264         -2.99115621          0.09292311
     1         -1.69754657         -3.83319430          4.75008978
     1         -3.97182668          0.28055517          1.40011692
     1         -1.09896405          0.52012616          3.07571340
     1         -3.97451070          0.22144464          4.73776710

 Electric dipole moment (dipole orientation):
 (Debye = 10**-18 statcoulomb cm , SI units = C m)
                  (au)            (Debye)         (10**-30 SI)
   Tot        0.118692D+00      0.301685D+00      0.100631D+01
   x          0.000000D+00      0.000000D+00      0.000000D+00
   y          0.000000D+00      0.000000D+00      0.000000D+00
   z          0.118692D+00      0.301685D+00      0.100631D+01

 Dipole polarizability, Alpha (dipole orientation).
 (esu units = cm**3 , SI units = C**2 m**2 J**-1)
 Alpha(0;0):
               (au)            (10**-24 esu)      (10**-40 SI)
   iso        0.497289D+02      0.736906D+01      0.819918D+01
   aniso      0.961018D+01      0.142408D+01      0.158451D+01
   xx         0.500666D+02      0.741910D+01      0.825486D+01
   yx         0.137032D+01      0.203061D+00      0.225936D+00
   yy         0.517669D+02      0.767106D+01      0.853521D+01
   zx        -0.427706D+01     -0.633795D+00     -0.705192D+00
   zy         0.237875D+01      0.352494D+00      0.392203D+00
   zz         0.473532D+02      0.701702D+01      0.780748D+01

 ----------------------------------------------------------------------
 Unable to Open any file for archive entry.
 1\1\GINC-MEDIAWIKI\Freq\UB3LYP\CC-pVTZ\C4H9(2)\SAURABH\07-Apr-2022\0\\
 #P Geom=AllCheck Guess=TCheck SCRF=Check GenChk UB3LYP/CC-pVTZ Freq\\M
 ol_01\\0,2\C,-3.4550712533,2.0709203901,0.2848929021\C,-2.4346088994,1
 .1937516485,-0.4535790201\C,-1.1419192537,1.9034823493,-0.6603500442\C
 ,-2.2380660339,-0.1554769162,0.2514060193\H,-3.6137782124,3.0157427908
 ,-0.2373374227\H,-3.1077930486,2.3004604156,1.2942618339\H,-4.41901585
 2,1.5660198987,0.3659376783\H,-1.1139266899,2.9760173729,-0.7965478818
 \H,-0.2257500541,1.3514697381,-0.8201684948\H,-2.8632388563,0.97442746
 54,-1.4464611877\H,-1.8444982838,-0.0104440549,1.2594720674\H,-1.53529
 64518,-0.7868399664,-0.29457453\H,-3.182470058,-0.6961039041,0.3320160
 217\\Version=ES64L-G16RevC.01\State=2-A\HF=-157.8483274\S2=0.75391\S2-
 1=0.\S2A=0.75001\RMSD=1.045e-09\RMSF=4.713e-06\ZeroPoint=0.1160688\The
 rmal=0.1221457\ETot=-157.7261818\HTot=-157.7252376\GTot=-157.7609445\D
 ipole=-0.0894326,-0.0479725,-0.0615489\DipoleDeriv=0.0699715,0.0463728
 ,0.045509,0.0184722,0.0467831,-0.009562,0.0277414,-0.0019232,0.1041188
 ,0.082921,-0.0111267,0.0155575,-0.0105633,0.0970209,0.0072702,-0.01979
 68,-0.0120681,0.1861367,0.0641996,-0.0154755,-0.0627755,-0.0159926,0.0
 858332,-0.0280766,-0.029146,-0.0096836,-0.3368598,0.0834,0.0100145,0.0
 170281,0.0381948,0.0321836,0.0413422,0.0145111,0.022611,0.105249,0.046
 5091,0.0302243,0.0068554,0.06117,-0.1325868,0.0687641,-0.013887,0.0972
 483,0.002186,0.0195478,-0.0117343,-0.0891495,0.0156209,0.0445285,-0.02
 86176,-0.0211586,-0.0572313,-0.1245168,-0.1374901,-0.0590358,0.0408083
 ,-0.1073342,0.0011872,0.0031584,0.0236366,-0.0115109,0.0501038,0.01891
 91,0.007126,0.0229659,-0.0317846,-0.1169611,0.0438205,0.0239379,0.0286
 056,0.1189192,-0.0874355,0.0360126,0.0526474,0.0750925,-0.0093857,-0.0
 081015,0.0412196,0.001407,0.1177605,-0.046284,-0.0289444,-0.063941,-0.
 0289337,-0.0069083,-0.0325677,-0.0650954,-0.033204,-0.1485585,0.037303
 3,0.0050242,-0.0741985,-0.0235408,0.0260629,-0.0558214,-0.0622265,0.01
 64964,-0.123802,-0.0370733,0.1136286,0.0647206,0.08281,-0.0449715,-0.0
 334956,0.0767847,-0.066724,-0.0018432,-0.1144886,-0.1220862,0.0239723,
 -0.0732113,-0.0227861,0.0318869,0.0034791,0.0259768,0.0511064\Polar=52
 .2553794,-0.1086485,52.4906428,-2.7940002,-1.4067195,44.4406199\Quadru
 pole=0.0709923,0.2403443,-0.3113366,-0.1315801,-0.0289914,-0.0069972\P
 G=C01 [X(C4H9)]\NImag=0\\0.51654560,0.04493749,0.53121390,0.03506509,-
 0.03472667,0.53504663,-0.11157131,0.03276596,0.03263622,0.47253762,0.0
 3610844,-0.10860500,-0.02689901,0.01078980,0.45837079,0.03445128,-0.02
 345171,-0.10092952,0.01025949,0.00505864,0.48587663,-0.03265535,-0.006
 91478,0.00582853,-0.18138512,-0.05270694,0.02453092,0.54122078,0.01503
 361,0.01070245,-0.00163427,-0.05260776,-0.11460278,0.01287175,-0.04791
 839,0.60517969,0.01525491,0.00552614,-0.00244649,0.01872696,0.00970010
 ,-0.04840035,-0.07783659,-0.03452612,0.07926016,-0.00485228,0.02209336
 ,-0.01031229,-0.07825496,0.01189940,-0.00115843,0.00193494,-0.02920628
 ,0.01216725,0.56752974,0.00762313,-0.02374353,0.00775018,0.01531290,-0
 .14394557,0.04048337,-0.00694529,-0.02406194,0.00945074,0.01291855,0.4
 7780972,0.00130294,-0.01389756,0.00870745,-0.00495223,0.04086123,-0.09
 895096,0.00155484,0.00566000,-0.00227286,-0.01041375,0.04676284,0.5375
 0475,-0.05199021,0.02923857,-0.01701715,-0.00425019,0.01840849,-0.0118
 9263,0.00134749,0.00110772,-0.00069292,-0.00303581,0.00173565,0.003045
 72,0.05408445,0.03043439,-0.23839747,0.10890365,0.00202385,-0.01640404
 ,0.00954292,-0.00157012,0.00049002,0.00012429,0.00299725,-0.00110131,-
 0.00354356,-0.03532986,0.26065681,-0.01783180,0.11007968,-0.10943596,0
 .00236338,-0.01542138,0.00799110,-0.00048992,-0.00008477,0.00037033,0.
 00217872,-0.00144662,-0.00125905,0.01729662,-0.11938418,0.11610572,-0.
 07547134,-0.01784037,-0.07948539,0.00627067,0.00485821,0.02161623,0.00
 187854,0.00043700,0.00001188,0.00091493,-0.00108641,0.00036428,-0.0021
 8670,-0.00091385,-0.00312747,0.07986081,-0.01764720,-0.05769234,-0.046
 90928,-0.00529690,-0.00488169,-0.01785186,-0.00109248,0.00026507,0.000
 86841,-0.00128258,0.00092605,-0.00100245,0.00967922,0.00683407,0.02621
 190,0.01688964,0.05988990,-0.07847317,-0.04719559,-0.26497839,-0.00395
 907,-0.00351653,-0.01600277,-0.00121861,-0.00007658,0.00114365,-0.0004
 0371,0.00081465,0.00086982,-0.00513759,-0.00313637,-0.01413874,0.08505
 298,0.05462904,0.28981130,-0.24599176,-0.10699020,0.01483517,-0.018638
 13,-0.01056176,0.00134044,-0.00227456,0.00387449,0.00189767,0.00040773
 ,-0.00155316,-0.00036624,0.00505436,0.00203905,0.00002939,-0.00893335,
 -0.00463745,0.00055856,0.26916908,-0.10866010,-0.10557956,0.00853596,0
 .01793988,0.00832614,-0.00159763,0.00207554,-0.00234219,-0.00109602,0.
 00051582,0.00140154,-0.00006498,-0.02458806,-0.01282277,0.00069103,-0.
 00454227,-0.00360160,0.00064342,0.11731572,0.11279084,0.01397544,0.007
 75681,-0.04870904,0.01486458,0.00859714,-0.00223833,0.00221344,-0.0027
 6293,-0.00039157,-0.00063152,0.00058349,0.00019459,0.01464716,0.007138
 78,-0.00151598,-0.02652818,-0.01465995,0.00333086,-0.01848668,-0.00750
 315,0.04901612,0.00200843,-0.00097941,-0.00010973,0.00430019,-0.023524
 44,0.00459089,-0.05479653,-0.00223860,0.00787486,-0.00462743,-0.001054
 69,-0.00022601,-0.00041287,0.00053745,-0.00021167,-0.00004359,0.000122
 90,0.00019037,0.00020921,0.00017891,-0.00025155,0.04945765,0.00108641,
 0.00073870,-0.00044603,0.00483092,-0.00862903,0.00241833,-0.00464966,-
 0.33574803,0.03743247,-0.00317161,-0.00007577,-0.00081995,-0.00059199,
 0.00066044,0.00011158,-0.00019600,0.00003030,0.00019723,0.00000801,0.0
 0025385,-0.00008503,0.00574485,0.35209853,-0.00088983,0.00100379,0.000
 45870,0.00113555,0.00080242,0.00274698,0.00721749,0.04168388,-0.016599
 15,0.00046628,0.00144869,0.00003820,0.00010015,0.00000046,0.00019483,0
 .00008055,0.00001647,-0.00039955,-0.00010960,-0.00026522,-0.00017279,-
 0.00888593,-0.04173351,0.01059104,-0.00331426,-0.00399144,-0.00086328,
 -0.01327842,0.01604593,0.00507236,-0.25607071,0.12394334,0.04148198,0.
 00115698,0.00162701,-0.00040643,0.00018102,0.00005479,-0.00019352,0.00
 015285,0.00001422,0.00012912,-0.00092812,0.00092402,0.00094387,0.00376
 295,-0.00306297,0.00044812,0.26812275,-0.00192130,-0.00137781,0.000243
 28,-0.01219872,0.00895404,0.00284797,0.12631733,-0.13275720,-0.0177215
 6,-0.00044011,0.00161492,0.00018049,-0.00030367,0.00027003,-0.00013059
 ,0.00000338,-0.00002287,0.00012706,-0.00056171,0.00076802,0.00036649,0
 .02295384,-0.00894337,-0.00445861,-0.13395900,0.13164180,0.00146981,-0
 .00037331,0.00002441,0.00121466,0.00046608,0.00275199,0.04475875,-0.02
 053979,-0.01833939,0.00034581,-0.00128395,0.00043369,0.00000553,-0.000
 08605,-0.00003446,-0.00011655,0.00000363,0.00005696,0.00042980,-0.0000
 1974,0.00006373,-0.00299902,0.00253818,0.00369595,-0.04609518,0.019394
 34,0.01240699,0.00634204,0.00710797,0.02166210,-0.07409442,-0.01660582
 ,-0.08646113,-0.02052903,-0.01159586,-0.01943422,-0.00109960,0.0003591
 6,-0.00522627,0.00072708,-0.00062160,-0.00068365,-0.00244026,0.0028568
 2,0.00286066,0.00116153,-0.00080260,-0.00041529,-0.00047392,-0.0002266
 2,0.00035303,-0.00040740,-0.00016986,0.00116304,0.08996386,-0.00441958
 ,-0.00566063,-0.01986934,-0.01684351,-0.04987793,-0.04451378,-0.011822
 09,-0.00507098,-0.01070134,0.01231789,0.00096906,0.02923755,-0.0007445
 4,0.00028719,0.00032936,0.00273366,-0.00178631,-0.00184299,-0.00010942
 ,0.00079559,0.00076846,-0.00009536,-0.00018057,0.00116454,-0.00025899,
 -0.00022453,-0.00031949,0.01868271,0.06296715,-0.00482758,-0.00567073,
 -0.01770409,-0.07071721,-0.03590689,-0.22336088,-0.00448765,-0.0025318
 4,0.00646621,-0.00730461,-0.00057644,-0.01688629,-0.00008959,-0.000254
 73,0.00095881,0.00276874,-0.00219603,-0.00059210,0.00002652,0.00072424
 ,0.00027940,-0.00070818,-0.00014806,-0.00065076,-0.00051526,-0.0005050
 2,-0.00068084,0.08583651,0.04393475,0.25141261,-0.00015631,-0.00059185
 ,-0.00064804,-0.00193844,-0.00003660,-0.00353176,0.00043840,-0.0001981
 7,0.00074174,-0.08113295,-0.01392691,-0.08509028,0.00007272,-0.0000235
 7,0.00032591,0.00006469,0.00038155,0.00020046,-0.00008588,0.00000096,-
 0.00010188,0.00003764,0.00009087,-0.00005739,-0.00002044,0.00011008,0.
 00005497,0.00055914,0.00098052,-0.00034498,0.08344337,-0.00040093,0.00
 199226,0.00087908,0.01052968,0.00260045,0.02813277,0.00137140,0.001738
 86,-0.00046233,-0.01414080,-0.05237877,-0.03648965,-0.00032896,0.00020
 431,-0.00020714,-0.00011037,-0.00010382,-0.00071566,0.00005700,-0.0001
 0574,-0.00011010,0.00007270,0.00009521,-0.00010049,-0.00021390,0.00000
 881,0.00007084,0.00085081,-0.00494814,0.00340428,0.01445724,0.05686902
 ,0.00047142,-0.00074604,0.00087427,-0.00503530,-0.00100399,-0.01527614
 ,-0.00068254,-0.00096799,0.00110945,-0.08478938,-0.03548505,-0.2646216
 5,0.00018489,0.00007350,0.00028350,-0.00049009,0.00053393,0.00059744,-
 0.00001817,0.00005142,0.00000868,0.00017888,0.00003967,0.00005455,0.00
 025991,0.00006174,-0.00040086,-0.00000117,0.00329012,-0.00042975,0.094
 89659,0.03653403,0.28924217,0.00046787,0.00080271,-0.00134140,-0.00369
 884,0.00167884,0.00179740,0.00052219,-0.00104328,-0.00029531,-0.154792
 33,0.09485387,0.08526203,0.00012442,0.00045097,0.00036378,0.00000780,0
 .00002040,0.00016568,0.00046259,-0.00019234,-0.00007919,0.00012725,0.0
 0008739,-0.00006979,0.00032288,0.00006113,0.00005438,-0.00020991,-0.00
 002699,-0.00024868,0.00837437,-0.00764985,-0.00587975,0.16596199,-0.00
 046577,-0.00478510,0.00440094,0.01804233,-0.01695058,-0.01597109,0.001
 63133,0.00133106,-0.00064829,0.09366228,-0.12999897,-0.07478750,0.0014
 7840,-0.00111054,-0.00084195,-0.00028458,0.00025962,0.00011906,0.00012
 406,0.00025454,0.00007645,-0.00026577,0.00032078,0.00006263,-0.0010619
 9,-0.00007159,0.00009057,-0.00014337,0.00123562,0.00007037,0.00252333,
 -0.00309797,-0.00240857,-0.10544706,0.14271561,-0.00007361,0.00252339,
 -0.00107909,-0.01113997,0.00971708,0.00798656,-0.00029981,-0.00033157,
 0.00035489,0.08578538,-0.07612394,-0.11503498,-0.00047131,0.00071394,0
 .00066449,-0.00000144,0.00038534,0.00029312,0.00006237,-0.00005431,-0.
 00018418,-0.00022285,-0.00008537,-0.00003148,-0.00004688,-0.00024555,0
 .00019092,-0.00008049,-0.00074675,0.00094741,0.02014855,-0.01643004,-0
 .01476778,-0.09423700,0.08097115,0.12217169,0.00063889,0.00036199,-0.0
 0024982,0.00400132,0.00364646,-0.00061505,0.00036895,0.00041219,0.0001
 0180,-0.24414895,-0.10986380,0.01515142,0.00028424,-0.00007875,-0.0000
 1978,-0.00007505,-0.00000813,0.00003433,0.00038729,-0.00016549,-0.0001
 5021,0.00045102,0.00005040,0.00021137,0.00031991,0.00010863,-0.0002860
 0,0.00050089,-0.00039428,0.00061197,-0.00965632,-0.00449401,0.00090473
 ,-0.01767029,-0.00979317,0.00057706,0.26459808,-0.00170858,0.00119414,
 -0.00022848,-0.02528843,-0.01435479,0.00203033,0.00222416,-0.00512403,
 0.00205350,-0.10816317,-0.10741542,0.00790355,0.00023904,0.00043327,0.
 00009308,0.00005197,-0.00011638,-0.00004673,0.00099539,-0.00013865,-0.
 00016645,-0.00145237,-0.00062103,0.00037495,-0.00006100,0.00013976,0.0
 0005871,0.00030826,0.00149449,-0.00034390,-0.00376745,-0.00287448,0.00
 002722,0.01640422,0.00989751,-0.00029338,0.12021797,0.11748564,0.00010
 511,-0.00082818,0.00017111,0.01460294,0.00754510,-0.00219431,-0.001088
 84,0.00324025,-0.00025488,0.01407025,0.00762205,-0.04872270,0.00002114
 ,-0.00009265,-0.00018459,-0.00014555,-0.00002915,0.00000840,-0.0001992
 2,-0.00004502,0.00031851,0.00077995,0.00058048,0.00007348,-0.00021481,
 -0.00016004,-0.00016911,0.00042688,-0.00073110,0.00024027,-0.02659389,
 -0.01450559,0.00332612,0.01450787,0.00886624,-0.00151158,-0.01627182,-
 0.01146241,0.04889928\\0.00000110,-0.00000385,-0.00000200,0.00000481,-
 0.00000229,0.00001819,0.00000809,-0.00000680,0.00001034,-0.00000329,0.
 00000439,-0.00000509,-0.00000058,0.00000165,-0.00000047,-0.00000136,-0
 .00000119,-0.00000346,0.00000011,0.00000165,-0.00000033,-0.00000215,0.
 00000705,-0.00000604,-0.00000475,0.00000016,-0.00000383,-0.00000426,-0
 .00000006,-0.00000583,-0.00000082,-0.00000011,-0.00000115,0.00000031,-
 0.00000096,-0.00000013,0.00000278,0.00000036,-0.00000021\\\@
 The archive entry for this job was punched.


 IF YOU GIVE EVERYONE A PIECE OF YOUR MIND,
 PRETTY SOON IT WILL BE ALL GONE.
 Job cpu time:       0 days  0 hours 27 minutes 30.8 seconds.
 Elapsed time:       0 days  0 hours  3 minutes 26.8 seconds.
 File lengths (MBytes):  RWF=    112 Int=      0 D2E=      0 Chk=      8 Scr=      1
 Normal termination of Gaussian 16 at Thu Apr  7 19:23:05 2022.
