 Entering Gaussian System, Link 0=g16
 Input=Mol_03.com
 Output=Mol_03.log
 Initial command:
 /home/saurabh/gaussian/g16/l1.exe "/home/saurabh/gaussian/gauss_scr/Gau-44442.inp" -scrdir="/home/saurabh/gaussian/gauss_scr/"
 Entering Link 1 = /home/saurabh/gaussian/g16/l1.exe PID=     44443.
  
 Copyright (c) 1988-2019, Gaussian, Inc.  All Rights Reserved.
  
 This is part of the Gaussian(R) 16 program.  It is based on
 the Gaussian(R) 09 system (copyright 2009, Gaussian, Inc.),
 the Gaussian(R) 03 system (copyright 2003, Gaussian, Inc.),
 the Gaussian(R) 98 system (copyright 1998, Gaussian, Inc.),
 the Gaussian(R) 94 system (copyright 1995, Gaussian, Inc.),
 the Gaussian 92(TM) system (copyright 1992, Gaussian, Inc.),
 the Gaussian 90(TM) system (copyright 1990, Gaussian, Inc.),
 the Gaussian 88(TM) system (copyright 1988, Gaussian, Inc.),
 the Gaussian 86(TM) system (copyright 1986, Carnegie Mellon
 University), and the Gaussian 82(TM) system (copyright 1983,
 Carnegie Mellon University). Gaussian is a federally registered
 trademark of Gaussian, Inc.
  
 This software contains proprietary and confidential information,
 including trade secrets, belonging to Gaussian, Inc.
  
 This software is provided under written license and may be
 used, copied, transmitted, or stored only in accord with that
 written license.
  
 The following legend is applicable only to US Government
 contracts under FAR:
  
                    RESTRICTED RIGHTS LEGEND
  
 Use, reproduction and disclosure by the US Government is
 subject to restrictions as set forth in subparagraphs (a)
 and (c) of the Commercial Computer Software - Restricted
 Rights clause in FAR 52.227-19.
  
 Gaussian, Inc.
 340 Quinnipiac St., Bldg. 40, Wallingford CT 06492
  
  
 ---------------------------------------------------------------
 Warning -- This program may not be used in any manner that
 competes with the business of Gaussian, Inc. or will provide
 assistance to any competitor of Gaussian, Inc.  The licensee
 of this program is prohibited from giving any competitor of
 Gaussian, Inc. access to this program.  By using this program,
 the user acknowledges that Gaussian, Inc. is engaged in the
 business of creating and licensing software in the field of
 computational chemistry and represents and warrants to the
 licensee that it is not a competitor of Gaussian, Inc. and that
 it will not use this program in any manner prohibited above.
 ---------------------------------------------------------------
  

 Cite this work as:
 Gaussian 16, Revision C.01,
 M. J. Frisch, G. W. Trucks, H. B. Schlegel, G. E. Scuseria, 
 M. A. Robb, J. R. Cheeseman, G. Scalmani, V. Barone, 
 G. A. Petersson, H. Nakatsuji, X. Li, M. Caricato, A. V. Marenich, 
 J. Bloino, B. G. Janesko, R. Gomperts, B. Mennucci, H. P. Hratchian, 
 J. V. Ortiz, A. F. Izmaylov, J. L. Sonnenberg, D. Williams-Young, 
 F. Ding, F. Lipparini, F. Egidi, J. Goings, B. Peng, A. Petrone, 
 T. Henderson, D. Ranasinghe, V. G. Zakrzewski, J. Gao, N. Rega, 
 G. Zheng, W. Liang, M. Hada, M. Ehara, K. Toyota, R. Fukuda, 
 J. Hasegawa, M. Ishida, T. Nakajima, Y. Honda, O. Kitao, H. Nakai, 
 T. Vreven, K. Throssell, J. A. Montgomery, Jr., J. E. Peralta, 
 F. Ogliaro, M. J. Bearpark, J. J. Heyd, E. N. Brothers, K. N. Kudin, 
 V. N. Staroverov, T. A. Keith, R. Kobayashi, J. Normand, 
 K. Raghavachari, A. P. Rendell, J. C. Burant, S. S. Iyengar, 
 J. Tomasi, M. Cossi, J. M. Millam, M. Klene, C. Adamo, R. Cammi, 
 J. W. Ochterski, R. L. Martin, K. Morokuma, O. Farkas, 
 J. B. Foresman, and D. J. Fox, Gaussian, Inc., Wallingford CT, 2019.
 
 ******************************************
 Gaussian 16:  ES64L-G16RevC.01  3-Jul-2019
                 7-Apr-2022 
 ******************************************
 %mem=8gb
 %nproc=8
 Will use up to    8 processors via shared memory.
 %chk=Mol_03.chk
 ----------------------------------------------------------------------
 #p B3LYP/cc-PVTZ scf(verytight, maxcycles=1000) opt(calcfc, maxcyc=100
 0) freq(hpmodes) int(grid=ultrafine)
 ----------------------------------------------------------------------
 1/6=1000,10=4,18=20,19=15,26=4,38=1/1,3;
 2/9=110,12=2,17=6,18=5,40=1/2;
 3/5=16,6=1,11=2,25=1,30=1,71=2,74=-5,75=-5,140=1/1,2,3;
 4//1;
 5/5=2,7=1000,17=3,38=5/2;
 8/6=4,10=90,11=11/1;
 11/6=1,8=1,9=11,15=111,16=1/1,2,10;
 10/6=1,13=1/2;
 6/7=2,8=2,9=2,10=2,28=1/1;
 7/10=1,25=1/1,2,3,16;
 1/6=1000,10=4,18=20,19=15,26=4/3(2);
 2/9=110/2;
 99//99;
 2/9=110/2;
 3/5=16,6=1,11=2,25=1,30=1,71=1,74=-5,75=-5/1,2,3;
 4/5=5,16=3,69=1/1;
 5/5=2,7=1000,17=3,38=5/2;
 7//1,2,3,16;
 1/6=1000,18=20,19=15,26=4/3(-5);
 2/9=110/2;
 6/7=2,8=2,9=2,10=2,19=2,28=1/1;
 99/9=1/99;
 Leave Link    1 at Thu Apr  7 19:44:02 2022, MaxMem=  1073741824 cpu:               0.5 elap:               0.1
 (Enter /home/saurabh/gaussian/g16/l101.exe)
 ------
 Mol_03
 ------
 Symbolic Z-matrix:
 Charge =  0 Multiplicity = 2
 C                    -3.20195   2.03687   0.12672 
 C                    -2.33302   0.92449  -0.46553 
 C                    -0.89829   1.42403  -0.70837 
 C                    -2.35318  -0.31475   0.43581 
 H                    -3.21862   2.91045  -0.55852 
 H                    -2.80914   2.3596    1.11499 
 H                    -4.24523   1.67776   0.25188 
 H                    -1.92644  -0.08097   1.4349 
 H                    -1.76549  -1.13587  -0.02515 
 H                    -3.39646  -0.67289   0.56354 
 O                    -0.1056    0.42564  -1.30421 
 O                    -0.44692   0.38481  -2.57978 
 H                    -0.43184   1.70848   0.25943 
 H                    -0.90077   2.3459   -1.33524 
 H                    -0.9316   -0.47375  -2.68611 
 
 ITRead=  0  0  0  0  0  0  0  0  0  0  0  0  0  0  0
 MicOpt= -1 -1 -1 -1 -1 -1 -1 -1 -1 -1 -1 -1 -1 -1 -1
 NAtoms=     15 NQM=       15 NQMF=       0 NMMI=      0 NMMIF=      0
                NMic=       0 NMicF=      0.
                    Isotopes and Nuclear Properties:
 (Nuclear quadrupole moments (NQMom) in fm**2, nuclear magnetic moments (NMagM)
  in nuclear magnetons)

  Atom         1           2           3           4           5           6           7           8           9          10
 IAtWgt=          12          12          12          12           1           1           1           1           1           1
 AtmWgt=  12.0000000  12.0000000  12.0000000  12.0000000   1.0078250   1.0078250   1.0078250   1.0078250   1.0078250   1.0078250
 NucSpn=           0           0           0           0           1           1           1           1           1           1
 AtZEff=  -0.0000000  -0.0000000  -0.0000000  -0.0000000  -0.0000000  -0.0000000  -0.0000000  -0.0000000  -0.0000000  -0.0000000
 NQMom=    0.0000000   0.0000000   0.0000000   0.0000000   0.0000000   0.0000000   0.0000000   0.0000000   0.0000000   0.0000000
 NMagM=    0.0000000   0.0000000   0.0000000   0.0000000   2.7928460   2.7928460   2.7928460   2.7928460   2.7928460   2.7928460
 AtZNuc=   6.0000000   6.0000000   6.0000000   6.0000000   1.0000000   1.0000000   1.0000000   1.0000000   1.0000000   1.0000000

  Atom        11          12          13          14          15
 IAtWgt=          16          16           1           1           1
 AtmWgt=  15.9949146  15.9949146   1.0078250   1.0078250   1.0078250
 NucSpn=           0           0           1           1           1
 AtZEff=  -0.0000000  -0.0000000  -0.0000000  -0.0000000  -0.0000000
 NQMom=    0.0000000   0.0000000   0.0000000   0.0000000   0.0000000
 NMagM=    0.0000000   0.0000000   2.7928460   2.7928460   2.7928460
 AtZNuc=   8.0000000   8.0000000   1.0000000   1.0000000   1.0000000
 Leave Link  101 at Thu Apr  7 19:44:02 2022, MaxMem=  1073741824 cpu:               1.4 elap:               0.2
 (Enter /home/saurabh/gaussian/g16/l103.exe)

 GradGradGradGradGradGradGradGradGradGradGradGradGradGradGradGradGradGrad
 Berny optimization.
 Initialization pass.
                           ----------------------------
                           !    Initial Parameters    !
                           ! (Angstroms and Degrees)  !
 --------------------------                            --------------------------
 ! Name  Definition              Value          Derivative Info.                !
 --------------------------------------------------------------------------------
 ! R1    R(1,2)                  1.5307         calculate D2E/DX2 analytically  !
 ! R2    R(1,5)                  1.1104         calculate D2E/DX2 analytically  !
 ! R3    R(1,6)                  1.1114         calculate D2E/DX2 analytically  !
 ! R4    R(1,7)                  1.1104         calculate D2E/DX2 analytically  !
 ! R5    R(2,3)                  1.5385         calculate D2E/DX2 analytically  !
 ! R6    R(2,4)                  1.5325         calculate D2E/DX2 analytically  !
 ! R7    R(3,11)                 1.4072         calculate D2E/DX2 analytically  !
 ! R8    R(3,13)                 1.1114         calculate D2E/DX2 analytically  !
 ! R9    R(3,14)                 1.1148         calculate D2E/DX2 analytically  !
 ! R10   R(4,8)                  1.1113         calculate D2E/DX2 analytically  !
 ! R11   R(4,9)                  1.11           calculate D2E/DX2 analytically  !
 ! R12   R(4,10)                 1.1104         calculate D2E/DX2 analytically  !
 ! R13   R(11,12)                1.3211         calculate D2E/DX2 analytically  !
 ! R14   R(12,15)                0.9916         calculate D2E/DX2 analytically  !
 ! A1    A(2,1,5)              109.9661         calculate D2E/DX2 analytically  !
 ! A2    A(2,1,6)              110.7591         calculate D2E/DX2 analytically  !
 ! A3    A(2,1,7)              109.9942         calculate D2E/DX2 analytically  !
 ! A4    A(5,1,6)              109.0025         calculate D2E/DX2 analytically  !
 ! A5    A(5,1,7)              108.0517         calculate D2E/DX2 analytically  !
 ! A6    A(6,1,7)              109.0117         calculate D2E/DX2 analytically  !
 ! A7    A(1,2,3)              110.7621         calculate D2E/DX2 analytically  !
 ! A8    A(1,2,4)              110.6466         calculate D2E/DX2 analytically  !
 ! A9    A(3,2,4)              111.5714         calculate D2E/DX2 analytically  !
 ! A10   A(2,3,11)             111.2105         calculate D2E/DX2 analytically  !
 ! A11   A(2,3,13)             109.6974         calculate D2E/DX2 analytically  !
 ! A12   A(2,3,14)             110.8043         calculate D2E/DX2 analytically  !
 ! A13   A(11,3,13)            108.2944         calculate D2E/DX2 analytically  !
 ! A14   A(11,3,14)            110.4786         calculate D2E/DX2 analytically  !
 ! A15   A(13,3,14)            106.1974         calculate D2E/DX2 analytically  !
 ! A16   A(2,4,8)              110.7082         calculate D2E/DX2 analytically  !
 ! A17   A(2,4,9)              110.3024         calculate D2E/DX2 analytically  !
 ! A18   A(2,4,10)             109.9274         calculate D2E/DX2 analytically  !
 ! A19   A(8,4,9)              109.0059         calculate D2E/DX2 analytically  !
 ! A20   A(8,4,10)             108.9793         calculate D2E/DX2 analytically  !
 ! A21   A(9,4,10)             107.8555         calculate D2E/DX2 analytically  !
 ! A22   A(3,11,12)            106.5728         calculate D2E/DX2 analytically  !
 ! A23   A(11,12,15)           104.8673         calculate D2E/DX2 analytically  !
 ! D1    D(5,1,2,3)             58.4469         calculate D2E/DX2 analytically  !
 ! D2    D(5,1,2,4)           -177.2875         calculate D2E/DX2 analytically  !
 ! D3    D(6,1,2,3)            -62.0966         calculate D2E/DX2 analytically  !
 ! D4    D(6,1,2,4)             62.1691         calculate D2E/DX2 analytically  !
 ! D5    D(7,1,2,3)            177.3301         calculate D2E/DX2 analytically  !
 ! D6    D(7,1,2,4)            -58.4042         calculate D2E/DX2 analytically  !
 ! D7    D(1,2,3,11)          -177.5551         calculate D2E/DX2 analytically  !
 ! D8    D(1,2,3,13)            62.6716         calculate D2E/DX2 analytically  !
 ! D9    D(1,2,3,14)           -54.263          calculate D2E/DX2 analytically  !
 ! D10   D(4,2,3,11)            58.7085         calculate D2E/DX2 analytically  !
 ! D11   D(4,2,3,13)           -61.0648         calculate D2E/DX2 analytically  !
 ! D12   D(4,2,3,14)          -177.9994         calculate D2E/DX2 analytically  !
 ! D13   D(1,2,4,8)            -62.2603         calculate D2E/DX2 analytically  !
 ! D14   D(1,2,4,9)            177.0041         calculate D2E/DX2 analytically  !
 ! D15   D(1,2,4,10)            58.1962         calculate D2E/DX2 analytically  !
 ! D16   D(3,2,4,8)             61.5414         calculate D2E/DX2 analytically  !
 ! D17   D(3,2,4,9)            -59.1943         calculate D2E/DX2 analytically  !
 ! D18   D(3,2,4,10)          -178.0021         calculate D2E/DX2 analytically  !
 ! D19   D(2,3,11,12)           76.9496         calculate D2E/DX2 analytically  !
 ! D20   D(13,3,11,12)        -162.4467         calculate D2E/DX2 analytically  !
 ! D21   D(14,3,11,12)         -46.5286         calculate D2E/DX2 analytically  !
 ! D22   D(3,11,12,15)        -109.6268         calculate D2E/DX2 analytically  !
 --------------------------------------------------------------------------------
 Trust Radius=3.00D-01 FncErr=1.00D-07 GrdErr=1.00D-06 EigMax=2.50D+02 EigMin=1.00D-04
 Number of steps in this run=    100 maximum allowed number of steps=    100.
 GradGradGradGradGradGradGradGradGradGradGradGradGradGradGradGradGradGrad

 Leave Link  103 at Thu Apr  7 19:44:02 2022, MaxMem=  1073741824 cpu:               0.1 elap:               0.0
 (Enter /home/saurabh/gaussian/g16/l202.exe)
                          Input orientation:                          
 ---------------------------------------------------------------------
 Center     Atomic      Atomic             Coordinates (Angstroms)
 Number     Number       Type             X           Y           Z
 ---------------------------------------------------------------------
      1          6           0       -3.201953    2.036867    0.126723
      2          6           0       -2.333024    0.924492   -0.465532
      3          6           0       -0.898287    1.424027   -0.708373
      4          6           0       -2.353183   -0.314749    0.435811
      5          1           0       -3.218621    2.910448   -0.558516
      6          1           0       -2.809142    2.359596    1.114991
      7          1           0       -4.245235    1.677761    0.251879
      8          1           0       -1.926441   -0.080967    1.434897
      9          1           0       -1.765493   -1.135870   -0.025155
     10          1           0       -3.396461   -0.672893    0.563545
     11          8           0       -0.105599    0.425642   -1.304214
     12          8           0       -0.446916    0.384806   -2.579780
     13          1           0       -0.431841    1.708481    0.259426
     14          1           0       -0.900766    2.345900   -1.335239
     15          1           0       -0.931601   -0.473747   -2.686115
 ---------------------------------------------------------------------
                    Distance matrix (angstroms):
                    1          2          3          4          5
     1  C    0.000000
     2  C    1.530746   0.000000
     3  C    2.525834   1.538498   0.000000
     4  C    2.519136   1.532496   2.539532   0.000000
     5  H    1.110394   2.176454   2.759684   3.484188   0.000000
     6  H    1.111363   2.187296   2.802019   2.796659   1.808795
     7  H    1.110432   2.176842   3.491206   2.753867   1.797274
     8  H    2.797047   2.188125   2.813488   1.111277   3.819947
     9  H    3.486078   2.181998   2.787813   1.110003   4.332291
    10  H    2.751626   2.177507   3.500817   1.110411   3.759120
    11  O    3.772405   2.431803   1.407179   2.937261   4.052313
    12  O    4.200559   2.884218   2.187666   3.635523   4.259898
    13  H    2.792664   2.180528   1.111361   2.795734   3.143231
    14  H    2.743774   2.197306   1.114817   3.510724   2.508877
    15  H    4.401106   2.974902   2.741188   3.434035   4.605422
                    6          7          8          9         10
     6  H    0.000000
     7  H    1.808929   0.000000
     8  H    2.614928   3.141570   0.000000
     9  H    3.821964   3.760635   1.808445   0.000000
    10  H    3.137678   2.518556   1.808477   1.794706   0.000000
    11  O    4.111189   4.596283   3.327890   2.613343   3.940187
    12  O    4.809495   4.910932   4.303903   3.252263   4.438360
    13  H    2.609119   3.813525   2.611070   3.154353   3.814761
    14  H    3.105754   3.761758   3.823002   3.819266   4.352813
    15  H    5.099156   4.923511   4.257549   2.866093   4.083562
                   11         12         13         14         15
    11  O    0.000000
    12  O    1.321073   0.000000
    13  H    2.048678   3.132641   0.000000
    14  H    2.078616   2.366591   1.780211   0.000000
    15  H    1.844134   0.991635   3.699742   3.126695   0.000000
 Stoichiometry    C4H9O2(2)
 Framework group  C1[X(C4H9O2)]
 Deg. of freedom    39
 Full point group                 C1      NOp   1
 Largest Abelian subgroup         C1      NOp   1
 Largest concise Abelian subgroup C1      NOp   1
                         Standard orientation:                         
 ---------------------------------------------------------------------
 Center     Atomic      Atomic             Coordinates (Angstroms)
 Number     Number       Type             X           Y           Z
 ---------------------------------------------------------------------
      1          6           0        2.025421   -0.869850   -0.244954
      2          6           0        0.757739   -0.014331   -0.310161
      3          6           0       -0.338385   -0.593256    0.601067
      4          6           0        1.071200    1.443839    0.042015
      5          1           0        1.795166   -1.912639   -0.549171
      6          1           0        2.443143   -0.877198    0.784892
      7          1           0        2.790450   -0.468795   -0.942768
      8          1           0        1.450929    1.523695    1.083343
      9          1           0        0.159625    2.069040   -0.059289
     10          1           0        1.838094    1.844780   -0.653779
     11          8           0       -1.526751    0.154357    0.506119
     12          8           0       -2.102925   -0.196501   -0.629732
     13          1           0        0.003562   -0.572072    1.658302
     14          1           0       -0.530773   -1.664073    0.357852
     15          1           0       -2.008640    0.595999   -1.218284
 ---------------------------------------------------------------------
 Rotational constants (GHZ):           6.1592819           2.1966047           1.9200814
 Leave Link  202 at Thu Apr  7 19:44:02 2022, MaxMem=  1073741824 cpu:               0.1 elap:               0.0
 (Enter /home/saurabh/gaussian/g16/l301.exe)
 Standard basis: CC-pVTZ (5D, 7F)
 Ernie: Thresh=  0.10000D-02 Tol=  0.10000D-05 Strict=F.
 Ernie:  18 primitive shells out of 228 were deleted.
 There are   345 symmetry adapted cartesian basis functions of A   symmetry.
 There are   306 symmetry adapted basis functions of A   symmetry.
   306 basis functions,   465 primitive gaussians,   345 cartesian basis functions
    25 alpha electrons       24 beta electrons
       nuclear repulsion energy       251.5418613576 Hartrees.
 IExCor=  402 DFT=T Ex+Corr=B3LYP ExCW=0 ScaHFX=  0.200000
 ScaDFX=  0.800000  0.720000  1.000000  0.810000 ScalE2=  1.000000  1.000000
 IRadAn=      5 IRanWt=     -1 IRanGd=            0 ICorTp=0 IEmpDi=  4
 NAtoms=   15 NActive=   15 NUniq=   15 SFac= 1.00D+00 NAtFMM=   60 NAOKFM=F Big=F
 Integral buffers will be    131072 words long.
 Raffenetti 2 integral format.
 Two-electron integral symmetry is turned on.
 Leave Link  301 at Thu Apr  7 19:44:02 2022, MaxMem=  1073741824 cpu:               0.4 elap:               0.1
 (Enter /home/saurabh/gaussian/g16/l302.exe)
 NPDir=0 NMtPBC=     1 NCelOv=     1 NCel=       1 NClECP=     1 NCelD=      1
         NCelK=      1 NCelE2=     1 NClLst=     1 CellRange=     0.0.
 One-electron integrals computed using PRISM.
 One-electron integral symmetry used in STVInt
 NBasis=   306 RedAO= T EigKep=  6.15D-04  NBF=   306
 NBsUse=   306 1.00D-06 EigRej= -1.00D+00 NBFU=   306
 Precomputing XC quadrature grid using
 IXCGrd= 4 IRadAn=           5 IRanWt=          -1 IRanGd=           0 AccXCQ= 0.00D+00.
 Generated NRdTot=       0 NPtTot=           0 NUsed=           0 NTot=          32
 NSgBfM=   345   345   345   345   345 MxSgAt=    15 MxSgA2=    15.
 Leave Link  302 at Thu Apr  7 19:44:02 2022, MaxMem=  1073741824 cpu:               1.7 elap:               0.2
 (Enter /home/saurabh/gaussian/g16/l303.exe)
 DipDrv:  MaxL=1.
 Leave Link  303 at Thu Apr  7 19:44:02 2022, MaxMem=  1073741824 cpu:               0.3 elap:               0.1
 (Enter /home/saurabh/gaussian/g16/l401.exe)
 ExpMin= 1.03D-01 ExpMax= 1.53D+04 ExpMxC= 5.22D+02 IAcc=3 IRadAn=         5 AccDes= 0.00D+00
 Harris functional with IExCor=  402 and IRadAn=       5 diagonalized for initial guess.
 HarFok:  IExCor=  402 AccDes= 0.00D+00 IRadAn=         5 IDoV= 1 UseB2=F ITyADJ=14
 ICtDFT=  3500011 ScaDFX=  1.000000  1.000000  1.000000  1.000000
 FoFCou: FMM=F IPFlag=           0 FMFlag=      100000 FMFlg1=           0
         NFxFlg=           0 DoJE=T BraDBF=F KetDBF=T FulRan=T
         wScrn=  0.000000 ICntrl=       500 IOpCl=  0 I1Cent=   200000004 NGrid=           0
         NMat0=    1 NMatS0=      1 NMatT0=    0 NMatD0=    1 NMtDS0=    0 NMtDT0=    0
 Petite list used in FoFCou.
 Harris En= -308.254425117246    
 JPrj=0 DoOrth=F DoCkMO=F.
 Initial guess <Sx>= 0.0000 <Sy>= 0.0000 <Sz>= 0.5000 <S**2>= 0.7500 S= 0.5000
 Leave Link  401 at Thu Apr  7 19:44:03 2022, MaxMem=  1073741824 cpu:               7.7 elap:               1.0
 (Enter /home/saurabh/gaussian/g16/l502.exe)
 Integral symmetry usage will be decided dynamically.
 UHF open shell SCF:
 Using DIIS extrapolation, IDIIS=  1040.
 NGot=  1073741824 LenX=  1073497548 LenY=  1073378082
 Requested convergence on RMS density matrix=1.00D-08 within1000 cycles.
 Requested convergence on MAX density matrix=1.00D-06.
 Requested convergence on             energy=1.00D-06.
 No special actions if energy rises.
 Fock matrices will be formed incrementally for  20 cycles.
 Integral accuracy reduced to 1.0D-05 until final iterations.

 Cycle   1  Pass 0  IDiag  1:
 FoFJK:  IHMeth= 1 ICntrl=       0 DoSepK=F KAlg= 0 I1Cent=           0 FoldK=F
 IRaf= 970000000 NMat=       1 IRICut=       1 DoRegI=T DoRafI=F ISym2E= 0 IDoP0=0 IntGTp=1.
 FoFCou: FMM=F IPFlag=           0 FMFlag=      100000 FMFlg1=           0
         NFxFlg=           0 DoJE=F BraDBF=F KetDBF=F FulRan=T
         wScrn=  0.000000 ICntrl=         0 IOpCl=  1 I1Cent=           0 NGrid=           0
         NMat0=    1 NMatS0=      1 NMatT0=    0 NMatD0=    1 NMtDS0=    0 NMtDT0=    0
 Symmetry not used in FoFCou.
 E= -308.047796944077    
 DIIS: error= 2.57D-02 at cycle   1 NSaved=   1.
 NSaved= 1 IEnMin= 1 EnMin= -308.047796944077     IErMin= 1 ErrMin= 2.57D-02
 ErrMax= 2.57D-02  0.00D+00 EMaxC= 1.00D-01 BMatC= 8.34D-01 BMatP= 8.34D-01
 IDIUse=3 WtCom= 7.43D-01 WtEn= 2.57D-01
 Coeff-Com:  0.100D+01
 Coeff-En:   0.100D+01
 Coeff:      0.100D+01
 Gap=     0.197 Goal=   None    Shift=    0.000
 Gap=     0.197 Goal=   None    Shift=    0.000
 GapD=    0.197 DampG=1.000 DampE=0.500 DampFc=0.5000 IDamp=-1.
 Damping current iteration by 5.00D-01
 RMSDP=2.31D-03 MaxDP=8.42D-02              OVMax= 1.76D-01

 Cycle   2  Pass 0  IDiag  1:
 RMSU=  1.15D-03    CP:  9.96D-01
 E= -308.129468472225     Delta-E=       -0.081671528147 Rises=F Damp=T
 DIIS: error= 5.07D-03 at cycle   2 NSaved=   2.
 NSaved= 2 IEnMin= 2 EnMin= -308.129468472225     IErMin= 2 ErrMin= 5.07D-03
 ErrMax= 5.07D-03  0.00D+00 EMaxC= 1.00D-01 BMatC= 4.86D-02 BMatP= 8.34D-01
 IDIUse=3 WtCom= 9.49D-01 WtEn= 5.07D-02
 Coeff-Com:  0.499D-01 0.950D+00
 Coeff-En:   0.129D+00 0.871D+00
 Coeff:      0.539D-01 0.946D+00
 Gap=     0.248 Goal=   None    Shift=    0.000
 Gap=     0.178 Goal=   None    Shift=    0.000
 RMSDP=4.46D-04 MaxDP=1.84D-02 DE=-8.17D-02 OVMax= 1.09D-01

 Cycle   3  Pass 0  IDiag  1:
 RMSU=  3.76D-04    CP:  9.99D-01  7.95D-01
 E= -308.231743179228     Delta-E=       -0.102274707003 Rises=F Damp=F
 DIIS: error= 2.85D-03 at cycle   3 NSaved=   3.
 NSaved= 3 IEnMin= 3 EnMin= -308.231743179228     IErMin= 3 ErrMin= 2.85D-03
 ErrMax= 2.85D-03  0.00D+00 EMaxC= 1.00D-01 BMatC= 1.58D-02 BMatP= 4.86D-02
 IDIUse=3 WtCom= 9.71D-01 WtEn= 2.85D-02
 Coeff-Com: -0.306D-01 0.330D+00 0.700D+00
 Coeff-En:   0.000D+00 0.000D+00 0.100D+01
 Coeff:     -0.297D-01 0.321D+00 0.709D+00
 Gap=     0.242 Goal=   None    Shift=    0.000
 Gap=     0.181 Goal=   None    Shift=    0.000
 RMSDP=1.64D-04 MaxDP=6.84D-03 DE=-1.02D-01 OVMax= 1.50D-02

 Cycle   4  Pass 0  IDiag  1:
 RMSU=  1.30D-04    CP:  9.98D-01  8.40D-01  7.75D-01
 E= -308.233703740027     Delta-E=       -0.001960560799 Rises=F Damp=F
 DIIS: error= 1.58D-03 at cycle   4 NSaved=   4.
 NSaved= 4 IEnMin= 4 EnMin= -308.233703740027     IErMin= 4 ErrMin= 1.58D-03
 ErrMax= 1.58D-03  0.00D+00 EMaxC= 1.00D-01 BMatC= 6.45D-03 BMatP= 1.58D-02
 IDIUse=3 WtCom= 9.84D-01 WtEn= 1.58D-02
 Coeff-Com: -0.223D-01 0.106D+00 0.425D+00 0.490D+00
 Coeff-En:   0.000D+00 0.000D+00 0.239D+00 0.761D+00
 Coeff:     -0.219D-01 0.105D+00 0.423D+00 0.495D+00
 Gap=     0.243 Goal=   None    Shift=    0.000
 Gap=     0.176 Goal=   None    Shift=    0.000
 RMSDP=8.39D-05 MaxDP=3.25D-03 DE=-1.96D-03 OVMax= 7.70D-03

 Cycle   5  Pass 0  IDiag  1:
 RMSU=  4.69D-05    CP:  9.98D-01  8.47D-01  8.54D-01  5.22D-01
 E= -308.234712734448     Delta-E=       -0.001008994421 Rises=F Damp=F
 DIIS: error= 5.67D-04 at cycle   5 NSaved=   5.
 NSaved= 5 IEnMin= 5 EnMin= -308.234712734448     IErMin= 5 ErrMin= 5.67D-04
 ErrMax= 5.67D-04  0.00D+00 EMaxC= 1.00D-01 BMatC= 3.62D-04 BMatP= 6.45D-03
 IDIUse=3 WtCom= 9.94D-01 WtEn= 5.67D-03
 Coeff-Com: -0.609D-02 0.671D-02 0.105D+00 0.238D+00 0.656D+00
 Coeff-En:   0.000D+00 0.000D+00 0.000D+00 0.000D+00 0.100D+01
 Coeff:     -0.606D-02 0.668D-02 0.105D+00 0.237D+00 0.658D+00
 Gap=     0.245 Goal=   None    Shift=    0.000
 Gap=     0.177 Goal=   None    Shift=    0.000
 RMSDP=2.25D-05 MaxDP=9.74D-04 DE=-1.01D-03 OVMax= 1.70D-03

 Cycle   6  Pass 0  IDiag  1:
 RMSU=  1.34D-05    CP:  9.98D-01  8.42D-01  8.67D-01  6.15D-01  7.76D-01
 E= -308.234776383149     Delta-E=       -0.000063648701 Rises=F Damp=F
 DIIS: error= 1.36D-04 at cycle   6 NSaved=   6.
 NSaved= 6 IEnMin= 6 EnMin= -308.234776383149     IErMin= 6 ErrMin= 1.36D-04
 ErrMax= 1.36D-04  0.00D+00 EMaxC= 1.00D-01 BMatC= 1.85D-05 BMatP= 3.62D-04
 IDIUse=3 WtCom= 9.99D-01 WtEn= 1.36D-03
 Coeff-Com: -0.143D-02-0.286D-02 0.238D-01 0.750D-01 0.273D+00 0.633D+00
 Coeff-En:   0.000D+00 0.000D+00 0.000D+00 0.000D+00 0.000D+00 0.100D+01
 Coeff:     -0.142D-02-0.285D-02 0.238D-01 0.749D-01 0.273D+00 0.633D+00
 Gap=     0.244 Goal=   None    Shift=    0.000
 Gap=     0.177 Goal=   None    Shift=    0.000
 RMSDP=5.64D-06 MaxDP=4.86D-04 DE=-6.36D-05 OVMax= 7.80D-04

 Initial convergence to 1.0D-05 achieved.  Increase integral accuracy.
 Cycle   7  Pass 1  IDiag  1:
 E= -308.234792260280     Delta-E=       -0.000015877131 Rises=F Damp=F
 DIIS: error= 4.31D-05 at cycle   1 NSaved=   1.
 NSaved= 1 IEnMin= 1 EnMin= -308.234792260280     IErMin= 1 ErrMin= 4.31D-05
 ErrMax= 4.31D-05  0.00D+00 EMaxC= 1.00D-01 BMatC= 3.31D-06 BMatP= 3.31D-06
 IDIUse=1 WtCom= 1.00D+00 WtEn= 0.00D+00
 Coeff-Com:  0.100D+01
 Coeff:      0.100D+01
 Gap=     0.245 Goal=   None    Shift=    0.000
 Gap=     0.177 Goal=   None    Shift=    0.000
 RMSDP=5.64D-06 MaxDP=4.86D-04 DE=-1.59D-05 OVMax= 7.12D-04

 Cycle   8  Pass 1  IDiag  1:
 RMSU=  6.07D-06    CP:  1.00D+00
 E= -308.234792368854     Delta-E=       -0.000000108575 Rises=F Damp=F
 DIIS: error= 5.89D-05 at cycle   2 NSaved=   2.
 NSaved= 2 IEnMin= 2 EnMin= -308.234792368854     IErMin= 1 ErrMin= 4.31D-05
 ErrMax= 5.89D-05  0.00D+00 EMaxC= 1.00D-01 BMatC= 4.13D-06 BMatP= 3.31D-06
 IDIUse=1 WtCom= 1.00D+00 WtEn= 0.00D+00
 Coeff-Com:  0.531D+00 0.469D+00
 Coeff:      0.531D+00 0.469D+00
 Gap=     0.244 Goal=   None    Shift=    0.000
 Gap=     0.177 Goal=   None    Shift=    0.000
 RMSDP=2.35D-06 MaxDP=1.46D-04 DE=-1.09D-07 OVMax= 2.67D-04

 Cycle   9  Pass 1  IDiag  1:
 RMSU=  1.89D-06    CP:  1.00D+00  7.71D-01
 E= -308.234793341420     Delta-E=       -0.000000972566 Rises=F Damp=F
 DIIS: error= 8.00D-06 at cycle   3 NSaved=   3.
 NSaved= 3 IEnMin= 3 EnMin= -308.234793341420     IErMin= 3 ErrMin= 8.00D-06
 ErrMax= 8.00D-06  0.00D+00 EMaxC= 1.00D-01 BMatC= 9.93D-08 BMatP= 3.31D-06
 IDIUse=1 WtCom= 1.00D+00 WtEn= 0.00D+00
 Coeff-Com: -0.111D+00 0.261D-01 0.109D+01
 Coeff:     -0.111D+00 0.261D-01 0.109D+01
 Gap=     0.245 Goal=   None    Shift=    0.000
 Gap=     0.177 Goal=   None    Shift=    0.000
 RMSDP=8.68D-07 MaxDP=5.19D-05 DE=-9.73D-07 OVMax= 1.13D-04

 Cycle  10  Pass 1  IDiag  1:
 RMSU=  6.66D-07    CP:  1.00D+00  8.60D-01  1.07D+00
 E= -308.234793388002     Delta-E=       -0.000000046582 Rises=F Damp=F
 DIIS: error= 5.11D-06 at cycle   4 NSaved=   4.
 NSaved= 4 IEnMin= 4 EnMin= -308.234793388002     IErMin= 4 ErrMin= 5.11D-06
 ErrMax= 5.11D-06  0.00D+00 EMaxC= 1.00D-01 BMatC= 3.87D-08 BMatP= 9.93D-08
 IDIUse=1 WtCom= 1.00D+00 WtEn= 0.00D+00
 Coeff-Com: -0.104D+00-0.295D-01 0.541D+00 0.593D+00
 Coeff:     -0.104D+00-0.295D-01 0.541D+00 0.593D+00
 Gap=     0.245 Goal=   None    Shift=    0.000
 Gap=     0.177 Goal=   None    Shift=    0.000
 RMSDP=3.08D-07 MaxDP=1.17D-05 DE=-4.66D-08 OVMax= 3.26D-05

 Cycle  11  Pass 1  IDiag  1:
 RMSU=  2.86D-07    CP:  1.00D+00  8.73D-01  1.11D+00  1.03D+00
 E= -308.234793395506     Delta-E=       -0.000000007504 Rises=F Damp=F
 DIIS: error= 1.95D-06 at cycle   5 NSaved=   5.
 NSaved= 5 IEnMin= 5 EnMin= -308.234793395506     IErMin= 5 ErrMin= 1.95D-06
 ErrMax= 1.95D-06  0.00D+00 EMaxC= 1.00D-01 BMatC= 1.05D-08 BMatP= 3.87D-08
 IDIUse=1 WtCom= 1.00D+00 WtEn= 0.00D+00
 Coeff-Com: -0.275D-01-0.254D-01-0.194D-01 0.361D+00 0.711D+00
 Coeff:     -0.275D-01-0.254D-01-0.194D-01 0.361D+00 0.711D+00
 Gap=     0.245 Goal=   None    Shift=    0.000
 Gap=     0.177 Goal=   None    Shift=    0.000
 RMSDP=1.46D-07 MaxDP=7.95D-06 DE=-7.50D-09 OVMax= 1.90D-05

 Cycle  12  Pass 1  IDiag  1:
 RMSU=  7.22D-08    CP:  1.00D+00  8.78D-01  1.14D+00  1.19D+00  8.78D-01
 E= -308.234793397827     Delta-E=       -0.000000002320 Rises=F Damp=F
 DIIS: error= 5.72D-07 at cycle   6 NSaved=   6.
 NSaved= 6 IEnMin= 6 EnMin= -308.234793397827     IErMin= 6 ErrMin= 5.72D-07
 ErrMax= 5.72D-07  0.00D+00 EMaxC= 1.00D-01 BMatC= 5.12D-10 BMatP= 1.05D-08
 IDIUse=1 WtCom= 1.00D+00 WtEn= 0.00D+00
 Coeff-Com:  0.207D-02-0.596D-02-0.692D-01 0.666D-01 0.259D+00 0.748D+00
 Coeff:      0.207D-02-0.596D-02-0.692D-01 0.666D-01 0.259D+00 0.748D+00
 Gap=     0.245 Goal=   None    Shift=    0.000
 Gap=     0.177 Goal=   None    Shift=    0.000
 RMSDP=4.08D-08 MaxDP=1.46D-06 DE=-2.32D-09 OVMax= 3.56D-06

 Cycle  13  Pass 1  IDiag  1:
 RMSU=  2.79D-08    CP:  1.00D+00  8.80D-01  1.14D+00  1.23D+00  9.01D-01
                    CP:  8.13D-01
 E= -308.234793397947     Delta-E=       -0.000000000121 Rises=F Damp=F
 DIIS: error= 2.26D-07 at cycle   7 NSaved=   7.
 NSaved= 7 IEnMin= 7 EnMin= -308.234793397947     IErMin= 7 ErrMin= 2.26D-07
 ErrMax= 2.26D-07  0.00D+00 EMaxC= 1.00D-01 BMatC= 7.05D-11 BMatP= 5.12D-10
 IDIUse=1 WtCom= 1.00D+00 WtEn= 0.00D+00
 Coeff-Com:  0.252D-02-0.126D-02-0.293D-01 0.753D-02 0.705D-01 0.337D+00
 Coeff-Com:  0.613D+00
 Coeff:      0.252D-02-0.126D-02-0.293D-01 0.753D-02 0.705D-01 0.337D+00
 Coeff:      0.613D+00
 Gap=     0.245 Goal=   None    Shift=    0.000
 Gap=     0.177 Goal=   None    Shift=    0.000
 RMSDP=1.50D-08 MaxDP=7.40D-07 DE=-1.21D-10 OVMax= 1.30D-06

 Cycle  14  Pass 1  IDiag  1:
 RMSU=  1.12D-08    CP:  1.00D+00  8.79D-01  1.14D+00  1.22D+00  9.14D-01
                    CP:  9.05D-01  8.58D-01
 E= -308.234793397966     Delta-E=       -0.000000000019 Rises=F Damp=F
 DIIS: error= 7.36D-08 at cycle   8 NSaved=   8.
 NSaved= 8 IEnMin= 8 EnMin= -308.234793397966     IErMin= 8 ErrMin= 7.36D-08
 ErrMax= 7.36D-08  0.00D+00 EMaxC= 1.00D-01 BMatC= 5.87D-12 BMatP= 7.05D-11
 IDIUse=1 WtCom= 1.00D+00 WtEn= 0.00D+00
 Coeff-Com: -0.109D-03 0.133D-02 0.139D-01-0.161D-01-0.575D-01-0.144D+00
 Coeff-Com:  0.943D-01 0.111D+01
 Coeff:     -0.109D-03 0.133D-02 0.139D-01-0.161D-01-0.575D-01-0.144D+00
 Coeff:      0.943D-01 0.111D+01
 Gap=     0.245 Goal=   None    Shift=    0.000
 Gap=     0.177 Goal=   None    Shift=    0.000
 RMSDP=6.99D-09 MaxDP=3.49D-07 DE=-1.89D-11 OVMax= 8.20D-07

 SCF Done:  E(UB3LYP) =  -308.234793398     A.U. after   14 cycles
            NFock= 14  Conv=0.70D-08     -V/T= 2.0067
 <Sx>= 0.0000 <Sy>= 0.0000 <Sz>= 0.5000 <S**2>= 0.7534 S= 0.5017
 <L.S>=  0.00000000000    
 KE= 3.061809956120D+02 PE=-1.223493751302D+03 EE= 3.575361009342D+02
 Annihilation of the first spin contaminant:
 S**2 before annihilation     0.7534,   after     0.7500
 Leave Link  502 at Thu Apr  7 19:44:52 2022, MaxMem=  1073741824 cpu:             390.7 elap:              48.9
 (Enter /home/saurabh/gaussian/g16/l801.exe)
 DoSCS=F DFT=T ScalE2(SS,OS)=  1.000000  1.000000
 Range of M.O.s used for correlation:     1   306
 NBasis=   306 NAE=    25 NBE=    24 NFC=     0 NFV=     0
 NROrb=    306 NOA=    25 NOB=    24 NVA=   281 NVB=   282

 **** Warning!!: The largest alpha MO coefficient is  0.10530077D+02


 **** Warning!!: The largest beta MO coefficient is  0.10528638D+02

 Leave Link  801 at Thu Apr  7 19:44:52 2022, MaxMem=  1073741824 cpu:               0.2 elap:               0.0
 (Enter /home/saurabh/gaussian/g16/l1101.exe)
 Using compressed storage, NAtomX=    15.
 Will process     16 centers per pass.
 Leave Link 1101 at Thu Apr  7 19:44:53 2022, MaxMem=  1073741824 cpu:               2.0 elap:               0.3
 (Enter /home/saurabh/gaussian/g16/l1102.exe)
 Symmetrizing basis deriv contribution to polar:
 IMax=3 JMax=2 DiffMx= 0.00D+00
 Leave Link 1102 at Thu Apr  7 19:44:53 2022, MaxMem=  1073741824 cpu:               0.3 elap:               0.1
 (Enter /home/saurabh/gaussian/g16/l1110.exe)
 Forming Gx(P) for the SCF density, NAtomX=    15.
 Integral derivatives from FoFJK, PRISM(SPDF).
 Do as many integral derivatives as possible in FoFJK.
 G2DrvN: MDV=    1073740143.
 G2DrvN: will do    16 centers at a time, making    1 passes.
 Calling FoFCou, ICntrl=  3107 FMM=F I1Cent=   0 AccDes= 0.00D+00.
 FoFJK:  IHMeth= 1 ICntrl=    3107 DoSepK=F KAlg= 0 I1Cent=           0 FoldK=F
 IRaf=         0 NMat=       1 IRICut=       1 DoRegI=T DoRafI=F ISym2E= 0 IDoP0=0 IntGTp=1.
 FoFCou: FMM=F IPFlag=           0 FMFlag=      100000 FMFlg1=           0
         NFxFlg=           0 DoJE=F BraDBF=F KetDBF=F FulRan=T
         wScrn=  0.000000 ICntrl=      3107 IOpCl=  1 I1Cent=           0 NGrid=           0
         NMat0=    1 NMatS0=      1 NMatT0=    0 NMatD0=    1 NMtDS0=    0 NMtDT0=    0
 Symmetry not used in FoFCou.
 End of G2Drv F.D. properties file   721 does not exist.
 End of G2Drv F.D. properties file   722 does not exist.
 End of G2Drv F.D. properties file   788 does not exist.
 Leave Link 1110 at Thu Apr  7 19:46:16 2022, MaxMem=  1073741824 cpu:             665.0 elap:              83.1
 (Enter /home/saurabh/gaussian/g16/l1002.exe)
 Minotr:  UHF open shell wavefunction.
          IDoAtm=111111111111111
          Direct CPHF calculation.
          Differentiating once with respect to nuclear coordinates.
          Requested convergence is 1.0D-08 RMS, and 1.0D-07 maximum.
          Secondary convergence is 1.0D-12 RMS, and 1.0D-12 maximum.
          NewPWx=T KeepS1=F KeepF1=F KeepIn=T MapXYZ=F SortEE=F KeepMc=T.
         4464 words used for storage of precomputed grid.
 Two-electron integrals replicated using symmetry.
          MDV=    1073741824 using IRadAn=       1.
          Solving linear equations simultaneously, MaxMat=     384.
 FoF2E skips out because all densities are zero.
 CalDSu exits because no D1Ps are significant.
 FoFJK:  IHMeth= 1 ICntrl=       0 DoSepK=F KAlg= 0 I1Cent=           0 FoldK=F
 IRaf= 960000000 NMat=      45 IRICut=     112 DoRegI=T DoRafI=T ISym2E= 2 IDoP0=3 IntGTp=3.
 FoFCou: FMM=F IPFlag=           0 FMFlag=      100000 FMFlg1=           0
         NFxFlg=           0 DoJE=F BraDBF=F KetDBF=F FulRan=T
         wScrn=  0.000000 ICntrl=         0 IOpCl=  1 I1Cent=           0 NGrid=           0
         NMat0=   45 NMatS0=     45 NMatT0=    0 NMatD0=   45 NMtDS0=    0 NMtDT0=    0
 Integrals replicated using symmetry in FoFCou.
 Raff kept on since  94.14% of shell-pairs survive, threshold=   0.20 IRatSp=94.
          There are    48 degrees of freedom in the 1st order CPHF.  IDoFFX=6 NUNeed=     0.
     42 vectors produced by pass  0 Test12= 2.87D-14 2.08D-09 XBig12= 1.80D-01 9.90D-02.
 AX will form    42 AO Fock derivatives at one time.
     42 vectors produced by pass  1 Test12= 2.87D-14 2.08D-09 XBig12= 3.71D-02 2.57D-02.
     42 vectors produced by pass  2 Test12= 2.87D-14 2.08D-09 XBig12= 5.99D-04 4.58D-03.
     42 vectors produced by pass  3 Test12= 2.87D-14 2.08D-09 XBig12= 6.37D-06 2.27D-04.
     42 vectors produced by pass  4 Test12= 2.87D-14 2.08D-09 XBig12= 6.13D-08 3.27D-05.
     42 vectors produced by pass  5 Test12= 2.87D-14 2.08D-09 XBig12= 3.95D-10 1.69D-06.
     30 vectors produced by pass  6 Test12= 2.87D-14 2.08D-09 XBig12= 1.11D-12 9.96D-08.
      8 vectors produced by pass  7 Test12= 2.87D-14 2.08D-09 XBig12= 5.21D-15 6.42D-09.
 InvSVY:  IOpt=1 It=  1 EMax= 2.00D-15
 Solved reduced A of dimension   290 with    42 vectors.
 End of Minotr F.D. properties file   721 does not exist.
 End of Minotr F.D. properties file   722 does not exist.
 End of Minotr F.D. properties file   788 does not exist.
 Leave Link 1002 at Thu Apr  7 19:49:30 2022, MaxMem=  1073741824 cpu:            1551.6 elap:             194.0
 (Enter /home/saurabh/gaussian/g16/l601.exe)
 Copying SCF densities to generalized density rwf, IOpCl= 1 IROHF=0.

 **********************************************************************

            Population analysis using the SCF Density.

 **********************************************************************

 Orbital symmetries:
 Alpha Orbitals:
       Occupied  (A) (A) (A) (A) (A) (A) (A) (A) (A) (A) (A) (A)
                 (A) (A) (A) (A) (A) (A) (A) (A) (A) (A) (A) (A)
                 (A)
       Virtual   (A) (A) (A) (A) (A) (A) (A) (A) (A) (A) (A) (A)
                 (A) (A) (A) (A) (A) (A) (A) (A) (A) (A) (A) (A)
                 (A) (A) (A) (A) (A) (A) (A) (A) (A) (A) (A) (A)
                 (A) (A) (A) (A) (A) (A) (A) (A) (A) (A) (A) (A)
                 (A) (A) (A) (A) (A) (A) (A) (A) (A) (A) (A) (A)
                 (A) (A) (A) (A) (A) (A) (A) (A) (A) (A) (A) (A)
                 (A) (A) (A) (A) (A) (A) (A) (A) (A) (A) (A) (A)
                 (A) (A) (A) (A) (A) (A) (A) (A) (A) (A) (A) (A)
                 (A) (A) (A) (A) (A) (A) (A) (A) (A) (A) (A) (A)
                 (A) (A) (A) (A) (A) (A) (A) (A) (A) (A) (A) (A)
                 (A) (A) (A) (A) (A) (A) (A) (A) (A) (A) (A) (A)
                 (A) (A) (A) (A) (A) (A) (A) (A) (A) (A) (A) (A)
                 (A) (A) (A) (A) (A) (A) (A) (A) (A) (A) (A) (A)
                 (A) (A) (A) (A) (A) (A) (A) (A) (A) (A) (A) (A)
                 (A) (A) (A) (A) (A) (A) (A) (A) (A) (A) (A) (A)
                 (A) (A) (A) (A) (A) (A) (A) (A) (A) (A) (A) (A)
                 (A) (A) (A) (A) (A) (A) (A) (A) (A) (A) (A) (A)
                 (A) (A) (A) (A) (A) (A) (A) (A) (A) (A) (A) (A)
                 (A) (A) (A) (A) (A) (A) (A) (A) (A) (A) (A) (A)
                 (A) (A) (A) (A) (A) (A) (A) (A) (A) (A) (A) (A)
                 (A) (A) (A) (A) (A) (A) (A) (A) (A) (A) (A) (A)
                 (A) (A) (A) (A) (A) (A) (A) (A) (A) (A) (A) (A)
                 (A) (A) (A) (A) (A) (A) (A) (A) (A) (A) (A) (A)
                 (A) (A) (A) (A) (A)
 Beta  Orbitals:
       Occupied  (A) (A) (A) (A) (A) (A) (A) (A) (A) (A) (A) (A)
                 (A) (A) (A) (A) (A) (A) (A) (A) (A) (A) (A) (A)
       Virtual   (A) (A) (A) (A) (A) (A) (A) (A) (A) (A) (A) (A)
                 (A) (A) (A) (A) (A) (A) (A) (A) (A) (A) (A) (A)
                 (A) (A) (A) (A) (A) (A) (A) (A) (A) (A) (A) (A)
                 (A) (A) (A) (A) (A) (A) (A) (A) (A) (A) (A) (A)
                 (A) (A) (A) (A) (A) (A) (A) (A) (A) (A) (A) (A)
                 (A) (A) (A) (A) (A) (A) (A) (A) (A) (A) (A) (A)
                 (A) (A) (A) (A) (A) (A) (A) (A) (A) (A) (A) (A)
                 (A) (A) (A) (A) (A) (A) (A) (A) (A) (A) (A) (A)
                 (A) (A) (A) (A) (A) (A) (A) (A) (A) (A) (A) (A)
                 (A) (A) (A) (A) (A) (A) (A) (A) (A) (A) (A) (A)
                 (A) (A) (A) (A) (A) (A) (A) (A) (A) (A) (A) (A)
                 (A) (A) (A) (A) (A) (A) (A) (A) (A) (A) (A) (A)
                 (A) (A) (A) (A) (A) (A) (A) (A) (A) (A) (A) (A)
                 (A) (A) (A) (A) (A) (A) (A) (A) (A) (A) (A) (A)
                 (A) (A) (A) (A) (A) (A) (A) (A) (A) (A) (A) (A)
                 (A) (A) (A) (A) (A) (A) (A) (A) (A) (A) (A) (A)
                 (A) (A) (A) (A) (A) (A) (A) (A) (A) (A) (A) (A)
                 (A) (A) (A) (A) (A) (A) (A) (A) (A) (A) (A) (A)
                 (A) (A) (A) (A) (A) (A) (A) (A) (A) (A) (A) (A)
                 (A) (A) (A) (A) (A) (A) (A) (A) (A) (A) (A) (A)
                 (A) (A) (A) (A) (A) (A) (A) (A) (A) (A) (A) (A)
                 (A) (A) (A) (A) (A) (A) (A) (A) (A) (A) (A) (A)
                 (A) (A) (A) (A) (A) (A) (A) (A) (A) (A) (A) (A)
                 (A) (A) (A) (A) (A) (A)
 The electronic state is 2-A.
 Alpha  occ. eigenvalues --  -19.18082 -19.17955 -10.22725 -10.20394 -10.17886
 Alpha  occ. eigenvalues --  -10.17702  -1.18146  -0.89950  -0.79996  -0.69150
 Alpha  occ. eigenvalues --   -0.67567  -0.56379  -0.54766  -0.49820  -0.47237
 Alpha  occ. eigenvalues --   -0.44865  -0.42888  -0.41316  -0.39726  -0.37736
 Alpha  occ. eigenvalues --   -0.35375  -0.34556  -0.29663  -0.25667  -0.22198
 Alpha virt. eigenvalues --    0.02255   0.04116   0.07184   0.07641   0.07727
 Alpha virt. eigenvalues --    0.09543   0.11720   0.12607   0.13615   0.14275
 Alpha virt. eigenvalues --    0.15308   0.17936   0.19473   0.21171   0.25121
 Alpha virt. eigenvalues --    0.26309   0.29037   0.30089   0.32843   0.33480
 Alpha virt. eigenvalues --    0.35926   0.36504   0.37029   0.39379   0.41779
 Alpha virt. eigenvalues --    0.42575   0.43082   0.44503   0.44904   0.45563
 Alpha virt. eigenvalues --    0.45929   0.46254   0.47464   0.48054   0.48563
 Alpha virt. eigenvalues --    0.49815   0.52999   0.55441   0.61378   0.62762
 Alpha virt. eigenvalues --    0.64624   0.65902   0.67373   0.70466   0.71902
 Alpha virt. eigenvalues --    0.73537   0.77488   0.78972   0.79889   0.82489
 Alpha virt. eigenvalues --    0.84913   0.86930   0.90765   0.91430   0.92753
 Alpha virt. eigenvalues --    0.93666   0.95138   0.98153   0.99492   1.01134
 Alpha virt. eigenvalues --    1.01965   1.03239   1.05338   1.07368   1.10910
 Alpha virt. eigenvalues --    1.11222   1.13095   1.15756   1.16755   1.18578
 Alpha virt. eigenvalues --    1.21051   1.21667   1.22516   1.25098   1.26708
 Alpha virt. eigenvalues --    1.27207   1.28659   1.29586   1.30201   1.31516
 Alpha virt. eigenvalues --    1.32452   1.36885   1.39440   1.42011   1.43568
 Alpha virt. eigenvalues --    1.45014   1.46370   1.49070   1.50208   1.51148
 Alpha virt. eigenvalues --    1.52704   1.54254   1.56425   1.61702   1.67864
 Alpha virt. eigenvalues --    1.73580   1.77921   1.92897   1.97148   1.99665
 Alpha virt. eigenvalues --    2.03983   2.12214   2.16231   2.20053   2.21067
 Alpha virt. eigenvalues --    2.26277   2.28167   2.30930   2.32016   2.34306
 Alpha virt. eigenvalues --    2.36110   2.43174   2.45744   2.49275   2.52106
 Alpha virt. eigenvalues --    2.52926   2.55946   2.58380   2.60208   2.61840
 Alpha virt. eigenvalues --    2.63437   2.68132   2.69437   2.72461   2.72977
 Alpha virt. eigenvalues --    2.76700   2.78161   2.79122   2.80644   2.85279
 Alpha virt. eigenvalues --    2.86536   2.88541   2.89461   2.89983   2.91840
 Alpha virt. eigenvalues --    2.93224   2.95194   2.98087   2.99428   3.02898
 Alpha virt. eigenvalues --    3.04040   3.05879   3.07929   3.08071   3.09194
 Alpha virt. eigenvalues --    3.10277   3.11896   3.14704   3.15332   3.16784
 Alpha virt. eigenvalues --    3.24858   3.26864   3.27969   3.28998   3.29870
 Alpha virt. eigenvalues --    3.30425   3.32384   3.35147   3.37167   3.39438
 Alpha virt. eigenvalues --    3.40711   3.42155   3.42998   3.44492   3.46271
 Alpha virt. eigenvalues --    3.47608   3.50196   3.53159   3.55998   3.56963
 Alpha virt. eigenvalues --    3.58747   3.60506   3.61791   3.65078   3.66976
 Alpha virt. eigenvalues --    3.68339   3.70022   3.71003   3.73416   3.74534
 Alpha virt. eigenvalues --    3.76131   3.77057   3.79513   3.82307   3.84586
 Alpha virt. eigenvalues --    3.87931   3.90200   3.91723   3.93246   3.95084
 Alpha virt. eigenvalues --    3.98542   3.99425   4.00230   4.04032   4.04487
 Alpha virt. eigenvalues --    4.06508   4.08718   4.10902   4.12714   4.13448
 Alpha virt. eigenvalues --    4.13993   4.15898   4.17025   4.20516   4.20707
 Alpha virt. eigenvalues --    4.22400   4.24670   4.26930   4.28405   4.30475
 Alpha virt. eigenvalues --    4.32377   4.36468   4.38728   4.44003   4.47024
 Alpha virt. eigenvalues --    4.55098   4.56655   4.59984   4.67988   4.72028
 Alpha virt. eigenvalues --    4.73256   4.74100   4.76042   4.78134   4.82580
 Alpha virt. eigenvalues --    4.84603   4.86709   4.89749   4.92064   5.02572
 Alpha virt. eigenvalues --    5.05717   5.07347   5.08372   5.08946   5.10493
 Alpha virt. eigenvalues --    5.10750   5.12953   5.14964   5.16509   5.19303
 Alpha virt. eigenvalues --    5.21976   5.24960   5.25924   5.26660   5.29373
 Alpha virt. eigenvalues --    5.31188   5.32278   5.35644   5.42316   5.46533
 Alpha virt. eigenvalues --    5.60231   5.71704   5.80592   5.83426   5.83569
 Alpha virt. eigenvalues --    5.85400   5.92098   5.96013   6.06867   6.09681
 Alpha virt. eigenvalues --    6.27661   6.35414   6.39433   6.47632   6.51333
 Alpha virt. eigenvalues --    6.60703   6.68872   6.77758   6.82604   6.93877
 Alpha virt. eigenvalues --    6.97029   7.22007   7.34364   7.48282   7.76199
 Alpha virt. eigenvalues --    8.91271  10.47098  11.69289  12.40170  13.04037
 Alpha virt. eigenvalues --   13.20494
  Beta  occ. eigenvalues --  -19.18077 -19.17937 -10.22747 -10.18966 -10.17924
  Beta  occ. eigenvalues --  -10.17718  -1.18120  -0.89825  -0.78556  -0.68921
  Beta  occ. eigenvalues --   -0.67344  -0.55874  -0.53710  -0.49236  -0.46820
  Beta  occ. eigenvalues --   -0.43816  -0.42576  -0.40789  -0.39266  -0.37521
  Beta  occ. eigenvalues --   -0.34953  -0.34054  -0.29601  -0.25357
  Beta virt. eigenvalues --   -0.07616   0.02504   0.04182   0.07270   0.07712
  Beta virt. eigenvalues --    0.08151   0.09649   0.11962   0.12921   0.13816
  Beta virt. eigenvalues --    0.14541   0.15589   0.18246   0.19934   0.21659
  Beta virt. eigenvalues --    0.25427   0.26729   0.29551   0.30641   0.33528
  Beta virt. eigenvalues --    0.35672   0.36422   0.37285   0.38059   0.39772
  Beta virt. eigenvalues --    0.41991   0.42784   0.43288   0.44784   0.45248
  Beta virt. eigenvalues --    0.45749   0.46321   0.47150   0.47610   0.48256
  Beta virt. eigenvalues --    0.49373   0.50641   0.53088   0.55723   0.61623
  Beta virt. eigenvalues --    0.63006   0.64961   0.66180   0.67813   0.70632
  Beta virt. eigenvalues --    0.72091   0.73909   0.77758   0.79129   0.80186
  Beta virt. eigenvalues --    0.82563   0.85293   0.87128   0.91052   0.91870
  Beta virt. eigenvalues --    0.93404   0.93977   0.95449   0.98467   0.99671
  Beta virt. eigenvalues --    1.01410   1.02174   1.03626   1.05712   1.08503
  Beta virt. eigenvalues --    1.11447   1.11975   1.13577   1.16836   1.17182
  Beta virt. eigenvalues --    1.18920   1.21489   1.22044   1.22944   1.25331
  Beta virt. eigenvalues --    1.26917   1.27411   1.29266   1.29899   1.30469
  Beta virt. eigenvalues --    1.32564   1.32882   1.37299   1.39771   1.42719
  Beta virt. eigenvalues --    1.43714   1.45731   1.47162   1.49381   1.50668
  Beta virt. eigenvalues --    1.51819   1.53347   1.55504   1.56991   1.62292
  Beta virt. eigenvalues --    1.68366   1.73776   1.78160   1.93347   1.97224
  Beta virt. eigenvalues --    2.00024   2.04544   2.14729   2.16711   2.20544
  Beta virt. eigenvalues --    2.21345   2.26605   2.28684   2.31417   2.32768
  Beta virt. eigenvalues --    2.35419   2.37596   2.43812   2.46216   2.49603
  Beta virt. eigenvalues --    2.52877   2.53838   2.56575   2.58809   2.60545
  Beta virt. eigenvalues --    2.62173   2.63932   2.68500   2.70513   2.73033
  Beta virt. eigenvalues --    2.73735   2.76925   2.78492   2.79371   2.81120
  Beta virt. eigenvalues --    2.85853   2.86917   2.89037   2.90355   2.91706
  Beta virt. eigenvalues --    2.92779   2.93763   2.95567   2.98375   2.99754
  Beta virt. eigenvalues --    3.03262   3.04565   3.06823   3.08098   3.08355
  Beta virt. eigenvalues --    3.09646   3.10685   3.12627   3.15114   3.15924
  Beta virt. eigenvalues --    3.17125   3.25479   3.27440   3.29484   3.30413
  Beta virt. eigenvalues --    3.31117   3.31927   3.33203   3.35500   3.37668
  Beta virt. eigenvalues --    3.39789   3.41265   3.42599   3.43422   3.44700
  Beta virt. eigenvalues --    3.46680   3.48025   3.50621   3.54085   3.56600
  Beta virt. eigenvalues --    3.57959   3.59289   3.61386   3.62345   3.65678
  Beta virt. eigenvalues --    3.67403   3.68797   3.70272   3.71683   3.74099
  Beta virt. eigenvalues --    3.75287   3.76535   3.77418   3.80012   3.82716
  Beta virt. eigenvalues --    3.85036   3.88651   3.90548   3.92264   3.93846
  Beta virt. eigenvalues --    3.95515   3.99016   3.99692   4.00924   4.04386
  Beta virt. eigenvalues --    4.04995   4.07169   4.09300   4.11548   4.13106
  Beta virt. eigenvalues --    4.13943   4.14691   4.16511   4.17874   4.21049
  Beta virt. eigenvalues --    4.21201   4.22899   4.25067   4.27522   4.29120
  Beta virt. eigenvalues --    4.30753   4.32797   4.37145   4.39391   4.45168
  Beta virt. eigenvalues --    4.48453   4.55615   4.57023   4.60408   4.68440
  Beta virt. eigenvalues --    4.72317   4.73575   4.74378   4.76438   4.78631
  Beta virt. eigenvalues --    4.83072   4.84814   4.87029   4.90035   4.92299
  Beta virt. eigenvalues --    5.02768   5.06004   5.07682   5.08719   5.09186
  Beta virt. eigenvalues --    5.10742   5.10981   5.13216   5.15444   5.16806
  Beta virt. eigenvalues --    5.19715   5.22321   5.25149   5.26288   5.26953
  Beta virt. eigenvalues --    5.29659   5.31347   5.32453   5.36011   5.42796
  Beta virt. eigenvalues --    5.47045   5.60310   5.71812   5.80907   5.83614
  Beta virt. eigenvalues --    5.83796   5.85512   5.92256   5.96151   6.06910
  Beta virt. eigenvalues --    6.09762   6.27691   6.35468   6.39469   6.47675
  Beta virt. eigenvalues --    6.51365   6.60726   6.68898   6.77778   6.82625
  Beta virt. eigenvalues --    6.93903   6.97065   7.22033   7.34387   7.48302
  Beta virt. eigenvalues --    7.76217   8.92827  10.47155  11.69309  12.40403
  Beta virt. eigenvalues --   13.04311  13.20592
          Condensed to atoms (all electrons):
               1          2          3          4          5          6
     1  C    4.861241   0.327165  -0.036651  -0.054942   0.402820   0.383134
     2  C    0.327165   5.509614   0.271616   0.329922  -0.042886  -0.042074
     3  C   -0.036651   0.271616   4.709400  -0.055158  -0.002482  -0.004550
     4  C   -0.054942   0.329922  -0.055158   4.866203   0.007601  -0.004967
     5  H    0.402820  -0.042886  -0.002482   0.007601   0.598658  -0.032531
     6  H    0.383134  -0.042074  -0.004550  -0.004967  -0.032531   0.634238
     7  H    0.399101  -0.036575   0.004374  -0.004167  -0.027612  -0.033083
     8  H   -0.005089  -0.042659  -0.002799   0.383422  -0.000342   0.008738
     9  H    0.008711  -0.042544  -0.006031   0.397438  -0.000487  -0.000387
    10  H   -0.005434  -0.038712   0.007043   0.400602  -0.000039  -0.000755
    11  O    0.002565  -0.080204   0.349528  -0.004159   0.000118  -0.000022
    12  O    0.000844   0.023754  -0.085072   0.001545   0.000008  -0.000038
    13  H   -0.000843  -0.053338   0.386753  -0.003755  -0.000648   0.007467
    14  H    0.001991  -0.074816   0.425924   0.008022   0.004313  -0.001043
    15  H   -0.000272   0.012908  -0.009008   0.000368  -0.000023   0.000028
               7          8          9         10         11         12
     1  C    0.399101  -0.005089   0.008711  -0.005434   0.002565   0.000844
     2  C   -0.036575  -0.042659  -0.042544  -0.038712  -0.080204   0.023754
     3  C    0.004374  -0.002799  -0.006031   0.007043   0.349528  -0.085072
     4  C   -0.004167   0.383422   0.397438   0.400602  -0.004159   0.001545
     5  H   -0.027612  -0.000342  -0.000487  -0.000039   0.000118   0.000008
     6  H   -0.033083   0.008738  -0.000387  -0.000755  -0.000022  -0.000038
     7  H    0.602295  -0.000836  -0.000038   0.004339  -0.000372   0.000080
     8  H   -0.000836   0.629594  -0.029775  -0.032410  -0.000997   0.000096
     9  H   -0.000038  -0.029775   0.596266  -0.029093   0.013631  -0.000870
    10  H    0.004339  -0.032410  -0.029093   0.603475   0.000043  -0.000040
    11  O   -0.000372  -0.000997   0.013631   0.000043   7.949363   0.043991
    12  O    0.000080   0.000096  -0.000870  -0.000040   0.043991   7.888161
    13  H   -0.000555   0.007719  -0.000218  -0.000186  -0.024117   0.006932
    14  H   -0.000166  -0.000485   0.000881  -0.000305  -0.042051   0.010062
    15  H    0.000019   0.000142  -0.000391  -0.000135  -0.040788   0.332447
              13         14         15
     1  C   -0.000843   0.001991  -0.000272
     2  C   -0.053338  -0.074816   0.012908
     3  C    0.386753   0.425924  -0.009008
     4  C   -0.003755   0.008022   0.000368
     5  H   -0.000648   0.004313  -0.000023
     6  H    0.007467  -0.001043   0.000028
     7  H   -0.000555  -0.000166   0.000019
     8  H    0.007719  -0.000485   0.000142
     9  H   -0.000218   0.000881  -0.000391
    10  H   -0.000186  -0.000305  -0.000135
    11  O   -0.024117  -0.042051  -0.040788
    12  O    0.006932   0.010062   0.332447
    13  H    0.638269  -0.036231  -0.000944
    14  H   -0.036231   0.637446  -0.002431
    15  H   -0.000944  -0.002431   0.478615
          Atomic-Atomic Spin Densities.
               1          2          3          4          5          6
     1  C   -0.036852  -0.012626   0.006333   0.006900   0.005686  -0.005485
     2  C   -0.012626   1.042984  -0.014927  -0.017933  -0.005496  -0.028339
     3  C    0.006333  -0.014927  -0.018757   0.006518   0.001629  -0.003877
     4  C    0.006900  -0.017933   0.006518  -0.023890   0.000151  -0.003610
     5  H    0.005686  -0.005496   0.001629   0.000151   0.008290  -0.007550
     6  H   -0.005485  -0.028339  -0.003877  -0.003610  -0.007550   0.097727
     7  H    0.006671  -0.006710   0.000236   0.001768   0.002084  -0.009242
     8  H   -0.002738  -0.028779  -0.002018  -0.007069  -0.000470   0.011718
     9  H    0.000031  -0.004968   0.000977   0.006802   0.000044  -0.000484
    10  H    0.001140  -0.004789   0.000028   0.005753   0.000104  -0.001256
    11  O   -0.000050  -0.001487   0.004516   0.000484   0.000021  -0.000108
    12  O   -0.000016  -0.002718   0.000161   0.000055   0.000017  -0.000015
    13  H   -0.002469  -0.026259  -0.001833  -0.003148  -0.001178   0.010231
    14  H    0.001105  -0.003482   0.004916   0.000100   0.000585  -0.001207
    15  H   -0.000037   0.001089  -0.000377  -0.000247  -0.000010   0.000019
               7          8          9         10         11         12
     1  C    0.006671  -0.002738   0.000031   0.001140  -0.000050  -0.000016
     2  C   -0.006710  -0.028779  -0.004968  -0.004789  -0.001487  -0.002718
     3  C    0.000236  -0.002018   0.000977   0.000028   0.004516   0.000161
     4  C    0.001768  -0.007069   0.006802   0.005753   0.000484   0.000055
     5  H    0.002084  -0.000470   0.000044   0.000104   0.000021   0.000017
     6  H   -0.009242   0.011718  -0.000484  -0.001256  -0.000108  -0.000015
     7  H    0.011911  -0.001727   0.000154   0.000811   0.000010   0.000006
     8  H   -0.001727   0.095538  -0.007599  -0.006781  -0.000270  -0.000024
     9  H    0.000154  -0.007599   0.008264   0.001577  -0.000022   0.000060
    10  H    0.000811  -0.006781   0.001577   0.006880   0.000012   0.000009
    11  O    0.000010  -0.000270  -0.000022   0.000012   0.001257  -0.000444
    12  O    0.000006  -0.000024   0.000060   0.000009  -0.000444   0.006725
    13  H   -0.000522   0.010116  -0.001203  -0.000370  -0.004234   0.000187
    14  H    0.000119  -0.000362   0.000075   0.000028   0.000848   0.000162
    15  H   -0.000009   0.000077  -0.000098  -0.000022   0.000257   0.000463
              13         14         15
     1  C   -0.002469   0.001105  -0.000037
     2  C   -0.026259  -0.003482   0.001089
     3  C   -0.001833   0.004916  -0.000377
     4  C   -0.003148   0.000100  -0.000247
     5  H   -0.001178   0.000585  -0.000010
     6  H    0.010231  -0.001207   0.000019
     7  H   -0.000522   0.000119  -0.000009
     8  H    0.010116  -0.000362   0.000077
     9  H   -0.001203   0.000075  -0.000098
    10  H   -0.000370   0.000028  -0.000022
    11  O   -0.004234   0.000848   0.000257
    12  O    0.000187   0.000162   0.000463
    13  H    0.073847  -0.005521   0.000147
    14  H   -0.005521   0.005582  -0.000040
    15  H    0.000147  -0.000040  -0.000975
 Mulliken charges and spin densities:
               1          2
     1  C   -0.284341  -0.032408
     2  C   -0.021172   0.885560
     3  C    0.047109  -0.016474
     4  C   -0.267975  -0.027364
     5  H    0.093531   0.003907
     6  H    0.085846   0.058523
     7  H    0.093195   0.005561
     8  H    0.085680   0.059611
     9  H    0.092905   0.003610
    10  H    0.091607   0.003123
    11  O   -0.166530   0.000788
    12  O   -0.221900   0.004628
    13  H    0.073693   0.047790
    14  H    0.068887   0.002909
    15  H    0.229465   0.000236
 Sum of Mulliken charges =  -0.00000   1.00000
 Mulliken charges and spin densities with hydrogens summed into heavy atoms:
               1          2
     1  C   -0.011769   0.035583
     2  C   -0.021172   0.885560
     3  C    0.189689   0.034225
     4  C    0.002217   0.038980
    11  O   -0.166530   0.000788
    12  O    0.007565   0.004864
 APT charges:
               1
     1  C   -1.074472
     2  C    0.091470
     3  C   -0.610074
     4  C   -1.005347
     5  H    0.315511
     6  H    0.313081
     7  H    0.421159
     8  H    0.307401
     9  H    0.247415
    10  H    0.424650
    11  O    0.000499
    12  O   -0.460110
    13  H    0.301816
    14  H    0.298084
    15  H    0.428917
 Sum of APT charges =  -0.00000
 APT charges with hydrogens summed into heavy atoms:
               1
     1  C   -0.024721
     2  C    0.091470
     3  C   -0.010173
     4  C   -0.025881
    11  O    0.000499
    12  O   -0.031193
 Electronic spatial extent (au):  <R**2>=            693.9900
 Charge=             -0.0000 electrons
 Dipole moment (field-independent basis, Debye):
    X=              1.6864    Y=              0.5268    Z=             -0.3566  Tot=              1.8024
 Quadrupole moment (field-independent basis, Debye-Ang):
   XX=            -41.3402   YY=            -37.2566   ZZ=            -36.6829
   XY=             -1.9513   XZ=              2.6627   YZ=             -2.3773
 Traceless Quadrupole moment (field-independent basis, Debye-Ang):
   XX=             -2.9136   YY=              1.1699   ZZ=              1.7437
   XY=             -1.9513   XZ=              2.6627   YZ=             -2.3773
 Octapole moment (field-independent basis, Debye-Ang**2):
  XXX=             -8.1392  YYY=             -1.5996  ZZZ=             -1.0451  XYY=             -7.8339
  XXY=              6.1171  XXZ=             -5.7716  XZZ=             -7.1726  YZZ=              1.9102
  YYZ=             -1.5696  XYZ=              3.7811
 Hexadecapole moment (field-independent basis, Debye-Ang**3):
 XXXX=           -590.8670 YYYY=           -227.8483 ZZZZ=           -104.7037 XXXY=             -8.3102
 XXXZ=              9.4302 YYYX=             -2.3307 YYYZ=             -0.6273 ZZZX=             12.8912
 ZZZY=             -3.1912 XXYY=           -131.8583 XXZZ=           -103.9767 YYZZ=            -55.9354
 XXYZ=             -9.4056 YYXZ=              2.0632 ZZXY=             -2.9041
 N-N= 2.515418613576D+02 E-N=-1.223493763049D+03  KE= 3.061809956120D+02
  Exact polarizability:       0.000       0.000       0.000       0.000       0.000       0.000
 Approx polarizability:      81.291      -0.767      81.169       3.732      -1.824      81.890
                          Isotropic Fermi Contact Couplings
        Atom                 a.u.       MegaHertz       Gauss      10(-4) cm-1
     1  C(13)             -0.00687      -7.72709      -2.75722      -2.57748
     2  C(13)              0.22881     257.22149      91.78302      85.79985
     3  C(13)             -0.01008     -11.33051      -4.04301      -3.77945
     4  C(13)              0.00308       3.45722       1.23362       1.15320
     5  H(1)               0.00337      15.04779       5.36943       5.01940
     6  H(1)               0.02172      97.10122      34.64813      32.38948
     7  H(1)               0.00439      19.63207       7.00521       6.54856
     8  H(1)               0.02156      96.38396      34.39219      32.15023
     9  H(1)               0.00361      16.13917       5.75886       5.38345
    10  H(1)               0.00299      13.37811       4.77364       4.46246
    11  O(17)              0.01310      -7.94401      -2.83462      -2.64984
    12  O(17)             -0.00143       0.86396       0.30828       0.28819
    13  H(1)               0.01747      78.09156      27.86501      26.04854
    14  H(1)               0.00287      12.84518       4.58348       4.28469
    15  H(1)               0.00016       0.70677       0.25219       0.23575
 --------------------------------------------------------
       Center         ----  Spin Dipole Couplings  ----
                      3XX-RR        3YY-RR        3ZZ-RR
 --------------------------------------------------------
     1   Atom        0.015669     -0.004384     -0.011285
     2   Atom       -0.350489     -0.515483      0.865973
     3   Atom        0.015334     -0.021101      0.005768
     4   Atom       -0.014326      0.024022     -0.009696
     5   Atom       -0.002771      0.011043     -0.008272
     6   Atom        0.004594     -0.003722     -0.000872
     7   Atom        0.016508     -0.008815     -0.007693
     8   Atom       -0.006161      0.004304      0.001858
     9   Atom       -0.008337      0.015864     -0.007527
    10   Atom       -0.001444      0.010135     -0.008691
    11   Atom        0.000267      0.004815     -0.005082
    12   Atom        0.011580     -0.020604      0.009024
    13   Atom       -0.000876     -0.007754      0.008630
    14   Atom       -0.000432      0.005456     -0.005024
    15   Atom        0.009104     -0.003403     -0.005700
 --------------------------------------------------------
                        XY            XZ            YZ
 --------------------------------------------------------
     1   Atom       -0.019093      0.011211     -0.007360
     2   Atom        0.013438      0.475471      0.042492
     3   Atom        0.005654     -0.039653     -0.004977
     4   Atom        0.015462      0.008333      0.022681
     5   Atom       -0.012442     -0.000066      0.000095
     6   Atom       -0.006808      0.006558     -0.002392
     7   Atom       -0.005163     -0.004805      0.001619
     8   Atom        0.004175      0.004349      0.006817
     9   Atom       -0.007590     -0.001222      0.005509
    10   Atom        0.013162     -0.000454     -0.001990
    11   Atom       -0.012307      0.001065      0.000850
    12   Atom        0.003493     -0.028639     -0.002394
    13   Atom        0.002795     -0.004902     -0.005062
    14   Atom        0.013009     -0.004914     -0.007911
    15   Atom       -0.003785      0.002985     -0.001922
 --------------------------------------------------------


 ---------------------------------------------------------------------------------
              Anisotropic Spin Dipole Couplings in Principal Axis System
 ---------------------------------------------------------------------------------

       Atom             a.u.   MegaHertz   Gauss  10(-4) cm-1        Axes

              Baa    -0.0162    -2.178    -0.777    -0.727  0.2978  0.8018  0.5181
     1 C(13)  Bbb    -0.0152    -2.038    -0.727    -0.680 -0.4972 -0.3330  0.8012
              Bcc     0.0314     4.216     1.504     1.406  0.8149 -0.4962  0.2995
 
              Baa    -0.5172   -69.404   -24.765   -23.151  0.3329  0.9320 -0.1431
     2 C(13)  Bbb    -0.5138   -68.952   -24.604   -23.000  0.8850 -0.3612 -0.2938
              Bcc     1.0310   138.357    49.369    46.151  0.3255  0.0288  0.9451
 
              Baa    -0.0294    -3.944    -1.407    -1.316  0.6637 -0.0036  0.7480
     3 C(13)  Bbb    -0.0219    -2.937    -1.048    -0.980 -0.0750  0.9946  0.0714
              Bcc     0.0513     6.881     2.455     2.295  0.7443  0.1035 -0.6598
 
              Baa    -0.0213    -2.854    -1.018    -0.952 -0.3153 -0.3367  0.8872
     4 C(13)  Bbb    -0.0197    -2.648    -0.945    -0.883  0.8995 -0.4041  0.1663
              Bcc     0.0410     5.501     1.963     1.835  0.3025  0.8505  0.4303
 
              Baa    -0.0101    -5.386    -1.922    -1.797  0.8618  0.5072  0.0048
     5 H(1)   Bbb    -0.0083    -4.414    -1.575    -1.472 -0.0019 -0.0062  1.0000
              Bcc     0.0184     9.800     3.497     3.269 -0.5073  0.8618  0.0043
 
              Baa    -0.0079    -4.189    -1.495    -1.397  0.5664  0.7805 -0.2647
     6 H(1)   Bbb    -0.0042    -2.263    -0.807    -0.755 -0.2596  0.4738  0.8415
              Bcc     0.0121     6.452     2.302     2.152  0.7822 -0.4080  0.4709
 
              Baa    -0.0101    -5.399    -1.927    -1.801  0.1041  0.9100 -0.4012
     7 H(1)   Bbb    -0.0084    -4.464    -1.593    -1.489  0.2492  0.3667  0.8963
              Bcc     0.0185     9.863     3.519     3.290  0.9628 -0.1933 -0.1887
 
              Baa    -0.0082    -4.391    -1.567    -1.465  0.9405 -0.1466 -0.3064
     8 H(1)   Bbb    -0.0038    -2.006    -0.716    -0.669  0.1298 -0.6785  0.7230
              Bcc     0.0120     6.397     2.282     2.134  0.3139  0.7198  0.6191
 
              Baa    -0.0106    -5.647    -2.015    -1.884  0.9359  0.3052 -0.1759
     9 H(1)   Bbb    -0.0087    -4.615    -1.647    -1.539  0.2284 -0.1456  0.9626
              Bcc     0.0192    10.262     3.662     3.423 -0.2682  0.9411  0.2060
 
              Baa    -0.0104    -5.527    -1.972    -1.844  0.7458 -0.5195 -0.4171
    10 H(1)   Bbb    -0.0085    -4.535    -1.618    -1.513  0.3849 -0.1751  0.9062
              Bcc     0.0189    10.062     3.590     3.356  0.5438  0.8364 -0.0694
 
              Baa    -0.0103     0.747     0.267     0.249  0.7442  0.6189 -0.2513
    11 O(17)  Bbb    -0.0047     0.342     0.122     0.114  0.1923  0.1618  0.9679
              Bcc     0.0151    -1.089    -0.389    -0.363 -0.6397  0.7686 -0.0014
 
              Baa    -0.0211     1.524     0.544     0.509 -0.2178  0.9672 -0.1303
    12 O(17)  Bbb    -0.0182     1.316     0.470     0.439  0.6572  0.2441  0.7131
              Bcc     0.0393    -2.841    -1.014    -0.948  0.7215  0.0696 -0.6889
 
              Baa    -0.0095    -5.042    -1.799    -1.682 -0.1881  0.9578  0.2172
    13 H(1)   Bbb    -0.0029    -1.548    -0.552    -0.516  0.9037  0.0822  0.4202
              Bcc     0.0124     6.590     2.352     2.198 -0.3847 -0.2753  0.8810
 
              Baa    -0.0112    -5.988    -2.137    -1.997 -0.6578  0.6732  0.3378
    14 H(1)   Bbb    -0.0081    -4.343    -1.550    -1.449  0.4884  0.0399  0.8717
              Bcc     0.0194    10.331     3.686     3.446  0.5734  0.7384 -0.3551
 
              Baa    -0.0068    -3.649    -1.302    -1.217 -0.0664  0.4304  0.9002
    15 H(1)   Bbb    -0.0040    -2.144    -0.765    -0.715  0.3357  0.8592 -0.3860
              Bcc     0.0109     5.793     2.067     1.932  0.9396 -0.2765  0.2015
 

 ---------------------------------------------------------------------------------

 No NMR shielding tensors so no spin-rotation constants.
 Leave Link  601 at Thu Apr  7 19:49:30 2022, MaxMem=  1073741824 cpu:               2.4 elap:               0.3
 (Enter /home/saurabh/gaussian/g16/l701.exe)
 ... and contract with generalized density number  0.
 Compute integral second derivatives.
 Leave Link  701 at Thu Apr  7 19:49:30 2022, MaxMem=  1073741824 cpu:               1.8 elap:               0.3
 (Enter /home/saurabh/gaussian/g16/l702.exe)
 L702 exits ... SP integral derivatives will be done elsewhere.
 Leave Link  702 at Thu Apr  7 19:49:30 2022, MaxMem=  1073741824 cpu:               0.1 elap:               0.0
 (Enter /home/saurabh/gaussian/g16/l703.exe)
 Integral derivatives from FoFJK, PRISM(SPDF).
 Compute integral second derivatives, UseDBF=F ICtDFT=           0.
 Calling FoFJK, ICntrl=    100127 FMM=F ISym2X=0 I1Cent= 0 IOpClX= 1 NMat=1 NMatS=1 NMatT=0.
 FoFJK:  IHMeth= 1 ICntrl=  100127 DoSepK=F KAlg= 0 I1Cent=           0 FoldK=F
 IRaf=         0 NMat=       1 IRICut=       1 DoRegI=T DoRafI=F ISym2E= 0 IDoP0=0 IntGTp=1.
 FoFCou: FMM=F IPFlag=           0 FMFlag=      100000 FMFlg1=         800
         NFxFlg=           0 DoJE=F BraDBF=F KetDBF=F FulRan=T
         wScrn=  0.000000 ICntrl=    100127 IOpCl=  1 I1Cent=           0 NGrid=           0
         NMat0=    1 NMatS0=      1 NMatT0=    0 NMatD0=    1 NMtDS0=    0 NMtDT0=    0
 Symmetry not used in FoFCou.
 Leave Link  703 at Thu Apr  7 19:52:08 2022, MaxMem=  1073741824 cpu:            1259.3 elap:             157.4
 (Enter /home/saurabh/gaussian/g16/l716.exe)
 Dipole        = 6.63466196D-01 2.07266544D-01-1.40314595D-01
 Polarizability= 0.00000000D+00 0.00000000D+00 0.00000000D+00
                 0.00000000D+00 0.00000000D+00 0.00000000D+00
 ***** Axes restored to original set *****
 -------------------------------------------------------------------
 Center     Atomic                   Forces (Hartrees/Bohr)
 Number     Number              X              Y              Z
 -------------------------------------------------------------------
      1        6          -0.008378319   -0.003603726   -0.021904126
      2        6           0.017928645    0.017905404    0.053420194
      3        6          -0.023680046    0.010456833   -0.003738857
      4        6          -0.008533909   -0.009841946   -0.021947404
      5        1          -0.000935696   -0.006238865    0.010095446
      6        1          -0.003775996   -0.002741611   -0.008170752
      7        1           0.010792233    0.006215612    0.001474622
      8        1          -0.003447097   -0.001765116   -0.008792589
      9        1          -0.004865598    0.007457163    0.009214356
     10        1           0.011740103    0.002906468    0.001656383
     11        8           0.034223494    0.008094200    0.084879048
     12        8          -0.029273582   -0.027808916   -0.095125565
     13        1          -0.001535066   -0.007943784   -0.006882607
     14        1           0.001625230   -0.011440975    0.004417469
     15        1           0.008115605    0.018349258    0.001404383
 -------------------------------------------------------------------
 Cartesian Forces:  Max     0.095125565 RMS     0.024026841
 FormGI is forming the generalized inverse of G from B-inverse, IUseBI=4.
 Leave Link  716 at Thu Apr  7 19:52:08 2022, MaxMem=  1073741824 cpu:               0.2 elap:               0.0
 (Enter /home/saurabh/gaussian/g16/l103.exe)

 GradGradGradGradGradGradGradGradGradGradGradGradGradGradGradGradGradGrad
 Berny optimization.
 Red2BG is reusing G-inverse.
 Internal  Forces:  Max     0.096252230 RMS     0.014509126
 Search for a local minimum.
 Step number   1 out of a maximum of  100
 All quantities printed in internal units (Hartrees-Bohrs-Radians)
 RMS Force = .14509D-01 SwitMx=.10000D-02 MixMth= 1
 Mixed Optimization -- RFO/linear search
 Second derivative matrix not updated -- analytic derivatives used.
 ITU=  0
     Eigenvalues ---    0.00148   0.00270   0.00319   0.00449   0.00938
     Eigenvalues ---    0.03247   0.05459   0.05565   0.05615   0.05701
     Eigenvalues ---    0.05852   0.06679   0.09633   0.11060   0.11597
     Eigenvalues ---    0.11838   0.12155   0.12995   0.13396   0.13993
     Eigenvalues ---    0.14779   0.16569   0.21088   0.23386   0.25168
     Eigenvalues ---    0.25935   0.27439   0.28463   0.29184   0.29373
     Eigenvalues ---    0.29550   0.29703   0.29881   0.30645   0.30883
     Eigenvalues ---    0.34317   0.40138   0.41202   0.63784
 RFO step:  Lambda=-3.19800339D-02 EMin= 1.48017508D-03
 Linear search not attempted -- first point.
 Iteration  1 RMS(Cart)=  0.04285391 RMS(Int)=  0.00290036
 Iteration  2 RMS(Cart)=  0.00377038 RMS(Int)=  0.00137379
 Iteration  3 RMS(Cart)=  0.00000568 RMS(Int)=  0.00137378
 Iteration  4 RMS(Cart)=  0.00000001 RMS(Int)=  0.00137378
 ITry= 1 IFail=0 DXMaxC= 1.60D-01 DCOld= 1.00D+10 DXMaxT= 3.00D-01 DXLimC= 3.00D+00 Rises=F
 Variable       Old X    -DE/DX   Delta X   Delta X   Delta X     New X
                                 (Linear)    (Quad)   (Total)
    R1        2.89269  -0.01048   0.00000  -0.05556  -0.05556   2.83713
    R2        2.09834  -0.01112   0.00000  -0.03357  -0.03357   2.06477
    R3        2.10017  -0.00940   0.00000  -0.02078  -0.02078   2.07939
    R4        2.09841  -0.01198   0.00000  -0.03491  -0.03491   2.06350
    R5        2.90734  -0.01078   0.00000  -0.06462  -0.06462   2.84272
    R6        2.89600  -0.01061   0.00000  -0.05711  -0.05711   2.83889
    R7        2.65918   0.01207   0.00000   0.02718   0.02718   2.68636
    R8        2.10017  -0.00867   0.00000  -0.01985  -0.01985   2.08032
    R9        2.10670  -0.01195   0.00000  -0.03847  -0.03847   2.06822
   R10        2.10001  -0.00960   0.00000  -0.02077  -0.02077   2.07923
   R11        2.09760  -0.01192   0.00000  -0.03594  -0.03594   2.06167
   R12        2.09837  -0.01178   0.00000  -0.03496  -0.03496   2.06341
   R13        2.49647   0.09625   0.00000   0.16594   0.16594   2.66241
   R14        1.87392  -0.02000   0.00000  -0.05043  -0.05043   1.82348
    A1        1.91927   0.00562   0.00000   0.03217   0.03175   1.95102
    A2        1.93311  -0.00209   0.00000  -0.00466  -0.00461   1.92850
    A3        1.91976   0.00420   0.00000   0.02563   0.02522   1.94498
    A4        1.90245  -0.00273   0.00000  -0.02426  -0.02421   1.87824
    A5        1.88586  -0.00242   0.00000  -0.00216  -0.00297   1.88289
    A6        1.90261  -0.00271   0.00000  -0.02758  -0.02753   1.87509
    A7        1.93316   0.00152   0.00000   0.03855   0.03221   1.96537
    A8        1.93115   0.00586   0.00000   0.06941   0.06453   1.99568
    A9        1.94729   0.00281   0.00000   0.05368   0.04811   1.99539
   A10        1.94099   0.01595   0.00000   0.05953   0.05954   2.00053
   A11        1.91458  -0.00355   0.00000  -0.00071   0.00003   1.91461
   A12        1.93390  -0.00176   0.00000   0.00669   0.00647   1.94037
   A13        1.89009  -0.00863   0.00000  -0.06962  -0.06957   1.82052
   A14        1.92821  -0.00644   0.00000  -0.02097  -0.02186   1.90635
   A15        1.85349   0.00357   0.00000   0.02114   0.02044   1.87393
   A16        1.93222  -0.00317   0.00000  -0.01248  -0.01237   1.91986
   A17        1.92514   0.00569   0.00000   0.03015   0.02969   1.95483
   A18        1.91860   0.00376   0.00000   0.02660   0.02613   1.94472
   A19        1.90251  -0.00291   0.00000  -0.02797  -0.02785   1.87466
   A20        1.90205  -0.00187   0.00000  -0.02255  -0.02246   1.87959
   A21        1.88243  -0.00160   0.00000   0.00570   0.00477   1.88720
   A22        1.86005   0.01678   0.00000   0.01033   0.01033   1.87038
   A23        1.83028   0.00216   0.00000  -0.03982  -0.03982   1.79046
    D1        1.02009  -0.00588   0.00000  -0.08992  -0.09077   0.92932
    D2       -3.09425   0.00301   0.00000   0.05631   0.05649  -3.03776
    D3       -1.08379  -0.00480   0.00000  -0.07766  -0.07818  -1.16197
    D4        1.08506   0.00409   0.00000   0.06856   0.06907   1.15413
    D5        3.09499  -0.00282   0.00000  -0.05697  -0.05714   3.03785
    D6       -1.01935   0.00608   0.00000   0.08925   0.09011  -0.92924
    D7       -3.09892   0.00379   0.00000   0.05848   0.05826  -3.04066
    D8        1.09383   0.00674   0.00000   0.10794   0.10795   1.20178
    D9       -0.94707   0.00557   0.00000   0.07852   0.07884  -0.86822
   D10        1.02466  -0.00692   0.00000  -0.09807  -0.09837   0.92629
   D11       -1.06578  -0.00398   0.00000  -0.04861  -0.04868  -1.11446
   D12       -3.10668  -0.00514   0.00000  -0.07803  -0.07779   3.09872
   D13       -1.08665  -0.00392   0.00000  -0.06429  -0.06535  -1.15199
   D14        3.08930  -0.00195   0.00000  -0.04094  -0.04158   3.04772
   D15        1.01572  -0.00583   0.00000  -0.08311  -0.08455   0.93116
   D16        1.07410   0.00434   0.00000   0.07464   0.07567   1.14977
   D17       -1.03314   0.00630   0.00000   0.09799   0.09944  -0.93369
   D18       -3.10672   0.00242   0.00000   0.05582   0.05647  -3.05026
   D19        1.34302   0.00106   0.00000   0.00908   0.00952   1.35255
   D20       -2.83523   0.00089   0.00000  -0.00027  -0.00152  -2.83675
   D21       -0.81208  -0.00333   0.00000  -0.02650  -0.02569  -0.83777
   D22       -1.91335   0.00316   0.00000   0.03068   0.03068  -1.88267
         Item               Value     Threshold  Converged?
 Maximum Force            0.096252     0.000450     NO 
 RMS     Force            0.014509     0.000300     NO 
 Maximum Displacement     0.159568     0.001800     NO 
 RMS     Displacement     0.042863     0.001200     NO 
 Predicted change in Energy=-1.886986D-02
 Lowest energy point so far.  Saving SCF results.
 GradGradGradGradGradGradGradGradGradGradGradGradGradGradGradGradGradGrad

 Leave Link  103 at Thu Apr  7 19:52:08 2022, MaxMem=  1073741824 cpu:               0.2 elap:               0.1
 (Enter /home/saurabh/gaussian/g16/l202.exe)
                          Input orientation:                          
 ---------------------------------------------------------------------
 Center     Atomic      Atomic             Coordinates (Angstroms)
 Number     Number       Type             X           Y           Z
 ---------------------------------------------------------------------
      1          6           0       -3.200819    2.043405    0.125256
      2          6           0       -2.310357    0.945809   -0.381093
      3          6           0       -0.920119    1.427334   -0.694618
      4          6           0       -2.359435   -0.316280    0.432264
      5          1           0       -3.212733    2.900805   -0.551916
      6          1           0       -2.853625    2.399196    1.106927
      7          1           0       -4.229593    1.698345    0.247445
      8          1           0       -1.947540   -0.133357    1.436010
      9          1           0       -1.772986   -1.117255   -0.020252
     10          1           0       -3.384327   -0.672701    0.554032
     11          8           0       -0.078225    0.453864   -1.298279
     12          8           0       -0.452007    0.363934   -2.653696
[...]
 ! D21   D(14,3,11,12)         -54.658          -DE/DX =    0.0                 !
 ! D22   D(3,11,12,15)         -98.3782         -DE/DX =    0.0                 !
 --------------------------------------------------------------------------------
 GradGradGradGradGradGradGradGradGradGradGradGradGradGradGradGradGradGrad

 Leave Link  103 at Thu Apr  7 20:10:28 2022, MaxMem=  1073741824 cpu:               0.2 elap:               0.0
 (Enter /home/saurabh/gaussian/g16/l9999.exe)

 ----------------------------------------------------------------------

 Electric dipole moment (input orientation):
 (Debye = 10**-18 statcoulomb cm , SI units = C m)
                  (au)            (Debye)         (10**-30 SI)
   Tot        0.952364D+00      0.242067D+01      0.807448D+01
   x         -0.725737D+00     -0.184464D+01     -0.615305D+01
   y         -0.451072D-01     -0.114651D+00     -0.382435D+00
   z          0.615036D+00      0.156326D+01      0.521449D+01

 Dipole polarizability, Alpha (input orientation).
 (esu units = cm**3 , SI units = C**2 m**2 J**-1)
 Alpha(0;0):
               (au)            (10**-24 esu)      (10**-40 SI)
   iso        0.596679D+02      0.884187D+01      0.983791D+01
   aniso      0.617864D+01      0.915580D+00      0.101872D+01
   xx         0.598453D+02      0.886816D+01      0.986716D+01
   yx        -0.104102D+01     -0.154263D+00     -0.171641D+00
   yy         0.582022D+02      0.862467D+01      0.959624D+01
   zx        -0.308845D+01     -0.457661D+00     -0.509216D+00
   zy        -0.427863D+00     -0.634027D-01     -0.705450D-01
   zz         0.609563D+02      0.903279D+01      0.100503D+02

 ----------------------------------------------------------------------

 Dipole orientation:
     6         -4.04933468          3.88994255          4.37730148
     6         -2.71754848          1.96844749          2.81088414
     6         -1.80251811          2.60626356          0.22582969
     6         -1.84808591         -0.43066192          4.00869762
     1         -4.93336148          5.34676817          3.21876383
     1         -2.75895547          4.85381400          5.69342161
     1         -5.51232545          3.02502626          5.55540276
     1         -0.23556172         -0.10614944          5.28144553
     1         -1.24787867         -1.81118230          2.60211638
     1         -3.32756247         -1.28745702          5.16970013
     8         -2.40179928          0.74487267         -1.65816505
     8         -5.10263133          0.86485583         -2.11541521
     1          0.27251052          2.62663528          0.12171545
     1         -2.49873036          4.44620796         -0.39695550
     1         -5.70413661         -0.51324178         -1.07703528

 Electric dipole moment (dipole orientation):
 (Debye = 10**-18 statcoulomb cm , SI units = C m)
                  (au)            (Debye)         (10**-30 SI)
   Tot        0.952364D+00      0.242067D+01      0.807448D+01
   x          0.000000D+00      0.000000D+00      0.000000D+00
   y          0.000000D+00      0.000000D+00      0.000000D+00
   z          0.952364D+00      0.242067D+01      0.807448D+01

 Dipole polarizability, Alpha (dipole orientation).
 (esu units = cm**3 , SI units = C**2 m**2 J**-1)
 Alpha(0;0):
               (au)            (10**-24 esu)      (10**-40 SI)
   iso        0.596679D+02      0.884187D+01      0.983791D+01
   aniso      0.617864D+01      0.915580D+00      0.101872D+01
   xx         0.574873D+02      0.851874D+01      0.947838D+01
   yx        -0.965419D+00     -0.143060D+00     -0.159176D+00
   yy         0.582207D+02      0.862741D+01      0.959929D+01
   zx         0.108374D+01      0.160594D+00      0.178685D+00
   zy         0.783068D+00      0.116039D+00      0.129110D+00
   zz         0.632958D+02      0.937947D+01      0.104361D+02

 ----------------------------------------------------------------------
 Unable to Open any file for archive entry.
 1\1\GINC-MEDIAWIKI\Freq\UB3LYP\CC-pVTZ\C4H9O2(2)\SAURABH\07-Apr-2022\0
 \\#P Geom=AllCheck Guess=TCheck SCRF=Check GenChk UB3LYP/CC-pVTZ Freq\
 \Mol_03\\0,2\C,-3.197049723,1.992944452,-0.0395011836\C,-2.0870009561,
 1.0013237983,-0.08592508\C,-0.7386083046,1.3925534348,-0.5843723573\C,
 -2.2444218868,-0.3066114,0.613900847\H,-3.0495194323,2.8021088184,-0.7
 553950219\H,-3.2970568477,2.4543464931,0.9547793601\H,-4.1631055705,1.
 5233247625,-0.2485273734\H,-2.2091964845,-0.1857337997,1.7072404577\H,
 -1.4556443937,-1.0078669164,0.3406472741\H,-3.2093226364,-0.7713195223
 ,0.3925869003\O,-0.1625128239,0.4630647669,-1.5165274714\O,-0.90445373
 98,0.5692739482,-2.758899627\H,0.0137607978,1.3818478638,0.2173188915\
 H,-0.7472481159,2.3885717076,-1.0318380038\H,-1.513183969,-0.178035020
 1,-2.681140323\\Version=ES64L-G16RevC.01\State=2-A\HF=-308.2616583\S2=
 0.754242\S2-1=0.\S2A=0.750014\RMSD=2.653e-09\RMSF=2.602e-06\ZeroPoint=
 0.1243972\Thermal=0.1330851\ETot=-308.1285732\HTot=-308.127629\GTot=-3
 08.1717838\Dipole=-0.7257368,-0.0451072,0.6150356\DipoleDeriv=0.045740
 3,0.0357705,0.016782,0.0190496,0.0273289,0.0823907,0.0543424,0.0250161
 ,0.1291252,0.0149958,-0.0692441,-0.0002581,-0.1646184,0.1155634,-0.100
 4026,-0.0403554,-0.1447141,-0.1211105,0.5215406,-0.0235856,-0.2383817,
 -0.0164753,0.3494225,0.1688633,-0.1929347,0.0929532,0.5162638,0.006963
 7,0.0237295,0.0459297,0.0485324,-0.0055991,0.0188775,0.027762,0.100431
 ,0.1264283,0.0501245,-0.0252924,0.0326737,0.0073395,-0.0616509,0.08591
 25,0.0028331,0.1155232,-0.0184138,0.0266944,0.0355202,-0.002267,0.0595
 55,-0.0060694,-0.0717428,0.0489851,-0.1121411,-0.1339431,-0.1307036,-0
 .0353342,-0.0168377,-0.0959425,0.0041018,-0.0297906,-0.0488035,-0.0094
 144,0.0590686,0.0663091,-0.0079359,-0.0091463,-0.0149124,0.0141393,-0.
 0357051,0.0036471,0.0360704,-0.181455,-0.0162391,0.1012551,0.0137823,0
 .0739133,-0.032049,-0.0150843,0.0287289,-0.0455623,0.0657722,-0.112046
 2,-0.0996374,-0.0194758,-0.0712081,0.0011905,0.0219373,-0.0526858,-0.0
 221686,0.045423,-0.3846922,0.0505337,0.2926576,0.104123,-0.3352862,-0.
 043551,0.1764517,-0.0135119,-0.2203278,-0.2471494,0.0655801,-0.1174189
 ,0.1032408,-0.2013473,-0.1725217,0.0639986,-0.1713247,-0.4549104,-0.10
 80599,0.0022781,-0.0223205,0.0472307,0.0599647,-0.0334031,-0.0819964,-
 0.029822,-0.0832929,0.0453789,0.0242461,0.0432972,-0.0123227,-0.140135
 5,0.0158963,0.0218297,0.0972294,0.0019754,0.2211431,-0.0778837,-0.0190
 165,-0.0875049,0.2104263,0.1083235,-0.011803,0.0814357,0.2693968\Polar
 =59.8453002,-1.0410202,58.2021679,-3.0884463,-0.4278626,60.9562997\Qua
 drupole=-1.1098587,1.9134662,-0.8036075,1.2566267,2.6843856,1.3068599\
 PG=C01 [X(C4H9O2)]\NImag=0\\0.50004046,0.03820462,0.51589072,-0.006565
 22,-0.04347299,0.49856980,-0.15305099,0.06871803,0.01099517,0.49236215
 ,0.06761303,-0.13861698,0.01396055,-0.05200709,0.46463062,0.01356918,0
 .01026933,-0.05801565,-0.10414187,-0.12426453,0.22294752,-0.01912889,-
 0.00092362,0.00419634,-0.17371506,-0.02741074,0.04000163,0.48258766,0.
 01880400,0.00829455,-0.00365417,-0.04134053,-0.09970098,0.03239391,0.0
 0287042,0.53081855,0.00634582,0.00256699,0.00864004,0.03337615,0.02184
 923,-0.07177745,0.06507745,-0.10433242,0.45708661,0.00403357,0.0205598
 7,-0.01382134,-0.08660388,-0.00464114,0.01326487,-0.00063225,-0.027548
 01,0.01521003,0.56117797,-0.00064325,-0.02044154,0.01328684,-0.0053753
 0,-0.17734000,0.06069277,-0.00758749,-0.00849268,0.00966890,-0.0207778
 1,0.49333158,-0.00217693,-0.00197327,0.00472474,0.01546697,0.06122300,
 -0.08637237,0.00163958,0.00719471,-0.00164322,-0.01075310,0.02436559,0
 .46537113,-0.05524599,-0.02924689,0.02512695,0.00445593,0.01806659,-0.
 01636757,0.00102458,0.00160344,-0.00118889,-0.00353334,0.00219284,0.00
 104759,0.05659876,-0.02812457,-0.18596136,0.12728044,-0.00292873,-0.01
 933365,0.01326762,-0.00260699,0.00013529,0.00016034,0.00430071,-0.0012
 4381,-0.00065675,0.02797318,0.20480753,0.02384287,0.12906367,-0.159310
 60,-0.00049158,-0.00230244,0.00125722,0.00100894,-0.00024687,-0.000285
 07,-0.00001636,-0.00068178,0.00084487,-0.02898209,-0.14038646,0.171560
 60,-0.04012519,0.00814729,0.01956941,-0.00765079,0.01278737,0.02228787
 ,0.00025461,0.00078073,-0.00235541,0.00041586,-0.00122709,0.00005556,-
 0.00076310,0.00200064,0.00503034,0.04826003,0.00480882,-0.08234572,-0.
 08952024,0.00864951,-0.01078738,-0.01679358,-0.00196714,-0.00118365,0.
 00069288,-0.00020165,0.00145104,0.00056281,-0.00163941,0.01053953,0.02
 157591,-0.01115524,0.08980785,0.01051554,-0.08130914,-0.23666551,0.007
 86182,-0.00369428,0.00336306,-0.00086696,-0.00080166,-0.00022720,0.000
 33233,0.00000519,0.00010828,0.00076644,-0.00846504,-0.02011737,-0.0184
 6294,0.09882351,0.26176707,-0.23525379,-0.09976431,-0.04500439,-0.0245
 8069,-0.00593097,0.00120080,-0.00121243,0.00260800,-0.00229258,0.00090
 350,-0.00128518,0.00056143,-0.00292928,-0.00143754,-0.00019230,0.00133
 572,-0.00061238,-0.00078501,0.26225267,-0.09636286,-0.09577869,-0.0168
 6920,0.02040855,0.01003898,0.00275925,0.00106025,-0.00259498,-0.000100
 32,0.00046703,0.00149540,0.00022360,-0.01906990,-0.00990773,-0.0063021
 6,-0.01220781,-0.00655986,-0.00329043,0.10520271,0.10280605,-0.0453837
 3,-0.01752342,-0.05245030,0.00425903,0.00054091,0.00090986,0.00140115,
 -0.00025704,-0.00046243,-0.00025782,-0.00024522,-0.00026104,0.01960140
 ,0.00849653,0.00506968,-0.02637423,-0.01509998,-0.00782812,0.04669260,
 0.02450717,0.05484406,0.00007866,0.00023625,0.00034010,0.00011282,-0.0
 0063056,0.00522706,0.00019354,-0.00012672,-0.00009043,-0.04216865,0.00
 114953,-0.00769196,-0.00001027,-0.00000926,0.00010126,0.00009076,0.000
 06582,-0.00007016,0.00007706,-0.00011098,-0.00023900,0.04297267,-0.000
 36913,0.00128658,-0.00097852,-0.00124941,-0.00098181,0.03105007,0.0022
 0632,-0.00079384,-0.00097124,0.00097754,-0.04553897,-0.02554096,-0.000
 19540,-0.00002304,-0.00032556,0.00042434,-0.00065793,-0.00062354,0.000
 06416,-0.00026926,0.00008505,0.00195785,0.05136428,0.00056948,-0.00044
 367,0.00065540,0.00305951,0.01069011,-0.01569276,-0.00235055,0.0002374
 5,-0.00014937,-0.00888310,-0.03803442,-0.27213933,0.00002762,0.0003377
 4,0.00018364,-0.00077759,0.00081810,0.00010232,-0.00026307,-0.00010349
 ,-0.00018610,0.00860691,0.03116098,0.30510527,0.00045102,-0.00038307,0
 .00056014,0.00379710,-0.00134678,-0.00297135,-0.00049154,-0.00028742,0
 .00028374,-0.18730079,0.11960842,0.04884169,0.00033647,0.00001487,0.00
 024587,-0.00012533,0.00013962,0.00008525,0.00047616,-0.00009466,0.0001
 6563,0.00138971,-0.00180850,-0.00031447,0.20027681,-0.00264917,-0.0036
 4013,0.00300380,0.02221990,-0.01856293,-0.00613719,0.00189964,-0.00010
 385,-0.00132121,0.11798821,-0.15349402,-0.04274724,0.00122252,-0.00099
 656,-0.00000062,-0.00009613,0.00011209,-0.00019222,0.00002186,0.000256
 37,0.00005910,0.00290199,-0.00287347,-0.00203251,-0.13288359,0.1678783
 3,0.00102266,0.00285119,-0.00093365,-0.01439535,0.01059894,0.00340781,
 0.00024159,-0.00004346,0.00055525,0.04984600,-0.04419488,-0.06178016,-
 0.00042284,0.00086078,0.00014837,-0.00017748,0.00036340,0.00010757,0.0
 0035833,-0.00017936,-0.00004202,0.02398141,-0.02015929,-0.00863163,-0.
 05449676,0.04455321,0.06682439,0.00068438,0.00086589,0.00040553,-0.003
 06538,-0.00359638,0.00361974,0.00118179,-0.00118267,-0.00105463,-0.244
 07841,-0.08899428,-0.04859317,0.00023903,0.00010482,0.00015094,-0.0000
 2203,0.00004309,-0.00023854,0.00051811,-0.00050441,-0.00007803,-0.0020
 3622,-0.00059876,-0.00132320,-0.01883933,-0.00960359,-0.00548874,0.265
 51900,-0.00118129,0.00133759,-0.00068055,-0.02589070,-0.01196688,-0.00
 142680,0.00193086,-0.00489605,0.00037968,-0.09140745,-0.09059222,-0.02
 420855,0.00019386,0.00048212,0.00013190,0.00015791,-0.00014090,-0.0000
 4504,0.00106538,-0.00016367,0.00021470,-0.00469369,-0.00186825,-0.0025
 7363,0.01785267,0.00985113,0.00591598,0.10348127,0.09723085,0.00045610
 ,-0.00070007,0.00014280,0.01640313,0.00882133,0.00152097,-0.00015519,0
 .00327904,-0.00110032,-0.04779417,-0.02362862,-0.05142116,0.00014244,-
 0.00017408,-0.00007071,-0.00018357,-0.00021058,-0.00009261,-0.00036084
 ,-0.00016953,0.00017787,-0.02954463,-0.01355063,-0.00879653,0.00800332
 ,0.00472830,0.00108230,0.05236698,0.02165199,0.05909254,-0.00356296,-0
 .00348605,0.00324975,-0.02719846,0.02464416,0.02113963,-0.08830802,0.0
 4431222,0.01441090,0.00075028,0.00131564,-0.00060807,0.00020315,0.0001
 9328,-0.00009539,-0.00096921,0.00135165,0.00080723,-0.00090209,0.00084
 324,0.00027647,0.00003299,-0.00009595,0.00057483,-0.00009647,-0.000487
 74,0.00000072,0.00006022,-0.00021668,-0.00004356,0.22379488,-0.0007139
 0,0.00045609,-0.00120574,0.01399496,0.00702948,-0.00604394,0.05304370,
 -0.12687976,-0.01851487,0.00130728,-0.00072750,0.00157555,-0.00042146,
 0.00035620,-0.00024712,0.00026419,-0.00031593,-0.00030389,-0.00001101,
 0.00011738,-0.00014533,-0.00050024,0.00054098,-0.00019662,-0.00113178,
 0.00141223,-0.00029264,-0.00014456,0.00075501,-0.00016841,-0.08602580,
 0.19391017,-0.00093054,0.00117815,-0.00325256,0.02242665,-0.00856513,-
 0.01176801,0.03206459,-0.04733031,-0.08332504,-0.00013894,-0.00107148,
 0.00082963,-0.00011030,-0.00047934,0.00043737,0.00082817,-0.00090506,-
 0.00028962,-0.00012789,-0.00033650,0.00007674,0.00004353,-0.00009655,-
 0.00038164,0.00024310,0.00016757,-0.00004681,-0.00018603,0.00014850,0.
 00007993,0.05929624,0.07111743,0.29678361,0.00091259,0.00044497,-0.000
 23308,0.00241767,0.00043651,0.00445235,0.00240692,-0.00471260,0.000197
 32,0.00012254,0.00016034,-0.00013183,-0.00007516,-0.00023872,-0.000188
 20,-0.00000397,-0.00009419,-0.00000188,0.00037448,-0.00014045,-0.00024
 588,-0.00011345,-0.00003956,-0.00000650,-0.00016546,-0.00014656,-0.000
 06471,0.00014215,-0.00002812,-0.00017838,-0.09262507,0.01333616,-0.107
 11135,0.27357026,-0.00025388,-0.00002856,-0.00031870,0.00088063,0.0006
 1280,0.00141705,-0.02070789,0.00682925,-0.02107979,0.00015946,-0.00061
 153,-0.00009255,-0.00004165,0.00016369,0.00010940,0.00011316,-0.000070
 85,-0.00007524,0.00008221,0.00001574,0.00006303,-0.00008391,0.00020491
 ,-0.00013078,-0.00003689,0.00025732,-0.00003276,0.00002362,0.00012078,
 -0.00000217,0.00679978,-0.05334080,0.00794270,0.24069867,0.36098807,-0
 .00042893,0.00030523,-0.00035433,-0.00028936,0.00092579,0.00108933,-0.
 02284612,0.00076306,-0.04181137,0.00035700,-0.00038485,0.00007814,-0.0
 0013914,0.00006648,0.00001745,0.00014236,-0.00015107,-0.00004304,0.000
 30350,0.00014090,0.00005545,-0.00021613,0.00025899,-0.00003918,-0.0003
 4492,0.00001637,-0.00020421,0.00030152,0.00003790,0.00000210,-0.057803
 29,0.01788293,-0.16003693,0.06155274,-0.05651599,0.23974872,-0.0010829
 6,-0.00172789,0.00044073,-0.02589190,0.00031122,-0.01462939,-0.1548198
 5,0.00337676,-0.12687640,0.00173475,0.00193596,0.00139362,0.00002545,-
 0.00009632,-0.00009155,-0.00063529,0.00047461,0.00017045,-0.00116700,0
 .00039166,0.00021581,-0.00040426,-0.00092030,0.00082150,0.00006015,-0.
 00070892,-0.00008630,0.00012075,-0.00006989,-0.00009988,0.00633515,-0.
 00085876,0.00437020,0.00285927,0.00207511,0.00490620,0.17250050,-0.000
 54646,-0.00070856,-0.00027976,-0.00575735,0.00355727,-0.00391795,0.003
 80223,-0.04959403,0.01195030,0.00021473,0.00044225,0.00000381,-0.00008
 860,0.00023425,-0.00003304,0.00009633,-0.00008788,-0.00009721,-0.00012
 614,0.00032605,-0.00018918,-0.00012102,0.00009638,-0.00008504,-0.00008
 316,-0.00014335,-0.00013175,0.00028612,0.00009205,-0.00007078,-0.01109
 243,-0.00205995,-0.02260894,-0.00048690,-0.00325557,-0.00535588,-0.004
 60413,0.04889087,-0.00045686,-0.00075360,-0.00138879,0.00606970,0.0008
 0371,0.01107047,-0.11067579,0.00745154,-0.16510464,-0.00027843,-0.0003
 2611,0.00049138,0.00016243,-0.00003465,0.00002508,0.00032466,-0.000220
 77,-0.00010319,-0.00000372,0.00000560,0.00004781,-0.00022933,-0.000166
 73,-0.00021254,-0.00001985,-0.00000064,-0.00006967,-0.00018843,-0.0001
 8563,0.00002434,-0.01578694,-0.00297373,-0.02755050,0.00071057,-0.0060
 9789,-0.00377473,0.12860957,0.00121327,0.19608946,0.00123905,-0.001722
 06,0.00076610,-0.00130646,-0.02748420,0.01362304,-0.05088977,0.0007458
 1,0.00003560,-0.00490313,-0.00023816,0.00089014,-0.00038351,0.00080479
 ,-0.00038906,-0.00005793,0.00015500,-0.00007143,0.00023436,0.00012555,
 -0.00016636,-0.00015970,-0.00036096,0.00027353,0.00013225,0.00016908,-
 0.00021658,-0.00025443,-0.00117463,0.00080914,-0.00091739,0.01815869,-
 0.00324386,0.00039909,-0.00234021,0.00093604,0.00037326,0.01847649,-0.
 00861435,0.05690027,0.00132262,0.00057603,-0.00064563,-0.00033919,-0.0
 0925213,0.00633063,-0.00504715,-0.24924330,0.10091654,-0.00118774,0.00
 131151,0.00028800,-0.00056370,0.00090808,-0.00029042,-0.00002919,0.000
 16623,-0.00003383,0.00017757,0.00022496,-0.00036239,-0.00010404,-0.000
 21686,0.00028685,0.00014651,0.00017273,-0.00025895,-0.00003307,-0.0002
 0973,0.00020975,0.01066704,-0.03030674,-0.00482451,-0.00052164,0.00274
 830,0.00187176,0.00038544,0.00182457,0.00123967,-0.00505055,0.28089296
 ,-0.00063930,0.00004416,-0.00021747,-0.00198543,0.00910065,-0.00289599
 ,-0.00266277,0.10664415,-0.09923696,0.00259523,0.00039486,0.00136254,0
 .00035930,-0.00033721,0.00030317,0.00019521,-0.00002713,-0.00014050,-0
 .00005595,-0.00024201,0.00012055,-0.00009399,-0.00024207,0.00008405,-0
 .00002261,-0.00034298,-0.00002874,0.00025678,0.00064045,-0.00045202,0.
 00555838,-0.03117466,0.00228547,0.00116106,-0.00022745,0.00461152,-0.0
 0003118,0.02033252,-0.00815577,-0.00458211,-0.10488157,0.10268309,0.00
 001104,0.00007696,-0.00002620,-0.00008207,-0.00081104,-0.00027600,0.00
 154872,0.00009658,-0.00107866,0.00008200,-0.00023417,0.00005847,0.0000
 5727,0.00004982,0.00006632,-0.00000413,-0.00001809,-0.00004214,-0.0001
 2678,-0.00000791,0.00013297,-0.00005566,0.00000775,-0.00001492,0.00009
 925,0.00015249,-0.00010196,-0.00016962,-0.00001951,0.00017912,-0.01659
 702,-0.01029749,-0.00742356,-0.19022183,-0.22736820,0.01356854,-0.0000
 0802,0.00003029,0.00037677,-0.00040597,0.00017709,-0.00005261,0.205872
 81,0.00009141,-0.00032004,0.00009389,0.00001670,0.00067360,0.00040335,
 -0.00056241,-0.00259454,-0.00186500,-0.00021104,0.00045050,-0.00021773
 ,0.00001458,-0.00016054,-0.00006445,-0.00005651,0.00007336,0.00010283,
 -0.00005435,-0.00000674,-0.00014393,0.00006899,-0.00026968,0.00006890,
 0.00029377,-0.00012589,0.00014958,-0.00014710,-0.00003183,-0.00001554,
 0.01127763,0.00905314,0.00566349,-0.24866791,-0.31463354,0.04013838,0.
 00003543,0.00038567,0.00004596,-0.00026464,0.00040339,0.00031830,0.238
 16544,0.30710314,0.00025986,-0.00010255,-0.00014391,0.00138549,0.00031
 218,0.00095598,-0.00607390,-0.00129793,-0.00115883,0.00033778,0.000153
 19,-0.00019343,-0.00002335,0.00006360,-0.00006372,-0.00010236,0.000091
 80,0.00005886,-0.00003091,-0.00004354,-0.00007201,-0.00012463,0.000099
 99,0.00009841,-0.00025877,0.00024626,-0.00038882,0.00004927,-0.0000009
 0,-0.00018949,-0.03097689,-0.02930896,-0.01384165,0.04008777,0.0750411
 4,-0.03933893,0.00088660,-0.00073036,-0.00138874,-0.00004983,0.0001541
 0,-0.00032295,-0.00536614,-0.04467803,0.05598923\\0.00000078,-0.000000
 46,0.00000016,-0.00000998,-0.00000380,-0.00000013,0.00000625,0.0000039
 0,0.00000087,0.00000291,-0.00000068,0.00000160,0.00000037,0.00000003,-
 0.00000081,0.00000065,0.00000047,0.00000006,0.00000108,0.00000037,0.00
 000103,0.00000141,-0.00000028,0.00000015,-0.00000105,-0.00000055,-0.00
 000113,-0.00000035,0.00000036,0.00000032,0.00000351,0.00000084,0.00000
 586,-0.00000351,0.00000247,-0.00000617,-0.00000045,-0.00000088,-0.0000
 0148,0.00000052,-0.00000032,0.00000002,-0.00000215,-0.00000147,-0.0000
 0035\\\@
 The archive entry for this job was punched.


 FROM AN ANONYMOUS WRITER, ON PERSPECTIVE:

 MAN, DESPITE HIS ARTISTIC PRETENSIONS, HIS SOPHISTICATION AND MANY 
 ACCOMPLISHMENTS, OWES THE FACT OF HIS EXISTENCE TO A SIX-INCH LAYER OF 
 TOPSOIL AND THE FACT THAT IT RAINS.
 Job cpu time:       0 days  1 hours  1 minutes 42.8 seconds.
 Elapsed time:       0 days  0 hours  7 minutes 43.3 seconds.
 File lengths (MBytes):  RWF=    221 Int=      0 D2E=      0 Chk=     11 Scr=      1
 Normal termination of Gaussian 16 at Thu Apr  7 20:10:28 2022.
