 Entering Gaussian System, Link 0=g16
 Initial command:
 /apps/chpc/chem/gaussian16/B01/g16/l1.exe "/mnt/lustre/users/lmoskaleva/Kgalaletso/new/4118334.sched01/Gau-91327.inp" -scrdir="/mnt/lustre/users/lmoskaleva/Kgalaletso/new/4118334.sched01/"
 Entering Link 1 = /apps/chpc/chem/gaussian16/B01/g16/l1.exe PID=     91330.
  
 Copyright (c) 1988-2017, Gaussian, Inc.  All Rights Reserved.
  
 This is part of the Gaussian(R) 16 program.  It is based on
 the Gaussian(R) 09 system (copyright 2009, Gaussian, Inc.),
 the Gaussian(R) 03 system (copyright 2003, Gaussian, Inc.),
 the Gaussian(R) 98 system (copyright 1998, Gaussian, Inc.),
 the Gaussian(R) 94 system (copyright 1995, Gaussian, Inc.),
 the Gaussian 92(TM) system (copyright 1992, Gaussian, Inc.),
 the Gaussian 90(TM) system (copyright 1990, Gaussian, Inc.),
 the Gaussian 88(TM) system (copyright 1988, Gaussian, Inc.),
 the Gaussian 86(TM) system (copyright 1986, Carnegie Mellon
 University), and the Gaussian 82(TM) system (copyright 1983,
 Carnegie Mellon University). Gaussian is a federally registered
 trademark of Gaussian, Inc.
  
 This software contains proprietary and confidential information,
 including trade secrets, belonging to Gaussian, Inc.
  
 This software is provided under written license and may be
 used, copied, transmitted, or stored only in accord with that
 written license.
  
 The following legend is applicable only to US Government
 contracts under FAR:
  
                    RESTRICTED RIGHTS LEGEND
  
 Use, reproduction and disclosure by the US Government is
 subject to restrictions as set forth in subparagraphs (a)
 and (c) of the Commercial Computer Software - Restricted
 Rights clause in FAR 52.227-19.
  
 Gaussian, Inc.
 340 Quinnipiac St., Bldg. 40, Wallingford CT 06492
  
  
 ---------------------------------------------------------------
 Warning -- This program may not be used in any manner that
 competes with the business of Gaussian, Inc. or will provide
 assistance to any competitor of Gaussian, Inc.  The licensee
 of this program is prohibited from giving any competitor of
 Gaussian, Inc. access to this program.  By using this program,
 the user acknowledges that Gaussian, Inc. is engaged in the
 business of creating and licensing software in the field of
 computational chemistry and represents and warrants to the
 licensee that it is not a competitor of Gaussian, Inc. and that
 it will not use this program in any manner prohibited above.
 ---------------------------------------------------------------
  

 Cite this work as:
 Gaussian 16, Revision B.01,
 M. J. Frisch, G. W. Trucks, H. B. Schlegel, G. E. Scuseria, 
 M. A. Robb, J. R. Cheeseman, G. Scalmani, V. Barone, 
 G. A. Petersson, H. Nakatsuji, X. Li, M. Caricato, A. V. Marenich, 
 J. Bloino, B. G. Janesko, R. Gomperts, B. Mennucci, H. P. Hratchian, 
 J. V. Ortiz, A. F. Izmaylov, J. L. Sonnenberg, D. Williams-Young, 
 F. Ding, F. Lipparini, F. Egidi, J. Goings, B. Peng, A. Petrone, 
 T. Henderson, D. Ranasinghe, V. G. Zakrzewski, J. Gao, N. Rega, 
 G. Zheng, W. Liang, M. Hada, M. Ehara, K. Toyota, R. Fukuda, 
 J. Hasegawa, M. Ishida, T. Nakajima, Y. Honda, O. Kitao, H. Nakai, 
 T. Vreven, K. Throssell, J. A. Montgomery, Jr., J. E. Peralta, 
 F. Ogliaro, M. J. Bearpark, J. J. Heyd, E. N. Brothers, K. N. Kudin, 
 V. N. Staroverov, T. A. Keith, R. Kobayashi, J. Normand, 
 K. Raghavachari, A. P. Rendell, J. C. Burant, S. S. Iyengar, 
 J. Tomasi, M. Cossi, J. M. Millam, M. Klene, C. Adamo, R. Cammi, 
 J. W. Ochterski, R. L. Martin, K. Morokuma, O. Farkas, 
 J. B. Foresman, and D. J. Fox, Gaussian, Inc., Wallingford CT, 2016.
 
 ******************************************
 Gaussian 16:  ES64L-G16RevB.01 20-Dec-2017
                10-Apr-2022 
 ******************************************
 %nprocshared=24
 Will use up to   24 processors via shared memory.
 %lindaworkers=cnode0246.cm.cluster,cnode0256.cm.cluster
 %mem=20GB
 %chk=QOOHisob-OOH-Elim-TS4-b3lyp-c-N2.chk
 SetLPE:    new flags="-opt 'Tsnet.Node.lindarsharg: ssh'  -nodelist 'cnode0246.cm.cluster cnode0256.cm.cluster' -env GAUSS_MDEF=2684354560 -env GAUSS_EXEDIR="/apps/chpc/chem/gaussian16/B01/g16/bsd:/apps/chpc/chem/gaussian16/B01/g16""
 Will use up to    2 processors via Linda.
 ----------------------------------------------------------------
 # opt=(calcfc,ts,modredundant,noeigentest) freq ub3lyp cc-pvtz+d
 ----------------------------------------------------------------
 1/5=1,10=4,11=1,18=120,26=3,38=1/1,3;
 2/9=110,12=2,17=6,18=5,40=1/2;
 3/5=16,6=1,7=9,11=2,25=1,30=1,71=2,74=-5,116=2,140=1/1,2,3;
 4//1;
 5/5=2,38=5/2;
 8/6=4,10=90,11=11/1;
 11/6=1,8=1,9=11,15=111,16=1/1,2,10;
 10/6=1,13=1/2;
 6/7=2,8=2,9=2,10=2,28=1/1;
 7/10=1,18=20,25=1/1,2,3,16;
 1/5=1,10=4,11=1,18=20,26=3/3(2);
 2/9=110/2;
 99//99;
 2/9=110/2;
 3/5=16,6=1,7=9,11=2,25=1,30=1,71=1,74=-5,116=2/1,2,3;
 4/5=5,16=3,69=1/1;
 5/5=2,38=5/2;
 7//1,2,3,16;
 1/5=1,11=1,18=20,26=3/3(-5);
 2/9=110/2;
 6/7=2,8=2,9=2,10=2,19=2,28=1/1;
 99/9=1/99;
 --------------------------------
 QOOHisob-OOH-Elim-TS4-b3lyp-c-N2
 --------------------------------
 Symbolic Z-matrix:
 Charge =  0 Multiplicity = 2
 C                     0.04162  -0.53442   1.01009 
 H                     0.59606   0.08647   1.69812 
 H                     0.03988  -1.59358   1.22636 
 C                    -0.95874   0.00705   0.24473 
 H                     1.98736   0.76965  -1.18795 
 C                    -1.09358   1.48806   0.07698 
 H                    -0.92561   1.78146  -0.96602 
 H                    -2.107     1.82103   0.32279 
 H                    -0.39018   2.0359    0.70108 
 C                    -1.87392  -0.85256  -0.56974 
 H                    -1.723    -0.68139  -1.64104 
 H                    -1.71939  -1.91231  -0.37392 
 H                    -2.9221   -0.61264  -0.36588 
 O                     1.56031  -0.7503   -0.18839 
 O                     2.24866   0.45739  -0.30985 
 
 Add virtual bond connecting atoms O14        and C1         Dist= 3.68D+00.
 The following ModRedundant input section has been read:
 B      14      15 F                                                           
 

 GradGradGradGradGradGradGradGradGradGradGradGradGradGradGradGradGradGrad
 Berny optimization.
 Initialization pass.
                           ----------------------------
                           !    Initial Parameters    !
                           ! (Angstroms and Degrees)  !
 --------------------------                            --------------------------
 ! Name  Definition              Value          Derivative Info.                !
 --------------------------------------------------------------------------------
 ! R1    R(1,2)                  1.0799         calculate D2E/DX2 analytically  !
 ! R2    R(1,3)                  1.081          calculate D2E/DX2 analytically  !
 ! R3    R(1,4)                  1.371          calculate D2E/DX2 analytically  !
 ! R4    R(1,14)                 1.9466         calculate D2E/DX2 analytically  !
 ! R5    R(4,6)                  1.4966         calculate D2E/DX2 analytically  !
 ! R6    R(4,10)                 1.4966         calculate D2E/DX2 analytically  !
 ! R7    R(5,15)                 0.9679         calculate D2E/DX2 analytically  !
 ! R8    R(6,7)                  1.0964         calculate D2E/DX2 analytically  !
 ! R9    R(6,8)                  1.0947         calculate D2E/DX2 analytically  !
 ! R10   R(6,9)                  1.0883         calculate D2E/DX2 analytically  !
 ! R11   R(10,11)                1.0953         calculate D2E/DX2 analytically  !
 ! R12   R(10,12)                1.0887         calculate D2E/DX2 analytically  !
 ! R13   R(10,13)                1.0944         calculate D2E/DX2 analytically  !
 ! R14   R(14,15)                1.3954         frozen, calculate D2E/DX2 analyt!
 ! A1    A(2,1,3)              115.8916         calculate D2E/DX2 analytically  !
 ! A2    A(2,1,4)              120.2118         calculate D2E/DX2 analytically  !
 ! A3    A(2,1,14)              93.1789         calculate D2E/DX2 analytically  !
 ! A4    A(3,1,4)              119.8323         calculate D2E/DX2 analytically  !
 ! A5    A(3,1,14)              90.9033         calculate D2E/DX2 analytically  !
 ! A6    A(4,1,14)             105.6252         calculate D2E/DX2 analytically  !
 ! A7    A(1,4,6)              121.2751         calculate D2E/DX2 analytically  !
 ! A8    A(1,4,10)             121.5432         calculate D2E/DX2 analytically  !
 ! A9    A(6,4,10)             116.8916         calculate D2E/DX2 analytically  !
 ! A10   A(4,6,7)              110.9556         calculate D2E/DX2 analytically  !
 ! A11   A(4,6,8)              111.0545         calculate D2E/DX2 analytically  !
 ! A12   A(4,6,9)              112.064          calculate D2E/DX2 analytically  !
 ! A13   A(7,6,8)              105.9051         calculate D2E/DX2 analytically  !
 ! A14   A(7,6,9)              108.1673         calculate D2E/DX2 analytically  !
 ! A15   A(8,6,9)              108.4489         calculate D2E/DX2 analytically  !
 ! A16   A(4,10,11)            110.9928         calculate D2E/DX2 analytically  !
 ! A17   A(4,10,12)            111.9882         calculate D2E/DX2 analytically  !
 ! A18   A(4,10,13)            111.0003         calculate D2E/DX2 analytically  !
 ! A19   A(11,10,12)           107.968          calculate D2E/DX2 analytically  !
 ! A20   A(11,10,13)           106.2528         calculate D2E/DX2 analytically  !
 ! A21   A(12,10,13)           108.4102         calculate D2E/DX2 analytically  !
 ! A22   A(1,14,15)            110.0271         calculate D2E/DX2 analytically  !
 ! A23   A(5,15,14)            103.0037         calculate D2E/DX2 analytically  !
 ! D1    D(2,1,4,6)             15.2722         calculate D2E/DX2 analytically  !
 ! D2    D(2,1,4,10)          -171.106          calculate D2E/DX2 analytically  !
 ! D3    D(3,1,4,6)            171.6789         calculate D2E/DX2 analytically  !
 ! D4    D(3,1,4,10)           -14.6993         calculate D2E/DX2 analytically  !
 ! D5    D(14,1,4,6)           -87.9947         calculate D2E/DX2 analytically  !
 ! D6    D(14,1,4,10)           85.627          calculate D2E/DX2 analytically  !
 ! D7    D(2,1,14,15)          -40.3996         calculate D2E/DX2 analytically  !
 ! D8    D(3,1,14,15)         -156.3933         calculate D2E/DX2 analytically  !
 ! D9    D(4,1,14,15)           82.2055         calculate D2E/DX2 analytically  !
 ! D10   D(1,4,6,7)            115.1557         calculate D2E/DX2 analytically  !
 ! D11   D(1,4,6,8)           -127.3361         calculate D2E/DX2 analytically  !
 ! D12   D(1,4,6,9)             -5.8744         calculate D2E/DX2 analytically  !
 ! D13   D(10,4,6,7)           -58.7505         calculate D2E/DX2 analytically  !
 ! D14   D(10,4,6,8)            58.7577         calculate D2E/DX2 analytically  !
 ! D15   D(10,4,6,9)          -179.7806         calculate D2E/DX2 analytically  !
 ! D16   D(1,4,10,11)         -113.6963         calculate D2E/DX2 analytically  !
 ! D17   D(1,4,10,12)            7.0527         calculate D2E/DX2 analytically  !
 ! D18   D(1,4,10,13)          128.3733         calculate D2E/DX2 analytically  !
 ! D19   D(6,4,10,11)           60.1924         calculate D2E/DX2 analytically  !
 ! D20   D(6,4,10,12)         -179.0586         calculate D2E/DX2 analytically  !
 ! D21   D(6,4,10,13)          -57.738          calculate D2E/DX2 analytically  !
 ! D22   D(1,14,15,5)         -104.8811         calculate D2E/DX2 analytically  !
 --------------------------------------------------------------------------------
 Trust Radius=3.00D-01 FncErr=1.00D-07 GrdErr=1.00D-06 EigMax=2.50D+02 EigMin=1.00D-04
 Number of steps in this run=     69 maximum allowed number of steps=    100.
 Search for a saddle point of order  1.
 GradGradGradGradGradGradGradGradGradGradGradGradGradGradGradGradGradGrad

                          Input orientation:                          
 ---------------------------------------------------------------------
 Center     Atomic      Atomic             Coordinates (Angstroms)
 Number     Number       Type             X           Y           Z
 ---------------------------------------------------------------------
      1          6           0        0.041615   -0.534421    1.010094
      2          1           0        0.596064    0.086465    1.698117
      3          1           0        0.039880   -1.593578    1.226357
      4          6           0       -0.958741    0.007045    0.244726
      5          1           0        1.987360    0.769650   -1.187949
      6          6           0       -1.093584    1.488056    0.076976
      7          1           0       -0.925610    1.781461   -0.966022
      8          1           0       -2.106997    1.821027    0.322789
      9          1           0       -0.390179    2.035900    0.701081
     10          6           0       -1.873918   -0.852564   -0.569737
     11          1           0       -1.723004   -0.681386   -1.641040
     12          1           0       -1.719394   -1.912305   -0.373916
     13          1           0       -2.922096   -0.612643   -0.365879
     14          8           0        1.560313   -0.750298   -0.188391
     15          8           0        2.248655    0.457387   -0.309845
 ---------------------------------------------------------------------
                    Distance matrix (angstroms):
                    1          2          3          4          5
     1  C    0.000000
     2  H    1.079949   0.000000
     3  H    1.081012   1.831514   0.000000
     4  C    1.371016   2.129806   2.126696   0.000000
     5  H    3.212152   3.275946   3.899538   3.363575   0.000000
     6  C    2.499960   2.729005   3.478834   1.496568   3.407104
     7  H    3.194349   3.505159   4.138790   2.148386   3.091667
     8  H    3.261450   3.493819   4.133406   2.148282   4.489040
     9  H    2.624592   2.401469   3.692421   2.155870   3.290063
    10  C    2.503267   3.482205   2.727211   1.496605   4.233584
    11  H    3.188101   4.137347   3.487380   2.148057   4.009688
    12  H    2.629677   3.694557   2.399480   2.155276   4.647102
    13  H    3.268486   4.138391   3.502963   2.147467   5.166168
    14  O    1.946641   2.277907   2.241506   2.665857   1.868616
    15  O    2.756256   2.626890   3.383055   3.285992   0.967910
                    6          7          8          9         10
     6  C    0.000000
     7  H    1.096424   0.000000
     8  H    1.094669   1.748792   0.000000
     9  H    1.088310   1.769367   1.771084   0.000000
    10  C    2.550620   2.827440   2.828253   3.487074   0.000000
    11  H    2.837997   2.675276   3.204083   3.826957   1.095339
    12  H    3.486746   3.824211   3.817513   4.302413   1.088703
    13  H    2.820020   3.174565   2.657329   3.816253   1.094439
    14  O    3.481927   3.632400   4.508013   3.515463   3.456852
    15  O    3.518873   3.501385   4.607759   3.236838   4.333489
                   11         12         13         14         15
    11  H    0.000000
    12  H    1.766572   0.000000
    13  H    1.751737   1.770785   0.000000
    14  O    3.590976   3.484416   4.488033   0.000000
    15  O    4.340848   4.622224   5.280603   1.395374   0.000000
 Stoichiometry    C4H9O2(2)
 Framework group  C1[X(C4H9O2)]
 Deg. of freedom    39
 Full point group                 C1      NOp   1
 Largest Abelian subgroup         C1      NOp   1
 Largest concise Abelian subgroup C1      NOp   1
                         Standard orientation:                         
 ---------------------------------------------------------------------
 Center     Atomic      Atomic             Coordinates (Angstroms)
 Number     Number       Type             X           Y           Z
 ---------------------------------------------------------------------
      1          6           0        0.041615   -0.534421    1.010094
      2          1           0        0.596064    0.086465    1.698117
      3          1           0        0.039880   -1.593578    1.226357
      4          6           0       -0.958741    0.007045    0.244726
      5          1           0        1.987360    0.769650   -1.187949
      6          6           0       -1.093584    1.488056    0.076976
      7          1           0       -0.925610    1.781461   -0.966022
      8          1           0       -2.106997    1.821027    0.322789
      9          1           0       -0.390179    2.035900    0.701081
     10          6           0       -1.873918   -0.852564   -0.569737
     11          1           0       -1.723004   -0.681386   -1.641040
     12          1           0       -1.719394   -1.912305   -0.373916
     13          1           0       -2.922096   -0.612643   -0.365879
     14          8           0        1.560313   -0.750298   -0.188391
     15          8           0        2.248655    0.457387   -0.309845
 ---------------------------------------------------------------------
 Rotational constants (GHZ):           5.1157938           2.1003574           1.8003166
 Standard basis: CC-pVTZ+d (5D, 7F)
 There are   345 symmetry adapted cartesian basis functions of A   symmetry.
 There are   306 symmetry adapted basis functions of A   symmetry.
   306 basis functions,   465 primitive gaussians,   345 cartesian basis functions
    25 alpha electrons       24 beta electrons
       nuclear repulsion energy       241.6066766306 Hartrees.
 NAtoms=   15 NActive=   15 NUniq=   15 SFac= 1.00D+00 NAtFMM=   60 NAOKFM=F Big=F
 Integral buffers will be    131072 words long.
 Raffenetti 2 integral format.
 Two-electron integral symmetry is turned on.
 One-electron integrals computed using PRISM.
 NBasis=   306 RedAO= T EigKep=  3.19D-04  NBF=   306
 NBsUse=   306 1.00D-06 EigRej= -1.00D+00 NBFU=   306
 ExpMin= 1.03D-01 ExpMax= 1.53D+04 ExpMxC= 5.22D+02 IAcc=3 IRadAn=         5 AccDes= 0.00D+00
 Harris functional with IExCor=  402 and IRadAn=       5 diagonalized for initial guess.
 HarFok:  IExCor=  402 AccDes= 0.00D+00 IRadAn=         5 IDoV= 1 UseB2=F ITyADJ=14
 ICtDFT=  3500011 ScaDFX=  1.000000  1.000000  1.000000  1.000000
 FoFCou: FMM=F IPFlag=           0 FMFlag=      100000 FMFlg1=           0
         NFxFlg=           0 DoJE=T BraDBF=F KetDBF=T FulRan=T
         wScrn=  0.000000 ICntrl=       500 IOpCl=  0 I1Cent=   200000004 NGrid=           0
         NMat0=    1 NMatS0=      1 NMatT0=    0 NMatD0=    1 NMtDS0=    0 NMtDT0=    0
 Petite list used in FoFCou.
 Initial guess <Sx>= 0.0000 <Sy>= 0.0000 <Sz>= 0.5000 <S**2>= 0.7500 S= 0.5000
 Requested convergence on RMS density matrix=1.00D-08 within 128 cycles.
 Requested convergence on MAX density matrix=1.00D-06.
 Requested convergence on             energy=1.00D-06.
 No special actions if energy rises.
 Integral accuracy reduced to 1.0D-05 until final iterations.
 Initial convergence to 1.0D-05 achieved.  Increase integral accuracy.
 SCF Done:  E(UB3LYP) =  -308.244024009     A.U. after   19 cycles
            NFock= 19  Conv=0.38D-08     -V/T= 2.0064
 <Sx>= 0.0000 <Sy>= 0.0000 <Sz>= 0.5000 <S**2>= 0.7745 S= 0.5122
 <L.S>= 0.000000000000E+00
 Annihilation of the first spin contaminant:
 S**2 before annihilation     0.7745,   after     0.7501
 DoSCS=F DFT=T ScalE2(SS,OS)=  1.000000  1.000000
 Range of M.O.s used for correlation:     1   306
 NBasis=   306 NAE=    25 NBE=    24 NFC=     0 NFV=     0
 NROrb=    306 NOA=    25 NOB=    24 NVA=   281 NVB=   282

 **** Warning!!: The largest alpha MO coefficient is  0.11607808D+02


 **** Warning!!: The largest beta MO coefficient is  0.12324553D+02

 Symmetrizing basis deriv contribution to polar:
 IMax=3 JMax=2 DiffMx= 0.00D+00
 G2DrvN: will do    16 centers at a time, making    1 passes.
 Calling FoFCou, ICntrl=  3107 FMM=F I1Cent=   0 AccDes= 0.00D+00.
 End of G2Drv F.D. properties file   721 does not exist.
 End of G2Drv F.D. properties file   722 does not exist.
 End of G2Drv F.D. properties file   788 does not exist.
          IDoAtm=111111111111111
          Differentiating once with respect to nuclear coordinates.
 Keep R1 and R2 ints in memory in canonical form, NReq=2234005254.
          There are    48 degrees of freedom in the 1st order CPHF.  IDoFFX=6 NUNeed=     0.
     42 vectors produced by pass  0 Test12= 2.87D-14 2.08D-09 XBig12= 4.01D-01 3.99D-01.
 AX will form    42 AO Fock derivatives at one time.
     42 vectors produced by pass  1 Test12= 2.87D-14 2.08D-09 XBig12= 1.23D-01 1.30D-01.
     42 vectors produced by pass  2 Test12= 2.87D-14 2.08D-09 XBig12= 5.68D-03 9.42D-03.
     42 vectors produced by pass  3 Test12= 2.87D-14 2.08D-09 XBig12= 7.27D-05 1.06D-03.
     42 vectors produced by pass  4 Test12= 2.87D-14 2.08D-09 XBig12= 7.22D-07 1.32D-04.
     42 vectors produced by pass  5 Test12= 2.87D-14 2.08D-09 XBig12= 5.42D-09 7.77D-06.
     28 vectors produced by pass  6 Test12= 2.87D-14 2.08D-09 XBig12= 2.64D-11 4.20D-07.
      7 vectors produced by pass  7 Test12= 2.87D-14 2.08D-09 XBig12= 9.04D-14 2.71D-08.
 InvSVY:  IOpt=1 It=  1 EMax= 2.55D-15
 Solved reduced A of dimension   287 with    42 vectors.
 End of Minotr F.D. properties file   721 does not exist.
 End of Minotr F.D. properties file   722 does not exist.
 End of Minotr F.D. properties file   788 does not exist.

 **********************************************************************

            Population analysis using the SCF Density.

 **********************************************************************

 Orbital symmetries:
 Alpha Orbitals:
       Occupied  (A) (A) (A) (A) (A) (A) (A) (A) (A) (A) (A) (A)
                 (A) (A) (A) (A) (A) (A) (A) (A) (A) (A) (A) (A)
                 (A)
       Virtual   (A) (A) (A) (A) (A) (A) (A) (A) (A) (A) (A) (A)
                 (A) (A) (A) (A) (A) (A) (A) (A) (A) (A) (A) (A)
                 (A) (A) (A) (A) (A) (A) (A) (A) (A) (A) (A) (A)
                 (A) (A) (A) (A) (A) (A) (A) (A) (A) (A) (A) (A)
                 (A) (A) (A) (A) (A) (A) (A) (A) (A) (A) (A) (A)
                 (A) (A) (A) (A) (A) (A) (A) (A) (A) (A) (A) (A)
                 (A) (A) (A) (A) (A) (A) (A) (A) (A) (A) (A) (A)
                 (A) (A) (A) (A) (A) (A) (A) (A) (A) (A) (A) (A)
                 (A) (A) (A) (A) (A) (A) (A) (A) (A) (A) (A) (A)
                 (A) (A) (A) (A) (A) (A) (A) (A) (A) (A) (A) (A)
                 (A) (A) (A) (A) (A) (A) (A) (A) (A) (A) (A) (A)
                 (A) (A) (A) (A) (A) (A) (A) (A) (A) (A) (A) (A)
                 (A) (A) (A) (A) (A) (A) (A) (A) (A) (A) (A) (A)
                 (A) (A) (A) (A) (A) (A) (A) (A) (A) (A) (A) (A)
                 (A) (A) (A) (A) (A) (A) (A) (A) (A) (A) (A) (A)
                 (A) (A) (A) (A) (A) (A) (A) (A) (A) (A) (A) (A)
                 (A) (A) (A) (A) (A) (A) (A) (A) (A) (A) (A) (A)
                 (A) (A) (A) (A) (A) (A) (A) (A) (A) (A) (A) (A)
                 (A) (A) (A) (A) (A) (A) (A) (A) (A) (A) (A) (A)
                 (A) (A) (A) (A) (A) (A) (A) (A) (A) (A) (A) (A)
                 (A) (A) (A) (A) (A) (A) (A) (A) (A) (A) (A) (A)
                 (A) (A) (A) (A) (A) (A) (A) (A) (A) (A) (A) (A)
                 (A) (A) (A) (A) (A) (A) (A) (A) (A) (A) (A) (A)
                 (A) (A) (A) (A) (A)
 Beta  Orbitals:
       Occupied  (A) (A) (A) (A) (A) (A) (A) (A) (A) (A) (A) (A)
                 (A) (A) (A) (A) (A) (A) (A) (A) (A) (A) (A) (A)
       Virtual   (A) (A) (A) (A) (A) (A) (A) (A) (A) (A) (A) (A)
                 (A) (A) (A) (A) (A) (A) (A) (A) (A) (A) (A) (A)
                 (A) (A) (A) (A) (A) (A) (A) (A) (A) (A) (A) (A)
                 (A) (A) (A) (A) (A) (A) (A) (A) (A) (A) (A) (A)
                 (A) (A) (A) (A) (A) (A) (A) (A) (A) (A) (A) (A)
                 (A) (A) (A) (A) (A) (A) (A) (A) (A) (A) (A) (A)
                 (A) (A) (A) (A) (A) (A) (A) (A) (A) (A) (A) (A)
                 (A) (A) (A) (A) (A) (A) (A) (A) (A) (A) (A) (A)
                 (A) (A) (A) (A) (A) (A) (A) (A) (A) (A) (A) (A)
                 (A) (A) (A) (A) (A) (A) (A) (A) (A) (A) (A) (A)
                 (A) (A) (A) (A) (A) (A) (A) (A) (A) (A) (A) (A)
                 (A) (A) (A) (A) (A) (A) (A) (A) (A) (A) (A) (A)
                 (A) (A) (A) (A) (A) (A) (A) (A) (A) (A) (A) (A)
                 (A) (A) (A) (A) (A) (A) (A) (A) (A) (A) (A) (A)
                 (A) (A) (A) (A) (A) (A) (A) (A) (A) (A) (A) (A)
                 (A) (A) (A) (A) (A) (A) (A) (A) (A) (A) (A) (A)
                 (A) (A) (A) (A) (A) (A) (A) (A) (A) (A) (A) (A)
                 (A) (A) (A) (A) (A) (A) (A) (A) (A) (A) (A) (A)
                 (A) (A) (A) (A) (A) (A) (A) (A) (A) (A) (A) (A)
                 (A) (A) (A) (A) (A) (A) (A) (A) (A) (A) (A) (A)
                 (A) (A) (A) (A) (A) (A) (A) (A) (A) (A) (A) (A)
                 (A) (A) (A) (A) (A) (A) (A) (A) (A) (A) (A) (A)
                 (A) (A) (A) (A) (A) (A) (A) (A) (A) (A) (A) (A)
                 (A) (A) (A) (A) (A) (A)
 The electronic state is 2-A.
 Alpha  occ. eigenvalues --  -19.18629 -19.17263 -10.20002 -10.19079 -10.17728
 Alpha  occ. eigenvalues --  -10.17550  -1.11708  -0.85228  -0.81917  -0.70662
 Alpha  occ. eigenvalues --   -0.69448  -0.54642  -0.51599  -0.46967  -0.46172
 Alpha  occ. eigenvalues --   -0.45433  -0.42781  -0.42356  -0.39931  -0.38360
 Alpha  occ. eigenvalues --   -0.37854  -0.35709  -0.28934  -0.27142  -0.21315
 Alpha virt. eigenvalues --    0.01477   0.02087   0.04474   0.07615   0.07885
 Alpha virt. eigenvalues --    0.09107   0.09480   0.10463   0.11760   0.13279
 Alpha virt. eigenvalues --    0.14535   0.15758   0.21638   0.21770   0.24502
 Alpha virt. eigenvalues --    0.25782   0.27675   0.30995   0.31159   0.34701
 Alpha virt. eigenvalues --    0.35223   0.38807   0.39381   0.40722   0.43925
 Alpha virt. eigenvalues --    0.44132   0.44428   0.44953   0.45902   0.46437
 Alpha virt. eigenvalues --    0.46934   0.48123   0.49504   0.50968   0.52179
 Alpha virt. eigenvalues --    0.54371   0.56040   0.56575   0.58130   0.62672
 Alpha virt. eigenvalues --    0.64453   0.67115   0.68282   0.69130   0.69851
 Alpha virt. eigenvalues --    0.72167   0.78332   0.80675   0.80913   0.81683
 Alpha virt. eigenvalues --    0.83569   0.85654   0.86664   0.89742   0.92730
 Alpha virt. eigenvalues --    0.93195   0.95237   0.95883   0.98182   0.99120
 Alpha virt. eigenvalues --    1.01368   1.02259   1.03593   1.08379   1.10052
 Alpha virt. eigenvalues --    1.12456   1.16085   1.16130   1.17676   1.18383
 Alpha virt. eigenvalues --    1.19641   1.20791   1.22973   1.24720   1.25479
 Alpha virt. eigenvalues --    1.27015   1.29593   1.30292   1.31680   1.32541
 Alpha virt. eigenvalues --    1.35133   1.36800   1.40345   1.42730   1.46163
 Alpha virt. eigenvalues --    1.47000   1.48669   1.49073   1.49987   1.50402
 Alpha virt. eigenvalues --    1.52566   1.55407   1.59945   1.65202   1.67595
 Alpha virt. eigenvalues --    1.72562   1.78479   1.79903   1.83440   1.89817
 Alpha virt. eigenvalues --    1.95689   2.04701   2.13912   2.14726   2.19077
 Alpha virt. eigenvalues --    2.21174   2.25677   2.29239   2.29696   2.31612
 Alpha virt. eigenvalues --    2.34942   2.37899   2.45907   2.48702   2.52099
 Alpha virt. eigenvalues --    2.53659   2.55127   2.57561   2.61317   2.62381
 Alpha virt. eigenvalues --    2.62902   2.66531   2.69394   2.70548   2.75445
 Alpha virt. eigenvalues --    2.78659   2.79129   2.79769   2.80424   2.84189
 Alpha virt. eigenvalues --    2.86353   2.87973   2.88277   2.92731   2.94920
 Alpha virt. eigenvalues --    2.96438   2.96608   2.97855   2.98048   3.00543
 Alpha virt. eigenvalues --    3.01699   3.06553   3.07090   3.07192   3.08681
 Alpha virt. eigenvalues --    3.09202   3.12820   3.18337   3.21640   3.23538
 Alpha virt. eigenvalues --    3.25480   3.26829   3.27212   3.29624   3.31622
 Alpha virt. eigenvalues --    3.33313   3.34097   3.35461   3.37756   3.38857
 Alpha virt. eigenvalues --    3.40644   3.41249   3.44298   3.45698   3.47322
 Alpha virt. eigenvalues --    3.48627   3.51013   3.51376   3.52716   3.55499
 Alpha virt. eigenvalues --    3.56352   3.59997   3.65392   3.67065   3.67822
 Alpha virt. eigenvalues --    3.70703   3.72459   3.73168   3.75662   3.78316
 Alpha virt. eigenvalues --    3.79332   3.80639   3.81140   3.85442   3.86640
 Alpha virt. eigenvalues --    3.88509   3.91386   3.92363   3.93735   3.96055
 Alpha virt. eigenvalues --    3.97244   3.98896   3.99386   4.03062   4.06680
 Alpha virt. eigenvalues --    4.07427   4.09305   4.10691   4.12804   4.13287
 Alpha virt. eigenvalues --    4.13529   4.14881   4.17070   4.19025   4.22232
 Alpha virt. eigenvalues --    4.25613   4.28233   4.33488   4.35705   4.36315
 Alpha virt. eigenvalues --    4.40908   4.42495   4.43726   4.48336   4.49338
 Alpha virt. eigenvalues --    4.52362   4.59142   4.66283   4.72208   4.77042
 Alpha virt. eigenvalues --    4.79008   4.79927   4.81439   4.85631   4.87412
 Alpha virt. eigenvalues --    4.88581   4.89842   4.95035   4.99990   5.01646
 Alpha virt. eigenvalues --    5.03953   5.07565   5.08175   5.10303   5.11734
 Alpha virt. eigenvalues --    5.14861   5.15563   5.17422   5.19231   5.20957
 Alpha virt. eigenvalues --    5.24433   5.25637   5.28041   5.30816   5.31653
 Alpha virt. eigenvalues --    5.33646   5.36037   5.37648   5.43816   5.44939
 Alpha virt. eigenvalues --    5.56380   5.58740   5.71885   5.80266   5.84817
 Alpha virt. eigenvalues --    5.85671   5.88990   5.92804   5.98015   6.01559
 Alpha virt. eigenvalues --    6.02762   6.27778   6.33340   6.34697   6.39055
 Alpha virt. eigenvalues --    6.46879   6.55769   6.58454   6.65440   6.70272
 Alpha virt. eigenvalues --    6.82355   7.04158   7.14121   7.32108   7.54508
 Alpha virt. eigenvalues --    9.35837   9.63876  11.07745  13.61449  13.75151
 Alpha virt. eigenvalues --   13.80164
  Beta  occ. eigenvalues --  -19.18340 -19.15697 -10.19309 -10.19224 -10.17768
  Beta  occ. eigenvalues --  -10.17590  -1.10096  -0.83125  -0.80342  -0.70538
  Beta  occ. eigenvalues --   -0.69292  -0.53855  -0.50890  -0.46588  -0.45931
  Beta  occ. eigenvalues --   -0.44108  -0.42077  -0.39640  -0.38805  -0.37964
  Beta  occ. eigenvalues --   -0.37547  -0.35443  -0.26313  -0.25004
  Beta virt. eigenvalues --   -0.09842   0.01811   0.03835   0.04699   0.07675
  Beta virt. eigenvalues --    0.07908   0.09228   0.10081   0.10865   0.12095
  Beta virt. eigenvalues --    0.13508   0.14970   0.15767   0.21778   0.21934
  Beta virt. eigenvalues --    0.24674   0.25950   0.27798   0.31185   0.31465
  Beta virt. eigenvalues --    0.34775   0.35349   0.39837   0.40408   0.41574
  Beta virt. eigenvalues --    0.44056   0.44350   0.44798   0.45079   0.45938
  Beta virt. eigenvalues --    0.46530   0.47040   0.48228   0.49623   0.51331
  Beta virt. eigenvalues --    0.52483   0.54921   0.56293   0.56918   0.58598
  Beta virt. eigenvalues --    0.62945   0.65027   0.67387   0.68768   0.69428
  Beta virt. eigenvalues --    0.70360   0.72967   0.78537   0.80981   0.81306
  Beta virt. eigenvalues --    0.81996   0.83815   0.86001   0.86939   0.89930
  Beta virt. eigenvalues --    0.92884   0.93479   0.95440   0.96061   0.98369
  Beta virt. eigenvalues --    0.99509   1.01535   1.02368   1.03788   1.08660
  Beta virt. eigenvalues --    1.10673   1.12824   1.16267   1.16451   1.17922
  Beta virt. eigenvalues --    1.18572   1.20265   1.20983   1.23172   1.24803
  Beta virt. eigenvalues --    1.25972   1.27380   1.29939   1.30483   1.31897
  Beta virt. eigenvalues --    1.32921   1.35333   1.37065   1.40651   1.43049
  Beta virt. eigenvalues --    1.46756   1.47595   1.48889   1.49310   1.50142
  Beta virt. eigenvalues --    1.50886   1.53014   1.55738   1.60660   1.66404
  Beta virt. eigenvalues --    1.68706   1.73009   1.78961   1.80192   1.84515
  Beta virt. eigenvalues --    1.90158   1.96227   2.05662   2.14291   2.15233
  Beta virt. eigenvalues --    2.19887   2.22513   2.25909   2.30206   2.30461
  Beta virt. eigenvalues --    2.32453   2.35880   2.38177   2.46129   2.48893
  Beta virt. eigenvalues --    2.52335   2.53778   2.55443   2.58199   2.61633
  Beta virt. eigenvalues --    2.62829   2.63094   2.66948   2.69617   2.71095
  Beta virt. eigenvalues --    2.75474   2.78918   2.79259   2.79912   2.80645
  Beta virt. eigenvalues --    2.84339   2.86909   2.88386   2.88999   2.92801
  Beta virt. eigenvalues --    2.95760   2.96866   2.97070   2.98104   2.98362
  Beta virt. eigenvalues --    3.00843   3.02157   3.06754   3.07355   3.07550
  Beta virt. eigenvalues --    3.08987   3.09252   3.13297   3.18967   3.22195
  Beta virt. eigenvalues --    3.24295   3.25720   3.27168   3.27786   3.29845
  Beta virt. eigenvalues --    3.31836   3.34179   3.34377   3.35801   3.38009
  Beta virt. eigenvalues --    3.38991   3.40935   3.41566   3.44498   3.46061
  Beta virt. eigenvalues --    3.47462   3.49042   3.51296   3.51798   3.53260
  Beta virt. eigenvalues --    3.55923   3.56990   3.60434   3.65729   3.67646
  Beta virt. eigenvalues --    3.68133   3.70983   3.73026   3.73603   3.76013
  Beta virt. eigenvalues --    3.78645   3.79977   3.81018   3.81908   3.85717
  Beta virt. eigenvalues --    3.87334   3.88912   3.91613   3.92903   3.94094
  Beta virt. eigenvalues --    3.96334   3.97521   3.99331   3.99709   4.03390
  Beta virt. eigenvalues --    4.06867   4.07767   4.09617   4.10963   4.13222
  Beta virt. eigenvalues --    4.13743   4.13876   4.16415   4.17351   4.19431
  Beta virt. eigenvalues --    4.22888   4.25838   4.28483   4.34063   4.35967
  Beta virt. eigenvalues --    4.36549   4.41255   4.42760   4.43974   4.48904
  Beta virt. eigenvalues --    4.50065   4.52774   4.59628   4.66545   4.72366
  Beta virt. eigenvalues --    4.77436   4.79511   4.81037   4.81819   4.85961
  Beta virt. eigenvalues --    4.87776   4.88961   4.90018   4.96283   5.00535
  Beta virt. eigenvalues --    5.02031   5.04827   5.08038   5.08566   5.10590
  Beta virt. eigenvalues --    5.11948   5.15094   5.15861   5.17781   5.19799
  Beta virt. eigenvalues --    5.22443   5.25092   5.27010   5.29901   5.30972
  Beta virt. eigenvalues --    5.32489   5.34176   5.36322   5.40176   5.44078
  Beta virt. eigenvalues --    5.45120   5.56752   5.59977   5.72085   5.80404
  Beta virt. eigenvalues --    5.85022   5.85891   5.89123   5.93378   5.98303
  Beta virt. eigenvalues --    6.02665   6.03870   6.29089   6.35093   6.35820
  Beta virt. eigenvalues --    6.41700   6.51027   6.57747   6.59737   6.67491
  Beta virt. eigenvalues --    6.71715   6.83212   7.07094   7.14623   7.32975
  Beta virt. eigenvalues --    7.55486   9.37508   9.64792  11.08315  13.61555
  Beta virt. eigenvalues --   13.75190  13.80196
          Condensed to atoms (all electrons):
               1          2          3          4          5          6
     1  C    4.988386   0.423152   0.413274   0.451962  -0.003073  -0.064231
     2  H    0.423152   0.535082  -0.026263  -0.057216  -0.000859  -0.010998
     3  H    0.413274  -0.026263   0.548375  -0.047806  -0.000171   0.008429
     4  C    0.451962  -0.057216  -0.047806   5.109871   0.001028   0.362938
     5  H   -0.003073  -0.000859  -0.000171   0.001028   0.476299  -0.000145
     6  C   -0.064231  -0.010998   0.008429   0.362938  -0.000145   4.862046
     7  H   -0.003466  -0.000021  -0.000434  -0.045445   0.001643   0.390709
     8  H    0.003117   0.000341  -0.000247  -0.041176  -0.000074   0.395336
     9  H   -0.004358   0.004972   0.000072  -0.035018  -0.000168   0.401311
    10  C   -0.043052   0.007925  -0.011157   0.350213   0.000078  -0.066768
    11  H   -0.000307  -0.000302   0.000153  -0.042217  -0.000007  -0.001138
    12  H   -0.005717  -0.000122   0.004377  -0.032726   0.000004   0.006308
    13  H    0.005648  -0.000199   0.000213  -0.045089  -0.000016  -0.003140
    14  O    0.051669  -0.015922  -0.010444  -0.024015  -0.028584  -0.001947
    15  O   -0.031151   0.008525   0.001538  -0.001948   0.327971   0.008457
               7          8          9         10         11         12
     1  C   -0.003466   0.003117  -0.004358  -0.043052  -0.000307  -0.005717
     2  H   -0.000021   0.000341   0.004972   0.007925  -0.000302  -0.000122
     3  H   -0.000434  -0.000247   0.000072  -0.011157   0.000153   0.004377
     4  C   -0.045445  -0.041176  -0.035018   0.350213  -0.042217  -0.032726
     5  H    0.001643  -0.000074  -0.000168   0.000078  -0.000007   0.000004
     6  C    0.390709   0.395336   0.401311  -0.066768  -0.001138   0.006308
     7  H    0.634030  -0.039673  -0.029456  -0.001332   0.006137  -0.000238
     8  H   -0.039673   0.602153  -0.023453  -0.003072  -0.001462  -0.000040
     9  H   -0.029456  -0.023453   0.573005   0.006241  -0.000155  -0.000452
    10  C   -0.001332  -0.003072   0.006241   4.837077   0.391064   0.401857
    11  H    0.006137  -0.001462  -0.000155   0.391064   0.619159  -0.026823
    12  H   -0.000238  -0.000040  -0.000452   0.401857  -0.026823   0.582353
    13  H   -0.002049   0.003809   0.000027   0.398157  -0.039490  -0.027066
    14  O    0.000636  -0.000201  -0.000874   0.006964   0.001983  -0.000285
    15  O    0.000608   0.000326   0.003141  -0.000747  -0.000054  -0.000005
              13         14         15
     1  C    0.005648   0.051669  -0.031151
     2  H   -0.000199  -0.015922   0.008525
     3  H    0.000213  -0.010444   0.001538
     4  C   -0.045089  -0.024015  -0.001948
     5  H   -0.000016  -0.028584   0.327971
     6  C   -0.003140  -0.001947   0.008457
     7  H   -0.002049   0.000636   0.000608
     8  H    0.003809  -0.000201   0.000326
     9  H    0.000027  -0.000874   0.003141
    10  C    0.398157   0.006964  -0.000747
    11  H   -0.039490   0.001983  -0.000054
    12  H   -0.027066  -0.000285  -0.000005
    13  H    0.611166   0.000072  -0.000014
    14  O    0.000072   8.173805   0.072541
    15  O   -0.000014   0.072541   7.805489
          Atomic-Atomic Spin Densities.
               1          2          3          4          5          6
     1  C   -0.119550   0.001886   0.002508   0.064065   0.000756   0.002497
     2  H    0.001886   0.009833   0.000838  -0.001269  -0.000057   0.000052
     3  H    0.002508   0.000838   0.010674  -0.001778  -0.000023   0.000002
     4  C    0.064065  -0.001269  -0.001778   0.473602   0.000048  -0.000468
     5  H    0.000756  -0.000057  -0.000023   0.000048  -0.003845   0.000041
     6  C    0.002497   0.000052   0.000002  -0.000468   0.000041  -0.032233
     7  H   -0.000824  -0.000608  -0.000252  -0.012005  -0.000137   0.002439
     8  H   -0.000919   0.000551   0.000209  -0.014429   0.000009   0.003204
     9  H    0.000559   0.000451   0.000072  -0.000866  -0.000024  -0.000107
    10  C   -0.000805  -0.000152  -0.000255  -0.005341  -0.000021   0.002194
    11  H   -0.001002  -0.000209  -0.000673  -0.012519  -0.000009  -0.001052
    12  H    0.000227   0.000039   0.000339  -0.000737   0.000000  -0.000036
    13  H   -0.001063   0.000139   0.000512  -0.010453   0.000000   0.001083
    14  O   -0.054669  -0.007434  -0.006802  -0.037110  -0.001383  -0.001045
    15  O    0.010740   0.001731   0.000431   0.006634   0.001846  -0.000254
               7          8          9         10         11         12
     1  C   -0.000824  -0.000919   0.000559  -0.000805  -0.001002   0.000227
     2  H   -0.000608   0.000551   0.000451  -0.000152  -0.000209   0.000039
     3  H   -0.000252   0.000209   0.000072  -0.000255  -0.000673   0.000339
     4  C   -0.012005  -0.014429  -0.000866  -0.005341  -0.012519  -0.000737
     5  H   -0.000137   0.000009  -0.000024  -0.000021  -0.000009   0.000000
     6  C    0.002439   0.003204  -0.000107   0.002194  -0.001052  -0.000036
     7  H    0.047591  -0.014326  -0.002702   0.000304   0.004759  -0.000078
     8  H   -0.014326   0.044808   0.002266   0.000526  -0.002279   0.000081
     9  H   -0.002702   0.002266   0.000920  -0.000112  -0.000216   0.000007
    10  C    0.000304   0.000526  -0.000112  -0.029124   0.004540   0.000049
    11  H    0.004759  -0.002279  -0.000216   0.004540   0.041829  -0.001415
    12  H   -0.000078   0.000081   0.000007   0.000049  -0.001415   0.000674
    13  H   -0.001956   0.003700   0.000171   0.005002  -0.010832   0.000995
    14  O    0.002284  -0.000488  -0.000812   0.001001   0.001752  -0.000144
    15  O   -0.001530   0.000173   0.000578  -0.000062  -0.000209   0.000009
              13         14         15
     1  C   -0.001063  -0.054669   0.010740
     2  H    0.000139  -0.007434   0.001731
     3  H    0.000512  -0.006802   0.000431
     4  C   -0.010453  -0.037110   0.006634
     5  H    0.000000  -0.001383   0.001846
     6  C    0.001083  -0.001045  -0.000254
     7  H   -0.001956   0.002284  -0.001530
     8  H    0.003700  -0.000488   0.000173
     9  H    0.000171  -0.000812   0.000578
    10  C    0.005002   0.001001  -0.000062
    11  H   -0.010832   0.001752  -0.000209
    12  H    0.000995  -0.000144   0.000009
    13  H    0.031663  -0.000341   0.000026
    14  O   -0.000341   0.675229  -0.062293
    15  O    0.000026  -0.062293   0.132449
 Mulliken charges and spin densities:
               1          2
     1  C   -0.181854  -0.095593
     2  H    0.131906   0.005791
     3  H    0.120091   0.005802
     4  C    0.096644   0.447373
     5  H    0.226073  -0.002800
     6  C   -0.287168  -0.023683
     7  H    0.088350   0.022959
     8  H    0.104317   0.023085
     9  H    0.105165   0.000186
    10  C   -0.273449  -0.022255
    11  H    0.093458   0.022464
    12  H    0.098574   0.000010
    13  H    0.097970   0.018646
    14  O   -0.225398   0.507745
    15  O   -0.194678   0.090270
 Sum of Mulliken charges =  -0.00000   1.00000
 Mulliken charges and spin densities with hydrogens summed into heavy atoms:
               1          2
     1  C    0.070142  -0.084000
     4  C    0.096644   0.447373
     6  C    0.010664   0.022547
    10  C    0.016554   0.018865
    14  O   -0.225398   0.507745
    15  O    0.031395   0.087470
 APT charges:
               1
     1  C   -0.692296
     2  H    0.339824
     3  H    0.394079
     4  C    0.162137
     5  H    0.365576
     6  C   -1.030737
     7  H    0.269554
     8  H    0.465290
     9  H    0.272910
    10  C   -1.068930
    11  H    0.278392
    12  H    0.326767
    13  H    0.464272
    14  O   -0.191017
    15  O   -0.355821
 Sum of APT charges =  -0.00000
 APT charges with hydrogens summed into heavy atoms:
               1
     1  C    0.041607
     4  C    0.162137
     6  C   -0.022983
    10  C    0.000500
    14  O   -0.191017
    15  O    0.009755
 Electronic spatial extent (au):  <R**2>=            732.5775
 Charge=             -0.0000 electrons
 Dipole moment (field-independent basis, Debye):
    X=             -2.2260    Y=              1.1052    Z=             -0.8129  Tot=              2.6148
 Quadrupole moment (field-independent basis, Debye-Ang):
   XX=            -41.4718   YY=            -36.7133   ZZ=            -35.1995
   XY=              2.0204   XZ=             -1.3548   YZ=             -1.9202
 Traceless Quadrupole moment (field-independent basis, Debye-Ang):
   XX=             -3.6769   YY=              1.0816   ZZ=              2.5954
   XY=              2.0204   XZ=             -1.3548   YZ=             -1.9202
 Octapole moment (field-independent basis, Debye-Ang**2):
  XXX=              1.8665  YYY=             -2.0970  ZZZ=             -6.4896  XYY=              4.4017
  XXY=              3.7697  XXZ=             -6.0155  XZZ=             11.8269  YZZ=              2.4731
  YYZ=             -0.3713  XYZ=             -3.3982
 Hexadecapole moment (field-independent basis, Debye-Ang**3):
 XXXX=           -583.8744 YYYY=           -242.1188 ZZZZ=           -125.3337 XXXY=              1.3493
 XXXZ=            -16.1715 YYYX=              5.0589 YYYZ=             -3.9297 ZZZX=             -7.5731
 ZZZY=             -3.9032 XXYY=           -135.4642 XXZZ=           -109.1104 YYZZ=            -60.6248
 XXYZ=             -4.7913 YYXZ=             -4.5227 ZZXY=              4.5917
 N-N= 2.416066766306D+02 E-N=-1.204146038207D+03  KE= 3.062982526030D+02
  Exact polarizability:   0.000   0.000   0.000   0.000   0.000   0.000
 Approx polarizability: 136.416  -4.436  87.705  -5.697  -5.228  82.068
                          Isotropic Fermi Contact Couplings
        Atom                 a.u.       MegaHertz       Gauss      10(-4) cm-1
     1  C(13)             -0.00272      -3.05942      -1.09168      -1.02051
     2  H(1)               0.00391      17.46779       6.23294       5.82663
     3  H(1)               0.00374      16.71405       5.96399       5.57521
     4  C(13)              0.01549      17.41391       6.21371       5.80865
     5  H(1)              -0.00193      -8.62840      -3.07883      -2.87812
     6  C(13)             -0.01363     -15.32629      -5.46880      -5.11230
     7  H(1)               0.01120      50.05829      17.86204      16.69765
     8  H(1)               0.01141      51.02196      18.20590      17.01909
     9  H(1)               0.00029       1.28614       0.45893       0.42901
    10  C(13)             -0.01319     -14.82701      -5.29064      -4.94576
    11  H(1)               0.01093      48.86198      17.43517      16.29860
    12  H(1)               0.00028       1.24638       0.44474       0.41575
    13  H(1)               0.00986      44.05873      15.72125      14.69641
    14  O(17)              0.05191     -31.46993     -11.22925     -10.49724
    15  O(17)              0.01215      -7.36723      -2.62881      -2.45744
 --------------------------------------------------------
       Center         ----  Spin Dipole Couplings  ----
                      3XX-RR        3YY-RR        3ZZ-RR
 --------------------------------------------------------
     1   Atom       -0.024900      0.037733     -0.012834
     2   Atom       -0.000920     -0.008604      0.009523
     3   Atom        0.004059     -0.006705      0.002646
     4   Atom        0.095862     -0.292676      0.196815
     5   Atom       -0.007539     -0.004480      0.012019
     6   Atom        0.000594      0.005076     -0.005670
     7   Atom       -0.003575      0.004569     -0.000995
     8   Atom        0.000453      0.004888     -0.005341
     9   Atom       -0.002727      0.007363     -0.004636
    10   Atom        0.004446     -0.004878      0.000431
    11   Atom       -0.000322     -0.003515      0.003837
    12   Atom        0.000093      0.004053     -0.004146
    13   Atom        0.007251     -0.003335     -0.003917
    14   Atom        1.100157     -0.429235     -0.670921
    15   Atom        0.371586     -0.247862     -0.123724
 --------------------------------------------------------
                        XY            XZ            YZ
 --------------------------------------------------------
     1   Atom       -0.001093      0.076806     -0.013600
     2   Atom       -0.006842     -0.000409     -0.000016
     3   Atom       -0.000042     -0.001258     -0.009540
     4   Atom       -0.010096     -0.437395      0.012880
     5   Atom       -0.001208     -0.000656     -0.020219
     6   Atom       -0.002400     -0.005825     -0.002683
     7   Atom       -0.002210      0.001446     -0.005525
     8   Atom       -0.006340     -0.000086      0.000229
     9   Atom        0.000512     -0.000951      0.003333
    10   Atom        0.004082      0.000287      0.005586
    11   Atom        0.001853      0.005609      0.002800
    12   Atom        0.005249      0.000808      0.003444
    13   Atom        0.003013      0.003913      0.001398
    14   Atom       -1.320838     -1.123304      0.653052
    15   Atom       -0.254600     -0.293738      0.089468
 --------------------------------------------------------


 ---------------------------------------------------------------------------------
              Anisotropic Spin Dipole Couplings in Principal Axis System
 ---------------------------------------------------------------------------------

       Atom             a.u.   MegaHertz   Gauss  10(-4) cm-1        Axes

              Baa    -0.0964   -12.942    -4.618    -4.317  0.7298 -0.0631 -0.6807
     1 C(13)  Bbb     0.0336     4.509     1.609     1.504  0.3148  0.9149  0.2528
              Bcc     0.0628     8.433     3.009     2.813  0.6068 -0.3988  0.6875
 
              Baa    -0.0126    -6.729    -2.401    -2.244  0.5053  0.8629  0.0100
     2 H(1)   Bbb     0.0031     1.636     0.584     0.546  0.8614 -0.5051  0.0534
              Bcc     0.0095     5.092     1.817     1.699 -0.0511  0.0184  0.9985
 
              Baa    -0.0127    -6.767    -2.415    -2.257  0.0420  0.8467  0.5304
     3 H(1)   Bbb     0.0039     2.058     0.734     0.687  0.9757 -0.1491  0.1608
              Bcc     0.0088     4.709     1.680     1.571 -0.2152 -0.5107  0.8324
 
              Baa    -0.2946   -39.534   -14.107   -13.187  0.6244 -0.5343  0.5698
     4 C(13)  Bbb    -0.2923   -39.228   -13.997   -13.085  0.4094  0.8451  0.3438
              Bcc     0.5869    78.762    28.104    26.272 -0.6652  0.0186  0.7464
 
              Baa    -0.0182    -9.734    -3.473    -3.247  0.1269  0.8235  0.5530
     5 H(1)   Bbb    -0.0074    -3.929    -1.402    -1.311  0.9919 -0.1031 -0.0740
              Bcc     0.0256    13.663     4.875     4.557  0.0039 -0.5579  0.8299
 
              Baa    -0.0100    -1.340    -0.478    -0.447  0.5090  0.2290  0.8298
     6 C(13)  Bbb     0.0039     0.518     0.185     0.173  0.7744  0.2991 -0.5575
              Bcc     0.0061     0.822     0.293     0.274 -0.3759  0.9263 -0.0251
 
              Baa    -0.0044    -2.357    -0.841    -0.786 -0.2498  0.4618  0.8511
     7 H(1)   Bbb    -0.0041    -2.204    -0.786    -0.735  0.9446  0.3094  0.1094
              Bcc     0.0085     4.561     1.627     1.521 -0.2128  0.8313 -0.5135
 
              Baa    -0.0053    -2.853    -1.018    -0.952 -0.0299 -0.0408  0.9987
     8 H(1)   Bbb    -0.0040    -2.157    -0.770    -0.720  0.8151  0.5774  0.0480
              Bcc     0.0094     5.010     1.788     1.671 -0.5786  0.8155  0.0160
 
              Baa    -0.0059    -3.123    -1.114    -1.042  0.3185 -0.2434  0.9161
     9 H(1)   Bbb    -0.0024    -1.270    -0.453    -0.424  0.9476  0.0577 -0.3141
              Bcc     0.0082     4.393     1.567     1.465  0.0236  0.9682  0.2490
 
              Baa    -0.0092    -1.239    -0.442    -0.413 -0.2416  0.8432 -0.4803
    10 C(13)  Bbb     0.0022     0.292     0.104     0.098 -0.5827  0.2698  0.7666
              Bcc     0.0071     0.946     0.338     0.316  0.7759  0.4651  0.4261
 
              Baa    -0.0045    -2.382    -0.850    -0.794  0.1005  0.9202 -0.3783
    11 H(1)   Bbb    -0.0042    -2.242    -0.800    -0.748  0.8296 -0.2874 -0.4787
              Bcc     0.0087     4.623     1.650     1.542  0.5493  0.2657  0.7923
 
              Baa    -0.0057    -3.053    -1.089    -1.018  0.2926 -0.4537  0.8417
    12 H(1)   Bbb    -0.0028    -1.507    -0.538    -0.503  0.7975 -0.3699 -0.4766
              Bcc     0.0085     4.560     1.627     1.521  0.5276  0.8107  0.2536
 
              Baa    -0.0053    -2.831    -1.010    -0.944 -0.2051 -0.3381  0.9185
    13 H(1)   Bbb    -0.0040    -2.154    -0.769    -0.719 -0.3320  0.9068  0.2597
              Bcc     0.0093     4.985     1.779     1.663  0.9207  0.2517  0.2983
 
              Baa    -1.2196    88.249    31.489    29.437  0.2589 -0.3203  0.9113
    14 O(17)  Bbb    -1.1901    86.116    30.728    28.725  0.5442  0.8278  0.1363
              Bcc     2.4097  -174.365   -62.218   -58.162  0.7980 -0.4607 -0.3886
 
              Baa    -0.3413    24.694     8.811     8.237  0.3855  0.9111  0.1458
    15 O(17)  Bbb    -0.2527    18.282     6.523     6.098  0.3138 -0.2780  0.9079
              Bcc     0.5939   -42.976   -15.335   -14.335  0.8677 -0.3042 -0.3931
 

 ---------------------------------------------------------------------------------

 Calling FoFJK, ICntrl=    100147 FMM=F ISym2X=0 I1Cent= 0 IOpClX= 1 NMat=1 NMatS=1 NMatT=0.
 ***** Axes restored to original set *****
 -------------------------------------------------------------------
 Center     Atomic                   Forces (Hartrees/Bohr)
 Number     Number              X              Y              Z
 -------------------------------------------------------------------
      1        6          -0.003563622    0.000501453    0.002814180
      2        1          -0.000009303   -0.000003557    0.000011771
      3        1          -0.000003537    0.000006467    0.000000414
      4        6           0.000009486    0.000034344    0.000007053
      5        1          -0.000005424   -0.000008480    0.000004579
      6        6          -0.000017112   -0.000024003   -0.000014666
      7        1           0.000006265   -0.000003030    0.000005827
      8        1           0.000004244   -0.000002727    0.000007502
      9        1           0.000004109    0.000008173    0.000004676
     10        6          -0.000007829   -0.000012181   -0.000009448
     11        1          -0.000000369    0.000002373    0.000002218
     12        1          -0.000000124    0.000001085   -0.000001251
     13        1          -0.000001772   -0.000000688    0.000000737
     14        8           0.003565035   -0.000513598   -0.002828251
     15        8           0.000019954    0.000014370   -0.000005342
 -------------------------------------------------------------------
 Cartesian Forces:  Max     0.003565035 RMS     0.000964328
 FormGI is forming the generalized inverse of G from B-inverse, IUseBI=4.

 GradGradGradGradGradGradGradGradGradGradGradGradGradGradGradGradGradGrad
 Berny optimization.
 Internal  Forces:  Max     0.004590387 RMS     0.000597658
 Search for a saddle point.
 Step number   1 out of a maximum of   69
 All quantities printed in internal units (Hartrees-Bohrs-Radians)
 Swapping is turned off.
 Second derivative matrix not updated -- analytic derivatives used.
 ITU=  0
     Eigenvalues ---   -0.03607   0.00104   0.00159   0.00233   0.01215
     Eigenvalues ---    0.01256   0.01935   0.04038   0.05085   0.05521
     Eigenvalues ---    0.05530   0.05692   0.05848   0.07829   0.08458
     Eigenvalues ---    0.09432   0.11887   0.12159   0.13187   0.13644
     Eigenvalues ---    0.13749   0.13981   0.14171   0.18408   0.20069
     Eigenvalues ---    0.21757   0.30953   0.31431   0.31966   0.32158
     Eigenvalues ---    0.33351   0.33450   0.34289   0.34512   0.35798
     Eigenvalues ---    0.36069   0.48188   0.494321000.000001000.00000
     Eigenvalues --- 1000.000001000.000001000.000001000.000001000.00000
     Eigenvalues --- 1000.000001000.000001000.000001000.000001000.00000
     Eigenvalues --- 1000.000001000.000001000.000001000.000001000.00000
     Eigenvalues --- 1000.000001000.000001000.000001000.00000
 Eigenvectors required to have negative eigenvalues:
                          R4        D1        D4        D2        D3
   1                    0.90984  -0.17604   0.17284  -0.15660   0.15340
                          R3        A3        A5        A6        A22
   1                   -0.14139  -0.11681  -0.10338  -0.07840   0.06055
 RFO step:  Lambda0=4.764145361D-04 Lambda=-6.84425813D-05.
 Linear search not attempted -- option 19 set.
 Iteration  1 RMS(Cart)=  0.01466728 RMS(Int)=  0.00019484
 Iteration  2 RMS(Cart)=  0.00013747 RMS(Int)=  0.00014810
 Iteration  3 RMS(Cart)=  0.00000005 RMS(Int)=  0.00014810
 Iteration  1 RMS(Cart)=  0.00000000 RMS(Int)=  0.00000000
 Variable       Old X    -DE/DX   Delta X   Delta X   Delta X     New X
                                 (Linear)    (Quad)   (Total)
    R1        2.04081   0.00000   0.00000   0.00075   0.00075   2.04156
    R2        2.04282  -0.00001   0.00000   0.00087   0.00087   2.04369
    R3        2.59085   0.00000   0.00000   0.01662   0.01662   2.60747
    R4        3.67862   0.00459   0.00000  -0.08905  -0.08905   3.58957
    R5        2.82810  -0.00002   0.00000  -0.00164  -0.00164   2.82646
    R6        2.82817   0.00002   0.00000  -0.00140  -0.00140   2.82678
    R7        1.82908  -0.00001   0.00000  -0.00061  -0.00061   1.82847
    R8        2.07194  -0.00000   0.00000   0.00061   0.00061   2.07255
    R9        2.06862  -0.00000   0.00000   0.00024   0.00024   2.06886
   R10        2.05661   0.00001   0.00000  -0.00005  -0.00005   2.05656
   R11        2.06989  -0.00000   0.00000   0.00055   0.00055   2.07044
   R12        2.05735  -0.00000   0.00000   0.00009   0.00009   2.05744
   R13        2.06819   0.00000   0.00000   0.00016   0.00016   2.06835
   R14        2.63687   0.00001   0.00000   0.00000   0.00000   2.63687
    A1        2.02269  -0.00000   0.00000  -0.00540  -0.00610   2.01659
    A2        2.09809   0.00000   0.00000  -0.00836  -0.00897   2.08913
    A3        1.62628   0.00001   0.00000   0.02276   0.02282   1.64910
    A4        2.09147  -0.00000   0.00000  -0.00907  -0.00964   2.08183
    A5        1.58656  -0.00000   0.00000   0.01961   0.01969   1.60625
    A6        1.84351  -0.00000   0.00000   0.01510   0.01518   1.85868
    A7        2.11665   0.00001   0.00000  -0.00163  -0.00166   2.11500
    A8        2.12133  -0.00001   0.00000  -0.00242  -0.00244   2.11889
    A9        2.04014  -0.00001   0.00000   0.00282   0.00279   2.04293
   A10        1.93654  -0.00000   0.00000   0.00074   0.00074   1.93728
   A11        1.93827  -0.00000   0.00000   0.00032   0.00032   1.93858
   A12        1.95589   0.00001   0.00000   0.00056   0.00056   1.95645
   A13        1.84839   0.00001   0.00000  -0.00084  -0.00084   1.84755
   A14        1.88788  -0.00000   0.00000  -0.00131  -0.00131   1.88656
   A15        1.89279  -0.00000   0.00000   0.00041   0.00041   1.89320
   A16        1.93719  -0.00000   0.00000   0.00071   0.00071   1.93790
   A17        1.95456   0.00000   0.00000   0.00050   0.00050   1.95506
   A18        1.93732   0.00000   0.00000   0.00052   0.00052   1.93784
   A19        1.88440   0.00000   0.00000  -0.00117  -0.00117   1.88323
   A20        1.85446   0.00000   0.00000  -0.00076  -0.00076   1.85370
   A21        1.89211  -0.00000   0.00000   0.00008   0.00008   1.89219
   A22        1.92033   0.00002   0.00000  -0.00851  -0.00851   1.91182
   A23        1.79775  -0.00002   0.00000   0.00019   0.00019   1.79794
    D1        0.26655   0.00001   0.00000   0.03832   0.03815   0.30470
    D2       -2.98636   0.00001   0.00000   0.02502   0.02487  -2.96150
    D3        2.99636  -0.00000   0.00000  -0.02611  -0.02596   2.97040
    D4       -0.25655  -0.00000   0.00000  -0.03941  -0.03924  -0.29579
    D5       -1.53580  -0.00001   0.00000   0.00379   0.00377  -1.53203
    D6        1.49447  -0.00001   0.00000  -0.00952  -0.00951   1.48497
    D7       -0.70511  -0.00000   0.00000  -0.01250  -0.01251  -0.71761
    D8       -2.72958  -0.00000   0.00000  -0.00946  -0.00949  -2.73907
    D9        1.43476   0.00000   0.00000  -0.00936  -0.00933   1.42542
   D10        2.00985  -0.00000   0.00000  -0.02038  -0.02039   1.98946
   D11       -2.22243   0.00000   0.00000  -0.02076  -0.02076  -2.24320
   D12       -0.10253  -0.00000   0.00000  -0.01961  -0.01962  -0.12215
   D13       -1.02539  -0.00000   0.00000  -0.00737  -0.00736  -1.03275
   D14        1.02552   0.00000   0.00000  -0.00774  -0.00773   1.01778
   D15       -3.13776  -0.00000   0.00000  -0.00660  -0.00659   3.13883
   D16       -1.98437  -0.00000   0.00000   0.01953   0.01954  -1.96484
   D17        0.12309  -0.00000   0.00000   0.01888   0.01889   0.14198
   D18        2.24054  -0.00000   0.00000   0.01970   0.01970   2.26024
   D19        1.05056  -0.00000   0.00000   0.00653   0.00653   1.05709
   D20       -3.12516  -0.00000   0.00000   0.00588   0.00588  -3.11928
   D21       -1.00772   0.00000   0.00000   0.00670   0.00669  -1.00102
   D22       -1.83052   0.00000   0.00000   0.00422   0.00422  -1.82630
         Item               Value     Threshold  Converged?
 Maximum Force            0.004590     0.000450     NO 
 RMS     Force            0.000603     0.000300     NO 
 Maximum Displacement     0.062012     0.001800     NO 
 RMS     Displacement     0.014642     0.001200     NO 
 Predicted change in Energy= 2.069533D-04
 GradGradGradGradGradGradGradGradGradGradGradGradGradGradGradGradGradGrad

                          Input orientation:                          
 ---------------------------------------------------------------------
 Center     Atomic      Atomic             Coordinates (Angstroms)
 Number     Number       Type             X           Y           Z
 ---------------------------------------------------------------------
      1          6           0        0.064803   -0.536868    0.994574
      2          1           0        0.602226    0.083792    1.696789
      3          1           0        0.044111   -1.592985    1.226465
      4          6           0       -0.953841    0.008538    0.240400
      5          1           0        1.954545    0.767429   -1.180305
      6          6           0       -1.088118    1.489064    0.075688
      7          1           0       -0.915988    1.785813   -0.966025
      8          1           0       -2.102705    1.821641    0.317724
      9          1           0       -0.387062    2.036025    0.703156
     10          6           0       -1.870026   -0.852051   -0.570529
     11          1           0       -1.718715   -0.686167   -1.642907
     12          1           0       -1.717845   -1.911491   -0.371031
     13          1           0       -2.918021   -0.609264   -0.368689
     14          8           0        1.545418   -0.753824   -0.175419
     15          8           0        2.221582    0.460143   -0.302529
 ---------------------------------------------------------------------
                    Distance matrix (angstroms):
                    1          2          3          4          5
     1  C    0.000000
     2  H    1.080346   0.000000
     3  H    1.081474   1.828737   0.000000
     4  C    1.379812   2.132622   2.129110   0.000000
     5  H    3.162659   3.251738   3.874772   3.324610   0.000000
     6  C    2.505589   2.731304   3.479261   1.495699   3.369878
     7  H    3.193860   3.506056   4.140661   2.148395   3.053355
     8  H    3.273955   3.498370   4.134525   2.147838   4.451599
     9  H    2.628475   2.403582   3.691811   2.155477   3.261883
    10  C    2.508476   3.482608   2.728019   1.495866   4.197842
    11  H    3.187402   4.139223   3.487573   2.148137   3.977408
    12  H    2.632926   3.693205   2.399568   2.155009   4.617140
    13  H    3.280391   4.139887   3.505203   2.147247   5.127953
    14  O    1.899520   2.257516   2.218873   2.645827   1.868526
    15  O    2.707066   2.600236   3.360735   3.253004   0.967587
                    6          7          8          9         10
     6  C    0.000000
     7  H    1.096748   0.000000
     8  H    1.094795   1.748598   0.000000
     9  H    1.088284   1.768767   1.771427   0.000000
    10  C    2.551430   2.832831   2.826970   3.487468   0.000000
    11  H    2.843035   2.685744   3.206340   3.832445   1.095631
    12  H    3.487103   3.829759   3.815597   4.302063   1.088748
    13  H    2.819396   3.178261   2.654279   3.814729   1.094523
    14  O    3.468301   3.623994   4.492774   3.505656   3.439625
    15  O    3.486523   3.470154   4.575790   3.209334   4.305221
                   11         12         13         14         15
    11  H    0.000000
    12  H    1.766094   0.000000
    13  H    1.751537   1.770939   0.000000
    14  O    3.579478   3.468046   4.469960   0.000000
    15  O    4.317010   4.598741   5.250098   1.395374   0.000000
 Stoichiometry    C4H9O2(2)
 Framework group  C1[X(C4H9O2)]
 Deg. of freedom    39
 Full point group                 C1      NOp   1
 Largest Abelian subgroup         C1      NOp   1
 Largest concise Abelian subgroup C1      NOp   1
                         Standard orientation:                         
 ---------------------------------------------------------------------
 Center     Atomic      Atomic             Coordinates (Angstroms)
 Number     Number       Type             X           Y           Z
 ---------------------------------------------------------------------
      1          6           0        0.074086   -0.537719    0.992920
      2          1           0        0.615215    0.082944    1.692280
      3          1           0        0.056268   -1.594093    1.223876
      4          6           0       -0.950112    0.007102    0.245878
      5          1           0        1.948060    0.771226   -1.192783
      6          6           0       -1.087381    1.487614    0.083526
      7          1           0       -0.922359    1.785628   -0.958977
      8          1           0       -2.100820    1.818618    0.332432
      9          1           0       -0.383007    2.034868    0.707011
     10          6           0       -1.870382   -0.853878   -0.559994
     11          1           0       -1.726205   -0.686725   -1.633157
     12          1           0       -1.715534   -1.913317   -0.362548
     13          1           0       -2.917370   -0.612668   -0.351157
     14          8           0        1.547408   -0.751564   -0.186812
     15          8           0        2.221152    0.463415   -0.317057
 ---------------------------------------------------------------------
 Rotational constants (GHZ):           5.1329950           2.1340423           1.8203383
 Standard basis: CC-pVTZ+d (5D, 7F)
 There are   345 symmetry adapted cartesian basis functions of A   symmetry.
 There are   306 symmetry adapted basis functions of A   symmetry.
   306 basis functions,   465 primitive gaussians,   345 cartesian basis functions
    25 alpha electrons       24 beta electrons
       nuclear repulsion energy       242.4659395902 Hartrees.
 NAtoms=   15 NActive=   15 NUniq=   15 SFac= 1.00D+00 NAtFMM=   60 NAOKFM=F Big=F
 Integral buffers will be    131072 words long.
 Raffenetti 2 integral format.
 Two-electron integral symmetry is turned on.
 One-electron integrals computed using PRISM.
 NBasis=   306 RedAO= T EigKep=  3.33D-04  NBF=   306
 NBsUse=   306 1.00D-06 EigRej= -1.00D+00 NBFU=   306
 Initial guess from the checkpoint file:  "QOOHisob-OOH-Elim-TS4-b3lyp-c-N2.chk"
 B after Tr=    -0.000000    0.000000   -0.000000
         Rot=    0.999995   -0.000529   -0.002871   -0.000757 Ang=  -0.35 deg.
 Initial guess <Sx>= 0.0000 <Sy>= 0.0000 <Sz>= 0.5000 <S**2>= 0.7743 S= 0.5121
 ExpMin= 1.03D-01 ExpMax= 1.53D+04 ExpMxC= 5.22D+02 IAcc=3 IRadAn=         5 AccDes= 0.00D+00
 Harris functional with IExCor=  402 and IRadAn=       5 diagonalized for initial guess.
 HarFok:  IExCor=  402 AccDes= 0.00D+00 IRadAn=         5 IDoV= 1 UseB2=F ITyADJ=14
 ICtDFT=  3500011 ScaDFX=  1.000000  1.000000  1.000000  1.000000
 FoFCou: FMM=F IPFlag=           0 FMFlag=      100000 FMFlg1=           0
         NFxFlg=           0 DoJE=T BraDBF=F KetDBF=T FulRan=T
         wScrn=  0.000000 ICntrl=       500 IOpCl=  0 I1Cent=   200000004 NGrid=           0
         NMat0=    1 NMatS0=      1 NMatT0=    0 NMatD0=    1 NMtDS0=    0 NMtDT0=    0
 Petite list used in FoFCou.
 Requested convergence on RMS density matrix=1.00D-08 within 128 cycles.
 Requested convergence on MAX density matrix=1.00D-06.
 Requested convergence on             energy=1.00D-06.
 No special actions if energy rises.
 Integral accuracy reduced to 1.0D-05 until final iterations.
 Initial convergence to 1.0D-05 achieved.  Increase integral accuracy.
 SCF Done:  E(UB3LYP) =  -308.243840499     A.U. after   16 cycles
            NFock= 16  Conv=0.38D-08     -V/T= 2.0064
 <Sx>= 0.0000 <Sy>= 0.0000 <Sz>= 0.5000 <S**2>= 0.7753 S= 0.5125
 <L.S>= 0.000000000000E+00
 Annihilation of the first spin contaminant:
 S**2 before annihilation     0.7753,   after     0.7501
 Calling FoFJK, ICntrl=      2127 FMM=F ISym2X=0 I1Cent= 0 IOpClX= 1 NMat=1 NMatS=1 NMatT=0.
 ***** Axes restored to original set *****
 -------------------------------------------------------------------
 Center     Atomic                   Forces (Hartrees/Bohr)
 Number     Number              X              Y              Z
 -------------------------------------------------------------------
      1        6           0.000950520   -0.000319868   -0.000105936
      2        1          -0.000005648    0.000023025    0.000066178
      3        1          -0.000035527   -0.000044884    0.000052211
      4        6          -0.000467156    0.000257090   -0.000321914
      5        1          -0.000006723    0.000003863   -0.000006144
      6        6          -0.000030001   -0.000000335    0.000003942
      7        1           0.000006008    0.000011574   -0.000002173
      8        1          -0.000003777    0.000008741   -0.000003765
      9        1           0.000002357    0.000003275    0.000001139
     10        6          -0.000007505    0.000013437    0.000009057
     11        1           0.000000232   -0.000008462   -0.000010596
     12        1          -0.000003052   -0.000006484   -0.000000520
     13        1          -0.000004207   -0.000002685   -0.000006405
     14        8          -0.002420042   -0.003542296    0.000709880
     15        8           0.002024521    0.003604011   -0.000384954
 -------------------------------------------------------------------
 Cartesian Forces:  Max     0.003604011 RMS     0.000913626

 GradGradGradGradGradGradGradGradGradGradGradGradGradGradGradGradGradGrad
 Berny optimization.
 FormGI is forming the generalized inverse of G from B-inverse, IUseBI=4.
 Internal  Forces:  Max     0.004152586 RMS     0.000551873
 Search for a saddle point.
 Step number   2 out of a maximum of   69
 All quantities printed in internal units (Hartrees-Bohrs-Radians)
 Swapping is turned off.
 Update second derivatives using D2CorX and points    1    2
 ITU=  0  0
     Eigenvalues ---   -0.04185   0.00106   0.00190   0.00240   0.01222
     Eigenvalues ---    0.01257   0.01935   0.04039   0.05123   0.05521
     Eigenvalues ---    0.05530   0.05692   0.05848   0.07827   0.08456
     Eigenvalues ---    0.09429   0.11887   0.12159   0.13186   0.13644
     Eigenvalues ---    0.13749   0.13981   0.14171   0.18407   0.20067
     Eigenvalues ---    0.21757   0.30953   0.31430   0.31966   0.32158
     Eigenvalues ---    0.33351   0.33450   0.34289   0.34512   0.35798
     Eigenvalues ---    0.36068   0.48014   0.494291000.000001000.00000
     Eigenvalues --- 1000.000001000.000001000.000001000.000001000.00000
     Eigenvalues --- 1000.000001000.000001000.000001000.000001000.00000
     Eigenvalues --- 1000.000001000.000001000.000001000.000001000.00000
     Eigenvalues --- 1000.000001000.000001000.000001000.00000
 Eigenvectors required to have negative eigenvalues:
                          R4        D1        D4        D2        R3
   1                    0.91207  -0.16943   0.16746  -0.15085  -0.15021
                          D3        A3        A5        A6        A4
   1                    0.14888  -0.11544  -0.10197  -0.07730   0.05892
 RFO step:  Lambda0=8.550847310D-06 Lambda=-1.19980391D-06.
 Linear search not attempted -- option 19 set.
 Iteration  1 RMS(Cart)=  0.00220883 RMS(Int)=  0.00000210
 Iteration  2 RMS(Cart)=  0.00000181 RMS(Int)=  0.00000161
 Iteration  3 RMS(Cart)=  0.00000000 RMS(Int)=  0.00000161
 Iteration  1 RMS(Cart)=  0.00000000 RMS(Int)=  0.00000000
 Variable       Old X    -DE/DX   Delta X   Delta X   Delta X     New X
                                 (Linear)    (Quad)   (Total)
    R1        2.04156   0.00005   0.00000   0.00004   0.00004   2.04159
    R2        2.04369   0.00006   0.00000   0.00001   0.00001   2.04370
    R3        2.60747   0.00066   0.00000  -0.00087  -0.00087   2.60660
    R4        3.58957  -0.00052   0.00000   0.01214   0.01214   3.60172
    R5        2.82646   0.00003   0.00000   0.00017   0.00017   2.82663
    R6        2.82678   0.00002   0.00000   0.00016   0.00016   2.82694
    R7        1.82847   0.00001   0.00000   0.00009   0.00009   1.82857
    R8        2.07255   0.00001   0.00000  -0.00003  -0.00003   2.07252
    R9        2.06886   0.00001   0.00000  -0.00004  -0.00004   2.06883
   R10        2.05656   0.00000   0.00000   0.00002   0.00002   2.05658
   R11        2.07044   0.00001   0.00000  -0.00002  -0.00002   2.07042
   R12        2.05744   0.00001   0.00000   0.00001   0.00001   2.05744
   R13        2.06835   0.00000   0.00000  -0.00003  -0.00003   2.06832
   R14        2.63687   0.00415   0.00000   0.00000  -0.00000   2.63687
    A1        2.01659  -0.00001   0.00000   0.00083   0.00082   2.01742
    A2        2.08913  -0.00001   0.00000   0.00093   0.00092   2.09005
    A3        1.64910   0.00003   0.00000  -0.00223  -0.00223   1.64687
    A4        2.08183  -0.00001   0.00000   0.00101   0.00101   2.08284
    A5        1.60625   0.00002   0.00000  -0.00225  -0.00224   1.60401
    A6        1.85868   0.00001   0.00000  -0.00156  -0.00156   1.85713
    A7        2.11500   0.00002   0.00000   0.00023   0.00023   2.11523
    A8        2.11889  -0.00001   0.00000   0.00014   0.00014   2.11903
    A9        2.04293  -0.00001   0.00000  -0.00022  -0.00022   2.04271
   A10        1.93728   0.00001   0.00000  -0.00002  -0.00002   1.93726
   A11        1.93858   0.00001   0.00000   0.00001   0.00001   1.93859
   A12        1.95645  -0.00000   0.00000  -0.00006  -0.00006   1.95639
   A13        1.84755  -0.00001   0.00000   0.00009   0.00009   1.84765
   A14        1.88656  -0.00001   0.00000  -0.00000  -0.00000   1.88656
   A15        1.89320  -0.00000   0.00000  -0.00001  -0.00001   1.89319
   A16        1.93790   0.00001   0.00000  -0.00006  -0.00006   1.93785
   A17        1.95506   0.00000   0.00000  -0.00005  -0.00005   1.95501
   A18        1.93784   0.00001   0.00000   0.00002   0.00002   1.93786
   A19        1.88323  -0.00001   0.00000   0.00002   0.00002   1.88325
   A20        1.85370  -0.00001   0.00000   0.00007   0.00007   1.85377
   A21        1.89219  -0.00001   0.00000   0.00000   0.00000   1.89220
   A22        1.91182   0.00003   0.00000   0.00135   0.00135   1.91317
   A23        1.79794  -0.00000   0.00000  -0.00005  -0.00005   1.79789
    D1        0.30470   0.00003   0.00000  -0.00434  -0.00434   0.30036
    D2       -2.96150   0.00003   0.00000  -0.00286  -0.00286  -2.96436
    D3        2.97040  -0.00004   0.00000   0.00236   0.00236   2.97276
    D4       -0.29579  -0.00004   0.00000   0.00383   0.00383  -0.29196
    D5       -1.53203  -0.00001   0.00000  -0.00095  -0.00095  -1.53298
    D6        1.48497  -0.00000   0.00000   0.00052   0.00052   1.48549
    D7       -0.71761  -0.00001   0.00000  -0.00052  -0.00052  -0.71814
    D8       -2.73907  -0.00000   0.00000  -0.00095  -0.00095  -2.74002
    D9        1.42542  -0.00000   0.00000  -0.00086  -0.00086   1.42456
   D10        1.98946  -0.00000   0.00000   0.00091   0.00091   1.99036
   D11       -2.24320  -0.00000   0.00000   0.00102   0.00102  -2.24218
   D12       -0.12215  -0.00000   0.00000   0.00096   0.00096  -0.12118
   D13       -1.03275  -0.00001   0.00000  -0.00053  -0.00053  -1.03328
   D14        1.01778  -0.00000   0.00000  -0.00042  -0.00042   1.01736
   D15        3.13883  -0.00000   0.00000  -0.00048  -0.00048   3.13836
   D16       -1.96484   0.00000   0.00000  -0.00089  -0.00089  -1.96573
   D17        0.14198  -0.00000   0.00000  -0.00095  -0.00095   0.14103
   D18        2.26024  -0.00000   0.00000  -0.00096  -0.00096   2.25928
   D19        1.05709   0.00001   0.00000   0.00055   0.00055   1.05764
   D20       -3.11928   0.00000   0.00000   0.00050   0.00050  -3.11878
   D21       -1.00102   0.00000   0.00000   0.00049   0.00049  -1.00054
   D22       -1.82630   0.00001   0.00000   0.00038   0.00038  -1.82592
         Item               Value     Threshold  Converged?
 Maximum Force            0.000664     0.000450     NO 
 RMS     Force            0.000112     0.000300     YES
 Maximum Displacement     0.006255     0.001800     NO 
 RMS     Displacement     0.002209     0.001200     NO 
 Predicted change in Energy= 3.676370D-06
 GradGradGradGradGradGradGradGradGradGradGradGradGradGradGradGradGradGrad

                          Input orientation:                          
 ---------------------------------------------------------------------
 Center     Atomic      Atomic             Coordinates (Angstroms)
 Number     Number       Type             X           Y           Z
 ---------------------------------------------------------------------
      1          6           0        0.062324   -0.536569    0.996965
      2          1           0        0.601352    0.084180    1.697898
      3          1           0        0.043553   -1.593113    1.227105
      4          6           0       -0.954583    0.008639    0.241143
      5          1           0        1.957513    0.766138   -1.183427
      6          6           0       -1.089257    1.489228    0.076517
      7          1           0       -0.916026    1.786201   -0.964933
      8          1           0       -2.104206    1.821382    0.317526
      9          1           0       -0.389079    2.036303    0.704886
     10          6           0       -1.870148   -0.851937   -0.570658
     11          1           0       -1.717740   -0.686105   -1.642877
     12          1           0       -1.718221   -1.911377   -0.370942
     13          1           0       -2.918299   -0.609067   -0.369812
     14          8           0        1.548290   -0.753828   -0.176633
     15          8           0        2.224892    0.459720   -0.305398
 ---------------------------------------------------------------------
                    Distance matrix (angstroms):
                    1          2          3          4          5
     1  C    0.000000
     2  H    1.080365   0.000000
     3  H    1.081482   1.829234   0.000000
     4  C    1.379354   2.132786   2.129321   0.000000
     5  H    3.169053   3.256727   3.878140   3.329190   0.000000
     6  C    2.505437   2.731519   3.479646   1.495789   3.375370
     7  H    3.193974   3.505707   4.140722   2.148449   3.057040
     8  H    3.273442   3.499049   4.135092   2.147907   4.456901
     9  H    2.628449   2.403708   3.692227   2.155521   3.268874
    10  C    2.508256   3.482955   2.728286   1.495952   4.200553
    11  H    3.187437   4.139119   3.487351   2.148164   3.978390
    12  H    2.632795   3.693612   2.399770   2.155052   4.619549
    13  H    3.279854   4.140526   3.505860   2.147325   5.130955
    14  O    1.905946   2.261154   2.222411   2.649578   1.868527
    15  O    2.713935   2.605784   3.364658   3.257490   0.967635
                    6          7          8          9         10
     6  C    0.000000
     7  H    1.096731   0.000000
     8  H    1.094776   1.748631   0.000000
     9  H    1.088295   1.768762   1.771412   0.000000
    10  C    2.551408   2.832944   2.826710   3.487479   0.000000
    11  H    2.843129   2.686010   3.206248   3.832601   1.095620
    12  H    3.487109   3.829937   3.815293   4.302115   1.088751
    13  H    2.819122   3.178140   2.653726   3.814434   1.094506
    14  O    3.471604   3.625743   4.496290   3.509316   3.442470
    15  O    3.491322   3.472737   4.580748   3.215452   4.308151
                   11         12         13         14         15
    11  H    0.000000
    12  H    1.766100   0.000000
    13  H    1.751563   1.770931   0.000000
    14  O    3.580699   3.470990   4.473107   0.000000
    15  O    4.318114   4.601580   5.253462   1.395374   0.000000
 Stoichiometry    C4H9O2(2)
 Framework group  C1[X(C4H9O2)]
 Deg. of freedom    39
 Full point group                 C1      NOp   1
 Largest Abelian subgroup         C1      NOp   1
 Largest concise Abelian subgroup C1      NOp   1
                         Standard orientation:                         
 ---------------------------------------------------------------------
 Center     Atomic      Atomic             Coordinates (Angstroms)
[...]
 ! D18   D(1,4,10,13)          129.4471         -DE/DX =    0.0                 !
 ! D19   D(6,4,10,11)           60.5983         -DE/DX =    0.0                 !
 ! D20   D(6,4,10,12)         -178.693          -DE/DX =    0.0                 !
 ! D21   D(6,4,10,13)          -57.3266         -DE/DX =    0.0                 !
 ! D22   D(1,14,15,5)         -104.6176         -DE/DX =    0.0                 !
 --------------------------------------------------------------------------------
 GradGradGradGradGradGradGradGradGradGradGradGradGradGradGradGradGradGrad


 ----------------------------------------------------------------------

 Electric dipole moment (input orientation):
 (Debye = 10**-18 statcoulomb cm , SI units = C m)
                  (au)            (Debye)         (10**-30 SI)
   Tot        0.105434D+01      0.267987D+01      0.893907D+01
   x         -0.920335D+00     -0.233926D+01     -0.780293D+01
   y          0.423345D+00      0.107604D+01      0.358927D+01
   z         -0.292225D+00     -0.742761D+00     -0.247759D+01

 Dipole polarizability, Alpha (input orientation).
 (esu units = cm**3 , SI units = C**2 m**2 J**-1)
 Alpha(0;0):
               (au)            (10**-24 esu)      (10**-40 SI)
   iso        0.696140D+02      0.103157D+02      0.114778D+02
   aniso      0.335629D+02      0.497350D+01      0.553377D+01
   xx         0.913984D+02      0.135438D+02      0.150696D+02
   yx        -0.784133D+00     -0.116197D+00     -0.129286D+00
   yy         0.616421D+02      0.913442D+01      0.101634D+02
   zx        -0.160620D+01     -0.238014D+00     -0.264826D+00
   zy        -0.280121D+01     -0.415096D+00     -0.461857D+00
   zz         0.558015D+02      0.826893D+01      0.920043D+01

 ----------------------------------------------------------------------

 Dipole orientation:
     6         -1.87529258          0.09717609         -1.03211400
     1         -2.29868450         -1.73917931         -1.81738032
     1         -2.81714955          1.67682652         -1.92336935
     6         -1.12098772          0.29780822          1.45488070
     1          3.84167234         -1.38223740         -2.02784390
     6         -0.18426224         -1.95215007          2.88668945
     1          1.81972190         -1.74211467          3.37174620
     1         -1.18327209         -2.15711383          4.68669275
     1         -0.40331657         -3.69536694          1.81770504
     6         -0.92612820          2.80955545          2.73735456
     1          1.04472971          3.27027117          3.17336850
     1         -1.68917513          4.32854755          1.57826483
     1         -1.93049959          2.79970626          4.54541376
     8          1.08071248          0.57578543         -3.03344432
     8          2.43824362         -1.68117637         -3.16127893

 Electric dipole moment (dipole orientation):
 (Debye = 10**-18 statcoulomb cm , SI units = C m)
                  (au)            (Debye)         (10**-30 SI)
   Tot        0.105434D+01      0.267987D+01      0.893907D+01
   x          0.000000D+00      0.000000D+00      0.000000D+00
   y          0.000000D+00      0.000000D+00      0.000000D+00
   z          0.105434D+01      0.267987D+01      0.893907D+01

 Dipole polarizability, Alpha (dipole orientation).
 (esu units = cm**3 , SI units = C**2 m**2 J**-1)
 Alpha(0;0):
               (au)            (10**-24 esu)      (10**-40 SI)
   iso        0.696140D+02      0.103157D+02      0.114778D+02
   aniso      0.335629D+02      0.497350D+01      0.553377D+01
   xx         0.643337D+02      0.953327D+01      0.106072D+02
   yx        -0.695827D+01     -0.103111D+01     -0.114726D+01
   yy         0.602459D+02      0.892752D+01      0.993321D+01
   zx        -0.116796D+02     -0.173074D+01     -0.192571D+01
   zy         0.505458D+01      0.749011D+00      0.833387D+00
   zz         0.842624D+02      0.124864D+02      0.138930D+02

 ----------------------------------------------------------------------
 1\1\GINC-CNODE0246\Freq\UB3LYP\CC-pVTZ+d\C4H9O2(2)\LMOSKALEVA\10-Apr-2
 022\0\\#N Geom=AllCheck Guess=TCheck SCRF=Check GenChk UB3LYP/CC-pVTZ+
 d Freq\\QOOHisob-OOH-Elim-TS4-b3lyp-c-N2\\0,2\C,0.0623235833,-0.536568
 5588,0.9969653133\H,0.601352195,0.084180408,1.6978983861\H,0.043553364
 1,-1.593112863,1.2271049279\C,-0.9545831041,0.008638866,0.2411429065\H
 ,1.9575129005,0.7661375768,-1.1834267383\C,-1.0892567536,1.4892284233,
 0.0765174032\H,-0.9160261512,1.7862006537,-0.9649327423\H,-2.104206400
 6,1.8213822,0.3175259258\H,-0.3890791413,2.0363027441,0.7048855633\C,-
 1.8701483838,-0.8519373741,-0.5706576051\H,-1.7177397977,-0.6861049949
 ,-1.6428772447\H,-1.7182212009,-1.9113765321,-0.3709423439\H,-2.918298
 7474,-0.609066858,-0.3698116931\O,1.548289603,-0.7538276039,-0.1766330
 477\O,2.2248920348,0.4597199129,-0.3053980111\\Version=ES64L-G16RevB.0
 1\State=2-A\HF=-308.2438372\S2=0.775353\S2-1=0.\S2A=0.75013\RMSD=1.199
 e-09\RMSF=7.586e-04\ZeroPoint=0.1231336\Thermal=0.1316066\Dipole=-0.92
 03353,0.4233453,-0.2922248\DipoleDeriv=-0.7211264,-0.0985,0.4888408,0.
 2182856,0.1102599,-0.1371591,0.0721433,0.0084443,0.0127837,0.0808743,-
 0.037558,-0.0778365,-0.045938,0.0106223,-0.0780397,-0.0622273,-0.02608
 89,0.0339914,0.1036226,-0.0108477,-0.0115868,-0.0082092,-0.0744791,0.0
 516039,-0.0375357,0.0050422,0.0827719,0.4966871,0.0365477,-0.0282007,-
 0.2369745,0.2651881,0.1615118,0.6025848,0.0678453,-0.2151752,0.2706729
 ,-0.0150211,-0.0822613,-0.0325784,0.2264125,0.0306692,-0.18717,0.04218
 13,0.174944,0.0413287,0.0269717,-0.038063,-0.0295647,-0.0720827,-0.021
 8405,-0.1368461,0.0186796,0.1154611,0.0709202,-0.0319412,0.0448697,0.0
 735976,-0.0002142,0.0182006,-0.0058003,0.078153,-0.1300397,-0.1102079,
 0.0762711,0.0354887,0.0702815,0.013164,0.0051932,0.0554584,-0.0228084,
 0.069138,-0.0051844,-0.0849421,-0.0746173,-0.0203954,-0.0095778,-0.029
 7285,-0.0535918,-0.0616526,-0.0014812,0.0383769,-0.054273,-0.0661311,0
 .0393916,0.0006748,-0.0259787,-0.1548529,-0.043851,0.0808538,0.0218881
 ,-0.0161309,0.0439594,-0.0692438,0.044123,0.0427112,-0.0616313,0.01556
 86,-0.1325137,0.0488372,0.0424445,-0.0223896,-0.0199429,-0.1265984,0.0
 078846,-0.012118,0.0476679,0.0491762,-0.1570634,0.0225676,0.0049286,0.
 0247481,0.0433023,-0.03325,0.0397188,-0.0212811,0.0549146,0.5406836,0.
 1518609,-0.4089711,0.9642499,-0.0767897,-0.2181913,-0.3677973,-0.11679
 11,-0.0343925,-0.7203096,-0.0074493,0.1919702,-0.9277072,-0.3540051,0.
 2264133,0.3096656,0.008891,-0.1604324\Polar=91.3983563,-0.7841331,61.6
 421371,-1.6061963,-2.8012087,55.8015064\Quadrupole=-2.8683179,0.823836
 5,2.0444814,1.4829185,-0.9554103,-1.438995\PG=C01 [X(C4H9O2)]\NImag=1\
 \0.23611386,0.04866210,0.66776231,0.33591755,-0.03743356,0.41099921,-0
 .10435753,-0.08592729,-0.10336048,0.12345224,-0.08476408,-0.15362597,-
 0.10654782,0.08787883,0.15412419,-0.11347783,-0.09918962,-0.16118407,0
 .10826721,0.11362902,0.16983530,-0.03428481,-0.01077704,-0.01007907,0.
 00122384,-0.01249307,0.00345859,0.04609729,-0.00686140,-0.32499756,0.0
 5672711,0.00122564,-0.01131406,0.00448464,0.00472003,0.34275213,-0.021
 53430,0.05695477,-0.05743792,0.00001913,-0.01804986,0.00739166,0.00764
 156,-0.06273950,0.05571345,-0.15850556,0.06481792,-0.17748591,-0.01398
 992,0.00680113,-0.00433211,-0.00132922,-0.00050276,0.00481353,0.447218
 42,0.04425954,-0.14545057,0.08041328,-0.01295447,0.00910007,-0.0131874
 2,0.02626168,-0.01140645,0.01424771,-0.03893550,0.53846170,-0.10544773
 ,0.05760016,-0.18593305,-0.01789483,0.00863231,-0.00448867,-0.00770741
 ,0.00132832,0.00259518,0.22974467,-0.03433321,0.36586038,0.00198504,-0
 .00245653,0.00133734,-0.00014027,-0.00005401,0.00025788,-0.00058777,0.
 00016855,0.00051533,-0.00089895,-0.00012660,0.00062111,0.06512040,0.00
 029764,-0.00099213,-0.00040051,-0.00006737,0.00001467,0.00012562,-0.00
 012153,0.00026026,0.00015658,0.00004741,0.00065863,-0.00048403,-0.0143
 8625,0.09037422,-0.00447404,0.00190733,-0.00041911,-0.00011715,-0.0000
 0716,-0.00010355,0.00033814,-0.00008808,-0.00018893,0.00152529,-0.0007
 1208,0.00179880,0.12876768,-0.13117554,0.41048119,-0.00019487,0.027357
 81,-0.00727333,-0.00156549,0.00066379,0.00178912,0.00016895,0.00068647
 ,-0.00520938,-0.07827009,0.00281849,-0.01013271,0.00003491,-0.00003075
 ,-0.00005687,0.54467230,0.00942973,-0.01885021,0.00487732,-0.00149526,
 0.00129864,-0.00100045,0.00034065,0.00123117,-0.00001104,0.00976198,-0
 .20652000,0.01127480,-0.00019755,0.00018635,-0.00028510,0.02190266,0.4
 8223019,-0.00599799,0.01892962,0.00390164,0.00312217,0.00110823,-0.001
 51024,-0.00533104,0.00164808,0.00260631,-0.01271361,0.00771043,-0.0761
 5022,0.00040877,-0.00025465,0.00010932,0.03416411,0.02580029,0.5270122
 3,-0.00091856,0.00106488,0.00002289,0.00049894,0.00006793,-0.00010281,
 -0.00037405,0.00033156,0.00032925,0.00019104,0.00283416,-0.00478286,-0
 .00042213,0.00017980,0.00032539,-0.04838235,-0.01364701,0.03630800,0.0
 5084593,-0.00229844,-0.00271606,-0.00066418,-0.00037471,-0.00000951,0.
 00031619,0.00148075,-0.00053263,-0.00062214,-0.00238109,-0.01251156,0.
 03289058,0.00045012,0.00009213,0.00011730,-0.01434451,-0.06017619,0.06
 137754,0.01092221,0.06784048,0.00176101,0.00076387,-0.00007791,0.00041
 566,-0.00006768,-0.00005691,-0.00040050,0.00027705,0.00026649,-0.00238
 906,0.00603218,-0.00238742,-0.00051688,0.00032938,-0.00006809,0.037224
 23,0.05537978,-0.26715640,-0.04206971,-0.06808851,0.29386951,0.0014971
 3,0.00046850,0.00067940,-0.00009944,-0.00000045,0.00039076,0.00005451,
 0.00013118,-0.00002377,-0.00216412,0.00506070,-0.00285723,0.00018460,-
 0.00010928,-0.00014790,-0.26174188,0.06384110,0.05181554,-0.00627972,0
 .00117778,0.00233611,0.28642693,-0.00148692,-0.00423683,-0.00022138,0.
 00040933,0.00008106,-0.00022186,-0.00009392,-0.00022529,0.00142028,0.0
 3148518,-0.01235058,-0.00480742,0.00025277,-0.00020154,-0.00000483,0.0
 6810791,-0.06601718,-0.02061427,-0.00748509,0.00257705,0.00150979,-0.0
 7619519,0.07390490,0.00045931,0.00124197,-0.00066844,-0.00020393,0.000
 00690,0.00031375,0.00002173,0.00027103,-0.00031271,-0.00573728,0.00367
 813,0.00040150,-0.00025765,0.00007167,0.00002623,0.05126080,-0.0202709
 8,-0.05411252,0.03030499,-0.00878314,-0.00883373,-0.05812394,0.0176094
 6,0.05813135,0.00004843,0.00120097,0.00061627,0.00047986,0.00002586,0.
 00002478,-0.00001767,-0.00002620,0.00025731,0.00161379,0.00167190,0.00
 288871,-0.00010267,0.00003986,0.00007825,-0.15943321,-0.08583450,-0.10
 111446,0.00402750,0.00398650,0.00369358,-0.01765894,-0.01437831,-0.017
 67680,0.16941773,-0.00183694,0.00178789,-0.00123121,0.00095188,0.00001
 992,0.00081571,-0.00013579,0.00046163,0.00018863,-0.02245347,-0.016380
 81,-0.02025739,0.00015981,-0.00003499,-0.00012779,-0.08267263,-0.11185
 621,-0.07421044,0.00653691,0.00401464,0.00429370,0.00562770,0.00473102
 ,0.00685832,0.09238053,0.12350819,0.00122356,0.00083082,0.00019575,0.0
 0005400,-0.00009556,0.00019573,0.00006868,-0.00001728,0.00012091,0.003
 31679,0.00236230,0.00128266,0.00021867,-0.00029377,-0.00028767,-0.1007
 5389,-0.07707886,-0.13777980,-0.02005416,-0.01482218,-0.01678086,0.005
 34037,0.00505832,0.00481890,0.11168530,0.08240739,0.14609582,-0.019490
 71,-0.01337697,-0.02094771,0.00164750,0.00185051,-0.00399025,-0.000930
 66,-0.00037633,0.00233622,-0.11990062,-0.04179916,-0.04658838,0.000051
 93,-0.00005477,0.00002543,0.00416225,-0.00185460,0.00140080,-0.0000047
 1,0.00059198,-0.00040463,0.00017068,0.00037046,-0.00010380,0.00089530,
 0.00219403,-0.00015584,0.50247283,0.00334610,0.01037925,0.00528204,0.0
 0253591,-0.00078002,0.00210944,0.00137742,0.00072857,0.00109716,-0.046
 33190,-0.13261219,-0.04108896,0.00005748,-0.00017336,0.00012605,-0.021
 40143,-0.02283006,-0.01924776,-0.00016592,0.00156057,-0.00032806,-0.00
 037439,0.00143468,-0.00023215,0.00071456,-0.00572826,0.00072007,-0.030
 57544,0.56099267,-0.02050953,-0.01000625,-0.00636454,-0.00476260,0.000
 87376,0.00307762,0.00307528,-0.00171011,-0.00179228,-0.04938874,-0.035
 80244,-0.10816339,0.00019312,0.00008807,-0.00007890,0.00233851,-0.0006
 9873,0.00433847,-0.00015942,0.00027772,0.00019430,-0.00034607,0.000465
 37,-0.00002650,-0.00007400,0.00212084,0.00110575,-0.00718987,-0.028881
 92,0.49508826,-0.00119132,-0.00195875,-0.00063280,-0.00122441,0.000022
 68,0.00043986,0.00045742,-0.00022154,-0.00036761,0.00059150,0.00313051
 ,-0.02356520,-0.00011151,-0.00015046,-0.00015847,0.00033471,0.00091686
 ,0.00017094,0.00014536,-0.00023796,0.00035377,-0.00002901,-0.00004002,
 0.00024372,-0.00013583,0.00022929,0.00016037,-0.04513030,-0.00620021,0
 .03568756,0.05205889,0.00030183,-0.00148456,-0.00026358,-0.00053338,0.
 00027608,0.00017205,-0.00013462,0.00019154,-0.00009663,0.00295067,0.00
 389415,-0.01863385,-0.00005299,0.00001689,-0.00008723,0.00031279,0.000
 74464,0.00019288,-0.00026950,-0.00034679,0.00027423,-0.00013015,-0.000
 01439,-0.00012040,-0.00003592,0.00020733,0.00035876,-0.00668978,-0.053
 97651,0.03640493,0.00888661,0.05331295,0.00147098,-0.00288545,-0.00111
 096,-0.00107063,0.00004814,0.00036660,0.00040961,-0.00012139,-0.000195
 79,-0.00417241,0.00075925,-0.01926292,-0.00020876,-0.00001527,-0.00023
 361,0.00002875,0.00092878,0.00054751,-0.00003197,-0.00086864,0.0004085
 4,0.00014956,0.00004425,-0.00001612,-0.00025242,0.00002622,0.00045007,
 0.03928323,0.04088475,-0.27989290,-0.03868994,-0.04153315,0.31022373,0
 .00088885,-0.00105494,0.00095874,0.00015087,0.00011825,0.00020308,-0.0
 0002150,0.00032152,-0.00037820,0.00282562,-0.02047211,0.00510665,0.000
 01250,-0.00004592,-0.00002306,-0.00210748,-0.00160676,-0.00287599,-0.0
 0006854,0.00042598,-0.00012431,0.00026230,-0.00026519,-0.00013596,0.00
 041020,-0.00119608,-0.00012433,-0.05415475,0.03995190,-0.00845683,-0.0
 0003354,-0.00549491,0.00097369,0.05521185,0.00231599,0.00074286,0.0012
 1002,0.00021989,0.00036254,-0.00013097,-0.00067251,0.00092064,-0.00046
 961,0.00325831,-0.01901320,0.00381270,0.00009226,-0.00008394,-0.000087
 05,-0.00318534,-0.00022788,-0.00275752,0.00005650,0.00031461,0.0000985
 8,0.00007340,0.00032873,0.00004418,0.00006445,-0.00111147,0.00010905,0
 .03703732,-0.29633634,0.04844784,0.00059681,-0.00392151,0.00119089,-0.
 04037379,0.32309372,0.00140160,-0.00104503,0.00039537,0.00022696,0.000
 06858,0.00006596,-0.00028712,0.00038834,-0.00005355,0.00349862,-0.0186
 1251,0.00262165,-0.00000997,0.00000643,-0.00000020,-0.00285812,-0.0014
 7388,-0.00136852,-0.00012776,-0.00033842,0.00027425,-0.00012290,0.0004
 2281,-0.00006570,-0.00014583,-0.00105872,0.00044650,-0.00808270,0.0511
 2594,-0.05699681,-0.00555985,0.03048510,-0.00501360,0.01172369,-0.0529
 2066,0.05915203,-0.00032698,-0.00314245,-0.00070523,0.00010809,0.00018
 601,-0.00078025,-0.00025511,-0.00001040,0.00040227,-0.02080052,0.00343
 083,-0.00148153,-0.00000128,0.00003285,-0.00006939,0.00072506,0.001022
 47,0.00009310,-0.00004139,0.00001393,0.00011324,0.00043237,-0.00090394
 ,-0.00004463,0.00040898,0.00003671,-0.00028181,-0.27237063,0.05609033,
 0.04847811,-0.00574154,0.00154551,0.00248883,-0.00311195,0.00104892,0.
 00068676,0.30167454,-0.00091215,-0.00154618,-0.00091040,0.00013275,0.0
 0040793,-0.00065838,-0.00003917,0.00025614,-0.00016408,-0.01740377,0.0
 0533194,0.00475004,-0.00003139,0.00000735,-0.00006948,0.00020397,0.000
 70338,0.00030134,-0.00013199,-0.00003821,-0.00014181,0.00018191,-0.000
 31842,-0.00025607,0.00021817,0.00025798,-0.00002702,0.05299450,-0.0623
 1410,-0.01159853,-0.00513329,0.00096295,0.00130694,0.02944682,-0.00548
 923,-0.00707403,-0.05947464,0.06162767,-0.00077600,-0.00229330,-0.0020
 4700,0.00001882,0.00017283,-0.00097239,-0.00033772,0.00004640,0.000365
 62,-0.02085196,0.00412722,0.00152071,-0.00010091,-0.00003153,-0.000061
 04,0.00024726,0.00083166,0.00031069,0.00024788,-0.00005930,-0.00005504
 ,0.00028595,-0.00022368,0.00018085,0.00006748,0.00022620,-0.00014850,0
 .04626170,-0.01084598,-0.04920395,0.03142734,-0.00756709,-0.00731063,-
 0.00704104,0.00104453,0.00041778,-0.04938964,0.01447769,0.05654332,0.1
 0140803,-0.01782841,-0.02026241,-0.00821001,-0.00035462,0.00999638,-0.
 00825046,0.00042556,0.00988963,-0.06202988,0.02867260,-0.02484896,0.00
 069084,-0.00317718,0.00777605,0.00181951,-0.00213116,0.00070451,0.0004
 6186,0.00005469,0.00047707,-0.00069291,-0.00008611,-0.00005249,0.00022
 972,0.00026288,-0.00056894,0.00278805,0.00046164,0.00199189,0.00037210
 ,-0.00031145,0.00010785,-0.00027410,-0.00043092,-0.00040487,-0.0004772
 9,0.00019234,-0.00005512,0.03666548,0.03710545,-0.03741591,-0.01030283
 ,0.00577235,-0.00097489,-0.00683028,-0.01135338,0.00100530,0.00970335,
 -0.00676786,0.00868878,-0.01862065,-0.01713499,-0.03481312,0.00171556,
 0.00037611,0.00096752,0.00244132,0.00004358,-0.00172294,0.00100251,-0.
 00012677,-0.00099372,-0.00024739,0.00015401,-0.00075043,-0.00083645,0.
 00012365,-0.00175539,0.00117331,0.00069213,0.00079401,0.00134244,0.000
 22218,0.00044686,-0.00013352,0.00069772,0.00064423,0.00024584,0.080432
 77,0.27472699,-0.07659090,0.00294185,-0.00050513,0.01652392,-0.0003907
 3,-0.01425929,0.00603408,0.00013012,-0.00674265,0.03587748,-0.01715952
 ,0.02159373,0.02408604,0.03645735,0.00719776,-0.00088656,0.00162655,-0
 .00094351,-0.00021209,-0.00035280,0.00008312,0.00058987,-0.00023394,0.
 00017907,-0.00012479,-0.00007613,0.00028368,-0.00185039,-0.00038056,-0
 .00165822,0.00025380,0.00027251,0.00071683,0.00013553,0.00031875,0.000
 22790,0.00033576,-0.00007879,0.00041349,0.00262754,-0.01660219,0.04170
 297,-0.02267101,-0.00704980,0.00121474,0.00202573,0.00005123,-0.002144
 43,-0.00195076,-0.00001189,0.00130903,0.00544852,-0.00385257,0.0069457
 0,-0.06581564,0.01754596,-0.13378936,-0.00022232,-0.00044859,-0.000154
 85,0.00032083,0.00053276,-0.00046957,-0.00036248,0.00030904,0.00004592
 ,-0.00018320,-0.00008484,-0.00012878,-0.00020616,0.00051394,-0.0008774
 0,-0.00036254,-0.00034473,-0.00048635,0.00000966,-0.00010129,0.0000615
 1,-0.00022236,-0.00024405,-0.00000404,-0.06450094,-0.09023696,-0.00679
 928,0.14869267,-0.04755844,0.01064365,0.00946568,0.00222590,0.00101936
 ,-0.00043369,0.00164050,0.00066860,-0.00161563,0.01565375,-0.00988990,
 0.01793661,0.03325933,-0.05531142,0.12877811,-0.00079534,-0.00088417,-
 0.00242511,-0.00033804,0.00165441,-0.00133502,0.00037397,0.00130051,0.
 00012847,-0.00018189,0.00087356,0.00132442,-0.00043542,0.00141049,-0.0
 0115386,-0.00053266,-0.00065678,-0.00110778,0.00002304,-0.00002641,0.0
 0015958,-0.00057386,-0.00049344,-0.00015151,-0.08618264,-0.20884727,-0
 .00647246,0.08342179,0.25853880,0.00657432,0.01168280,0.00025614,-0.00
 123825,0.00061904,0.00132850,0.00309518,-0.00062474,-0.00233580,-0.001
 70531,0.00047668,-0.00128894,-0.15531177,0.09542021,-0.41817219,0.0001
 1807,0.00009987,0.00019504,0.00000235,-0.00038001,0.00032014,0.0000342
 6,-0.00020291,-0.00001594,0.00007663,0.00002466,0.00000106,0.00000618,
 -0.00034007,0.00037309,0.00023652,0.00014147,0.00032323,0.00005835,0.0
 0008925,-0.00010307,0.00015442,0.00014257,0.00004608,0.01262189,0.0359
 4898,-0.04828976,0.13527716,-0.14309782,0.46736242\\0.00009569,-0.0000
 3024,-0.00002084,-0.00000319,0.00000401,0.00000938,-0.00000550,-0.0000
 0540,0.00000597,-0.00003867,0.00002146,-0.00002777,-0.00000039,0.00000
 033,-0.00000108,-0.00000205,-0.00000041,0.00000008,-0.00000066,0.00000
 107,-0.00000084,-0.00000086,0.00000112,-0.00000012,-0.00000002,0.00000
 034,-0.00000054,-0.00000040,0.00000129,0.00000186,-0.00000045,-0.00000
 058,-0.00000108,0.00000027,-0.00000080,-0.00000024,-0.00000099,-0.0000
 0119,-0.00000040,0.00170265,0.00314612,-0.00029531,-0.00174541,-0.0031
 3711,0.00033095\\\@


 IT WAS AN ACT OF DESPARATION. FOR SIX YEARS I HAD STRUGGLED WITH THE
 BLACKBODY THEORY. I KNEW THE PROBLEM WAS FUNDAMENTAL, AND I KNEW
 THE ANSWER. I HAD TO FIND A THEORETICAL EXPLANATION AT ANY COST,
 EXCEPT FOR THE INVIOLABLITY OF THE TWO LAWS OF THERMODYNAMICS.
   -- MAX PLANCK, 1931
 Job cpu time:       0 days  0 hours  0 minutes 26.3 seconds.
 Elapsed time:       0 days  0 hours  3 minutes 57.1 seconds.
 File lengths (MBytes):  RWF=    221 Int=      0 D2E=      0 Chk=     11 Scr=      1
 Normal termination of Gaussian 16 at Sun Apr 10 12:13:54 2022.
