 Entering Gaussian System, Link 0=g16
 Initial command:
 /apps/chpc/chem/gaussian16/B01/g16/l1.exe "/mnt/lustre/users/lmoskaleva/Kgalaletso/new/4116877.sched01/Gau-98505.inp" -scrdir="/mnt/lustre/users/lmoskaleva/Kgalaletso/new/4116877.sched01/"
 Entering Link 1 = /apps/chpc/chem/gaussian16/B01/g16/l1.exe PID=     98506.
  
 Copyright (c) 1988-2017, Gaussian, Inc.  All Rights Reserved.
  
 This is part of the Gaussian(R) 16 program.  It is based on
 the Gaussian(R) 09 system (copyright 2009, Gaussian, Inc.),
 the Gaussian(R) 03 system (copyright 2003, Gaussian, Inc.),
 the Gaussian(R) 98 system (copyright 1998, Gaussian, Inc.),
 the Gaussian(R) 94 system (copyright 1995, Gaussian, Inc.),
 the Gaussian 92(TM) system (copyright 1992, Gaussian, Inc.),
 the Gaussian 90(TM) system (copyright 1990, Gaussian, Inc.),
 the Gaussian 88(TM) system (copyright 1988, Gaussian, Inc.),
 the Gaussian 86(TM) system (copyright 1986, Carnegie Mellon
 University), and the Gaussian 82(TM) system (copyright 1983,
 Carnegie Mellon University). Gaussian is a federally registered
 trademark of Gaussian, Inc.
  
 This software contains proprietary and confidential information,
 including trade secrets, belonging to Gaussian, Inc.
  
 This software is provided under written license and may be
 used, copied, transmitted, or stored only in accord with that
 written license.
  
 The following legend is applicable only to US Government
 contracts under FAR:
  
                    RESTRICTED RIGHTS LEGEND
  
 Use, reproduction and disclosure by the US Government is
 subject to restrictions as set forth in subparagraphs (a)
 and (c) of the Commercial Computer Software - Restricted
 Rights clause in FAR 52.227-19.
  
 Gaussian, Inc.
 340 Quinnipiac St., Bldg. 40, Wallingford CT 06492
  
  
 ---------------------------------------------------------------
 Warning -- This program may not be used in any manner that
 competes with the business of Gaussian, Inc. or will provide
 assistance to any competitor of Gaussian, Inc.  The licensee
 of this program is prohibited from giving any competitor of
 Gaussian, Inc. access to this program.  By using this program,
 the user acknowledges that Gaussian, Inc. is engaged in the
 business of creating and licensing software in the field of
 computational chemistry and represents and warrants to the
 licensee that it is not a competitor of Gaussian, Inc. and that
 it will not use this program in any manner prohibited above.
 ---------------------------------------------------------------
  

 Cite this work as:
 Gaussian 16, Revision B.01,
 M. J. Frisch, G. W. Trucks, H. B. Schlegel, G. E. Scuseria, 
 M. A. Robb, J. R. Cheeseman, G. Scalmani, V. Barone, 
 G. A. Petersson, H. Nakatsuji, X. Li, M. Caricato, A. V. Marenich, 
 J. Bloino, B. G. Janesko, R. Gomperts, B. Mennucci, H. P. Hratchian, 
 J. V. Ortiz, A. F. Izmaylov, J. L. Sonnenberg, D. Williams-Young, 
 F. Ding, F. Lipparini, F. Egidi, J. Goings, B. Peng, A. Petrone, 
 T. Henderson, D. Ranasinghe, V. G. Zakrzewski, J. Gao, N. Rega, 
 G. Zheng, W. Liang, M. Hada, M. Ehara, K. Toyota, R. Fukuda, 
 J. Hasegawa, M. Ishida, T. Nakajima, Y. Honda, O. Kitao, H. Nakai, 
 T. Vreven, K. Throssell, J. A. Montgomery, Jr., J. E. Peralta, 
 F. Ogliaro, M. J. Bearpark, J. J. Heyd, E. N. Brothers, K. N. Kudin, 
 V. N. Staroverov, T. A. Keith, R. Kobayashi, J. Normand, 
 K. Raghavachari, A. P. Rendell, J. C. Burant, S. S. Iyengar, 
 J. Tomasi, M. Cossi, J. M. Millam, M. Klene, C. Adamo, R. Cammi, 
 J. W. Ochterski, R. L. Martin, K. Morokuma, O. Farkas, 
 J. B. Foresman, and D. J. Fox, Gaussian, Inc., Wallingford CT, 2016.
 
 ******************************************
 Gaussian 16:  ES64L-G16RevB.01 20-Dec-2017
                 9-Apr-2022 
 ******************************************
 %nprocshared=24
 Will use up to   24 processors via shared memory.
 %lindaworkers=cnode0635.cm.cluster,cnode0644.cm.cluster
 %mem=20GB
 %chk=RisobO2-Concerted-OOH-Elim-TS2-b3lyp-c-N2.chk
 SetLPE:    new flags="-opt 'Tsnet.Node.lindarsharg: ssh'  -nodelist 'cnode0635.cm.cluster cnode0644.cm.cluster' -env GAUSS_MDEF=2684354560 -env GAUSS_EXEDIR="/apps/chpc/chem/gaussian16/B01/g16/bsd:/apps/chpc/chem/gaussian16/B01/g16""
 Will use up to    2 processors via Linda.
 ---------------------------------------------------
 # opt=(calcfc,ts,noeigentest) freq ub3lyp cc-pvtz+d
 ---------------------------------------------------
 1/5=1,10=4,11=1,18=20,26=3,38=1/1,3;
 2/9=110,12=2,17=6,18=5,40=1/2;
 3/5=16,6=1,7=9,11=2,25=1,30=1,71=2,74=-5,116=2,140=1/1,2,3;
 4//1;
 5/5=2,38=5/2;
 8/6=4,10=90,11=11/1;
 11/6=1,8=1,9=11,15=111,16=1/1,2,10;
 10/6=1,13=1/2;
 6/7=2,8=2,9=2,10=2,28=1/1;
 7/10=1,18=20,25=1/1,2,3,16;
 1/5=1,10=4,11=1,18=20,26=3/3(2);
 2/9=110/2;
 99//99;
 2/9=110/2;
 3/5=16,6=1,7=9,11=2,25=1,30=1,71=1,74=-5,116=2/1,2,3;
 4/5=5,16=3,69=1/1;
 5/5=2,38=5/2;
 7//1,2,3,16;
 1/5=1,11=1,18=20,26=3/3(-5);
 2/9=110/2;
 6/7=2,8=2,9=2,10=2,19=2,28=1/1;
 99/9=1/99;
 -----------------------------------------
 RisobO2-Concerted-OOH-Elim-TS2-b3lyp-c-N2
 -----------------------------------------
 Symbolic Z-matrix:
 Charge =  0 Multiplicity = 2
 C                     0.36514   0.00015   1.06412 
 H                     0.5114    0.89905   1.65774 
 H                     0.51141  -0.89855   1.65805 
 C                    -0.61916   0.00001   0.01895 
 H                     0.41779  -0.0001   -0.84916 
 C                    -1.42976   1.27834  -0.16417 
 H                    -1.86673   1.32613  -1.16428 
 H                    -2.25961   1.35173   0.54823 
 H                    -0.81254   2.17109  -0.041 
 C                    -1.42959  -1.27846  -0.16397 
 H                    -1.86656  -1.32647  -1.16406 
 H                    -0.81223  -2.17111  -0.04067 
 H                    -2.25942  -1.35187   0.54846 
 O                     1.82197   0.00007   0.27398 
 O                     1.56761  -0.00009  -0.98435 
 
 Add virtual bond connecting atoms O15        and H5         Dist= 2.19D+00.

 GradGradGradGradGradGradGradGradGradGradGradGradGradGradGradGradGradGrad
 Berny optimization.
 Initialization pass.
                           ----------------------------
                           !    Initial Parameters    !
                           ! (Angstroms and Degrees)  !
 --------------------------                            --------------------------
 ! Name  Definition              Value          Derivative Info.                !
 --------------------------------------------------------------------------------
 ! R1    R(1,2)                  1.0871         calculate D2E/DX2 analytically  !
 ! R2    R(1,3)                  1.0871         calculate D2E/DX2 analytically  !
 ! R3    R(1,4)                  1.4357         calculate D2E/DX2 analytically  !
 ! R4    R(1,14)                 1.6573         calculate D2E/DX2 analytically  !
 ! R5    R(4,6)                  1.5247         calculate D2E/DX2 analytically  !
 ! R6    R(4,10)                 1.5247         calculate D2E/DX2 analytically  !
 ! R7    R(5,15)                 1.1577         calculate D2E/DX2 analytically  !
 ! R8    R(6,7)                  1.0924         calculate D2E/DX2 analytically  !
 ! R9    R(6,8)                  1.0962         calculate D2E/DX2 analytically  !
 ! R10   R(6,9)                  1.0923         calculate D2E/DX2 analytically  !
 ! R11   R(10,11)                1.0924         calculate D2E/DX2 analytically  !
 ! R12   R(10,12)                1.0923         calculate D2E/DX2 analytically  !
 ! R13   R(10,13)                1.0962         calculate D2E/DX2 analytically  !
 ! R14   R(14,15)                1.2838         calculate D2E/DX2 analytically  !
 ! A1    A(2,1,3)              111.5392         calculate D2E/DX2 analytically  !
 ! A2    A(2,1,4)              119.3301         calculate D2E/DX2 analytically  !
 ! A3    A(2,1,14)              98.1705         calculate D2E/DX2 analytically  !
 ! A4    A(3,1,4)              119.3329         calculate D2E/DX2 analytically  !
 ! A5    A(3,1,14)              98.1732         calculate D2E/DX2 analytically  !
 ! A6    A(4,1,14)             104.8079         calculate D2E/DX2 analytically  !
 ! A7    A(1,4,6)              116.8618         calculate D2E/DX2 analytically  !
 ! A8    A(1,4,10)             116.8611         calculate D2E/DX2 analytically  !
 ! A9    A(6,4,10)             113.9546         calculate D2E/DX2 analytically  !
 ! A10   A(4,6,7)              111.0563         calculate D2E/DX2 analytically  !
 ! A11   A(4,6,8)              112.3691         calculate D2E/DX2 analytically  !
 ! A12   A(4,6,9)              111.7949         calculate D2E/DX2 analytically  !
 ! A13   A(7,6,8)              106.8117         calculate D2E/DX2 analytically  !
 ! A14   A(7,6,9)              107.0668         calculate D2E/DX2 analytically  !
 ! A15   A(8,6,9)              107.4441         calculate D2E/DX2 analytically  !
 ! A16   A(4,10,11)            111.0563         calculate D2E/DX2 analytically  !
 ! A17   A(4,10,12)            111.7946         calculate D2E/DX2 analytically  !
 ! A18   A(4,10,13)            112.3691         calculate D2E/DX2 analytically  !
 ! A19   A(11,10,12)           107.0671         calculate D2E/DX2 analytically  !
 ! A20   A(11,10,13)           106.8118         calculate D2E/DX2 analytically  !
 ! A21   A(12,10,13)           107.4439         calculate D2E/DX2 analytically  !
 ! A22   A(1,14,15)            107.0464         calculate D2E/DX2 analytically  !
 ! A23   A(5,15,14)             94.7217         calculate D2E/DX2 analytically  !
 ! D1    D(2,1,4,6)             -1.4846         calculate D2E/DX2 analytically  !
 ! D2    D(2,1,4,10)          -141.5423         calculate D2E/DX2 analytically  !
 ! D3    D(3,1,4,6)            141.5293         calculate D2E/DX2 analytically  !
 ! D4    D(3,1,4,10)             1.4717         calculate D2E/DX2 analytically  !
 ! D5    D(14,1,4,6)          -109.9753         calculate D2E/DX2 analytically  !
 ! D6    D(14,1,4,10)          109.967          calculate D2E/DX2 analytically  !
 ! D7    D(2,1,14,15)         -123.3546         calculate D2E/DX2 analytically  !
 ! D8    D(3,1,14,15)          123.3589         calculate D2E/DX2 analytically  !
 ! D9    D(4,1,14,15)            0.0            calculate D2E/DX2 analytically  !
 ! D10   D(1,4,6,7)            159.2132         calculate D2E/DX2 analytically  !
 ! D11   D(1,4,6,8)            -81.2107         calculate D2E/DX2 analytically  !
 ! D12   D(1,4,6,9)             39.6989         calculate D2E/DX2 analytically  !
 ! D13   D(10,4,6,7)           -59.5958         calculate D2E/DX2 analytically  !
 ! D14   D(10,4,6,8)            59.9803         calculate D2E/DX2 analytically  !
 ! D15   D(10,4,6,9)          -179.1101         calculate D2E/DX2 analytically  !
 ! D16   D(1,4,10,11)         -159.2139         calculate D2E/DX2 analytically  !
 ! D17   D(1,4,10,12)          -39.6993         calculate D2E/DX2 analytically  !
 ! D18   D(1,4,10,13)           81.2098         calculate D2E/DX2 analytically  !
 ! D19   D(6,4,10,11)           59.5949         calculate D2E/DX2 analytically  !
 ! D20   D(6,4,10,12)          179.1095         calculate D2E/DX2 analytically  !
 ! D21   D(6,4,10,13)          -59.9814         calculate D2E/DX2 analytically  !
 ! D22   D(1,14,15,5)           -0.0009         calculate D2E/DX2 analytically  !
 --------------------------------------------------------------------------------
 Trust Radius=3.00D-01 FncErr=1.00D-07 GrdErr=1.00D-06 EigMax=2.50D+02 EigMin=1.00D-04
 Number of steps in this run=     69 maximum allowed number of steps=    100.
 Search for a saddle point of order  1.
 GradGradGradGradGradGradGradGradGradGradGradGradGradGradGradGradGradGrad

                          Input orientation:                          
 ---------------------------------------------------------------------
 Center     Atomic      Atomic             Coordinates (Angstroms)
 Number     Number       Type             X           Y           Z
 ---------------------------------------------------------------------
      1          6           0        0.365144    0.000151    1.064121
      2          1           0        0.511396    0.899048    1.657742
      3          1           0        0.511405   -0.898550    1.658046
      4          6           0       -0.619157    0.000009    0.018950
      5          1           0        0.417794   -0.000101   -0.849155
      6          6           0       -1.429760    1.278335   -0.164169
      7          1           0       -1.866729    1.326132   -1.164275
      8          1           0       -2.259614    1.351733    0.548231
      9          1           0       -0.812539    2.171091   -0.041003
     10          6           0       -1.429585   -1.278460   -0.163966
     11          1           0       -1.866561   -1.326468   -1.164058
     12          1           0       -0.812233   -2.171110   -0.040669
     13          1           0       -2.259420   -1.351869    0.548461
     14          8           0        1.821969    0.000072    0.273981
     15          8           0        1.567612   -0.000086   -0.984349
 ---------------------------------------------------------------------
                    Distance matrix (angstroms):
                    1          2          3          4          5
     1  C    0.000000
     2  H    1.087102   0.000000
     3  H    1.087107   1.797598   0.000000
     4  C    1.435699   2.184505   2.184540   0.000000
     5  H    1.914000   2.664913   2.664964   1.352359   0.000000
     6  C    2.522723   2.689109   3.439101   1.524706   2.348842
     7  H    3.421291   3.715058   4.309319   2.171419   2.660308
     8  H    2.997044   3.019012   3.738183   2.190524   3.308875
     9  H    2.705775   2.501326   3.749972   2.180502   2.623148
    10  C    2.522716   3.439123   2.689145   1.524708   2.348722
    11  H    3.421287   4.309310   3.715119   2.171420   2.660205
    12  H    2.705763   3.749995   2.501411   2.180502   2.622956
    13  H    2.997032   3.738255   3.018965   2.190529   3.308789
    14  O    1.657305   2.107262   2.107305   2.454412   1.798094
    15  O    2.375323   2.984071   2.984135   2.405944   1.157739
                    6          7          8          9         10
     6  C    0.000000
     7  H    1.092446   0.000000
     8  H    1.096156   1.757183   0.000000
     9  H    1.092312   1.756990   1.764248   0.000000
    10  C    2.556795   2.824113   2.848524   3.506461   0.000000
    11  H    2.824105   2.652600   3.202996   3.821666   1.092445
    12  H    3.506460   3.821669   3.853847   4.342201   1.092314
    13  H    2.848535   3.203024   2.703602   3.853853   1.096160
    14  O    3.521317   4.175345   4.308308   3.428290   3.521228
    15  O    3.360252   3.685909   4.338649   3.356938   3.360128
                   11         12         13         14         15
    11  H    0.000000
    12  H    1.756995   0.000000
    13  H    1.757187   1.764251   0.000000
    14  O    4.175275   3.428127   4.308227   0.000000
    15  O    3.685801   3.356716   4.338548   1.283780   0.000000
 Stoichiometry    C4H9O2(2)
 Framework group  C1[X(C4H9O2)]
 Deg. of freedom    39
 Full point group                 C1      NOp   1
 Largest Abelian subgroup         C1      NOp   1
 Largest concise Abelian subgroup C1      NOp   1
                         Standard orientation:                         
 ---------------------------------------------------------------------
 Center     Atomic      Atomic             Coordinates (Angstroms)
 Number     Number       Type             X           Y           Z
 ---------------------------------------------------------------------
      1          6           0       -0.365144   -0.000151    1.064121
      2          1           0       -0.511396   -0.899048    1.657742
      3          1           0       -0.511405    0.898550    1.658046
      4          6           0        0.619157   -0.000009    0.018950
      5          1           0       -0.417794    0.000101   -0.849155
      6          6           0        1.429760   -1.278335   -0.164169
      7          1           0        1.866729   -1.326132   -1.164275
      8          1           0        2.259614   -1.351733    0.548231
      9          1           0        0.812539   -2.171091   -0.041003
     10          6           0        1.429585    1.278460   -0.163966
     11          1           0        1.866561    1.326468   -1.164058
     12          1           0        0.812233    2.171110   -0.040669
     13          1           0        2.259420    1.351869    0.548461
     14          8           0       -1.821969   -0.000072    0.273981
     15          8           0       -1.567612    0.000086   -0.984349
 ---------------------------------------------------------------------
 Rotational constants (GHZ):           5.1551219           2.4443677           2.2573514
 Standard basis: CC-pVTZ+d (5D, 7F)
 There are   345 symmetry adapted cartesian basis functions of A   symmetry.
 There are   306 symmetry adapted basis functions of A   symmetry.
   306 basis functions,   465 primitive gaussians,   345 cartesian basis functions
    25 alpha electrons       24 beta electrons
       nuclear repulsion energy       255.0819107106 Hartrees.
 NAtoms=   15 NActive=   15 NUniq=   15 SFac= 1.00D+00 NAtFMM=   60 NAOKFM=F Big=F
 Integral buffers will be    131072 words long.
 Raffenetti 2 integral format.
 Two-electron integral symmetry is turned on.
 One-electron integrals computed using PRISM.
 NBasis=   306 RedAO= T EigKep=  3.98D-04  NBF=   306
 NBsUse=   306 1.00D-06 EigRej= -1.00D+00 NBFU=   306
 ExpMin= 1.03D-01 ExpMax= 1.53D+04 ExpMxC= 5.22D+02 IAcc=3 IRadAn=         5 AccDes= 0.00D+00
 Harris functional with IExCor=  402 and IRadAn=       5 diagonalized for initial guess.
 HarFok:  IExCor=  402 AccDes= 0.00D+00 IRadAn=         5 IDoV= 1 UseB2=F ITyADJ=14
 ICtDFT=  3500011 ScaDFX=  1.000000  1.000000  1.000000  1.000000
 FoFCou: FMM=F IPFlag=           0 FMFlag=      100000 FMFlg1=           0
         NFxFlg=           0 DoJE=T BraDBF=F KetDBF=T FulRan=T
         wScrn=  0.000000 ICntrl=       500 IOpCl=  0 I1Cent=   200000004 NGrid=           0
         NMat0=    1 NMatS0=      1 NMatT0=    0 NMatD0=    1 NMtDS0=    0 NMtDT0=    0
 Petite list used in FoFCou.
 Initial guess <Sx>= 0.0000 <Sy>= 0.0000 <Sz>= 0.5000 <S**2>= 0.7500 S= 0.5000
 Requested convergence on RMS density matrix=1.00D-08 within 128 cycles.
 Requested convergence on MAX density matrix=1.00D-06.
 Requested convergence on             energy=1.00D-06.
 No special actions if energy rises.
 Integral accuracy reduced to 1.0D-05 until final iterations.
 Initial convergence to 1.0D-05 achieved.  Increase integral accuracy.
 SCF Done:  E(UB3LYP) =  -308.213413710     A.U. after   17 cycles
            NFock= 17  Conv=0.82D-08     -V/T= 2.0059
 <Sx>= 0.0000 <Sy>= 0.0000 <Sz>= 0.5000 <S**2>= 0.7546 S= 0.5023
 <L.S>= 0.000000000000E+00
 Annihilation of the first spin contaminant:
 S**2 before annihilation     0.7546,   after     0.7500
 DoSCS=F DFT=T ScalE2(SS,OS)=  1.000000  1.000000
 Range of M.O.s used for correlation:     1   306
 NBasis=   306 NAE=    25 NBE=    24 NFC=     0 NFV=     0
 NROrb=    306 NOA=    25 NOB=    24 NVA=   281 NVB=   282

 **** Warning!!: The largest alpha MO coefficient is  0.14153074D+02


 **** Warning!!: The largest beta MO coefficient is  0.14245549D+02


 **** Warning!!: The smallest beta delta epsilon is  0.81416048D-01

 Symmetrizing basis deriv contribution to polar:
 IMax=3 JMax=2 DiffMx= 0.00D+00
 G2DrvN: will do    16 centers at a time, making    1 passes.
 Calling FoFCou, ICntrl=  3107 FMM=F I1Cent=   0 AccDes= 0.00D+00.
 End of G2Drv F.D. properties file   721 does not exist.
 End of G2Drv F.D. properties file   722 does not exist.
 End of G2Drv F.D. properties file   788 does not exist.
          IDoAtm=111111111111111
          Differentiating once with respect to nuclear coordinates.
 Keep R1 and R2 ints in memory in canonical form, NReq=2234005254.
          There are    48 degrees of freedom in the 1st order CPHF.  IDoFFX=6 NUNeed=     0.
     42 vectors produced by pass  0 Test12= 2.87D-14 2.08D-09 XBig12= 2.30D-01 1.63D-01.
 AX will form    42 AO Fock derivatives at one time.
     42 vectors produced by pass  1 Test12= 2.87D-14 2.08D-09 XBig12= 2.53D-02 3.95D-02.
     42 vectors produced by pass  2 Test12= 2.87D-14 2.08D-09 XBig12= 1.13D-03 7.93D-03.
     42 vectors produced by pass  3 Test12= 2.87D-14 2.08D-09 XBig12= 1.27D-05 6.43D-04.
     42 vectors produced by pass  4 Test12= 2.87D-14 2.08D-09 XBig12= 1.04D-07 5.20D-05.
     42 vectors produced by pass  5 Test12= 2.87D-14 2.08D-09 XBig12= 1.39D-09 4.51D-06.
     26 vectors produced by pass  6 Test12= 2.87D-14 2.08D-09 XBig12= 3.82D-12 2.51D-07.
      6 vectors produced by pass  7 Test12= 2.87D-14 2.08D-09 XBig12= 1.35D-14 1.41D-08.
 InvSVY:  IOpt=1 It=  1 EMax= 1.55D-15
 Solved reduced A of dimension   284 with    42 vectors.
 End of Minotr F.D. properties file   721 does not exist.
 End of Minotr F.D. properties file   722 does not exist.
 End of Minotr F.D. properties file   788 does not exist.

 **********************************************************************

            Population analysis using the SCF Density.

 **********************************************************************

 Orbital symmetries:
 Alpha Orbitals:
       Occupied  (A) (A) (A) (A) (A) (A) (A) (A) (A) (A) (A) (A)
                 (A) (A) (A) (A) (A) (A) (A) (A) (A) (A) (A) (A)
                 (A)
       Virtual   (A) (A) (A) (A) (A) (A) (A) (A) (A) (A) (A) (A)
                 (A) (A) (A) (A) (A) (A) (A) (A) (A) (A) (A) (A)
                 (A) (A) (A) (A) (A) (A) (A) (A) (A) (A) (A) (A)
                 (A) (A) (A) (A) (A) (A) (A) (A) (A) (A) (A) (A)
                 (A) (A) (A) (A) (A) (A) (A) (A) (A) (A) (A) (A)
                 (A) (A) (A) (A) (A) (A) (A) (A) (A) (A) (A) (A)
                 (A) (A) (A) (A) (A) (A) (A) (A) (A) (A) (A) (A)
                 (A) (A) (A) (A) (A) (A) (A) (A) (A) (A) (A) (A)
                 (A) (A) (A) (A) (A) (A) (A) (A) (A) (A) (A) (A)
                 (A) (A) (A) (A) (A) (A) (A) (A) (A) (A) (A) (A)
                 (A) (A) (A) (A) (A) (A) (A) (A) (A) (A) (A) (A)
                 (A) (A) (A) (A) (A) (A) (A) (A) (A) (A) (A) (A)
                 (A) (A) (A) (A) (A) (A) (A) (A) (A) (A) (A) (A)
                 (A) (A) (A) (A) (A) (A) (A) (A) (A) (A) (A) (A)
                 (A) (A) (A) (A) (A) (A) (A) (A) (A) (A) (A) (A)
                 (A) (A) (A) (A) (A) (A) (A) (A) (A) (A) (A) (A)
                 (A) (A) (A) (A) (A) (A) (A) (A) (A) (A) (A) (A)
                 (A) (A) (A) (A) (A) (A) (A) (A) (A) (A) (A) (A)
                 (A) (A) (A) (A) (A) (A) (A) (A) (A) (A) (A) (A)
                 (A) (A) (A) (A) (A) (A) (A) (A) (A) (A) (A) (A)
                 (A) (A) (A) (A) (A) (A) (A) (A) (A) (A) (A) (A)
                 (A) (A) (A) (A) (A) (A) (A) (A) (A) (A) (A) (A)
                 (A) (A) (A) (A) (A) (A) (A) (A) (A) (A) (A) (A)
                 (A) (A) (A) (A) (A)
 Beta  Orbitals:
       Occupied  (A) (A) (A) (A) (A) (A) (A) (A) (A) (A) (A) (A)
                 (A) (A) (A) (A) (A) (A) (A) (A) (A) (A) (A) (A)
       Virtual   (A) (A) (A) (A) (A) (A) (A) (A) (A) (A) (A) (A)
                 (A) (A) (A) (A) (A) (A) (A) (A) (A) (A) (A) (A)
                 (A) (A) (A) (A) (A) (A) (A) (A) (A) (A) (A) (A)
                 (A) (A) (A) (A) (A) (A) (A) (A) (A) (A) (A) (A)
                 (A) (A) (A) (A) (A) (A) (A) (A) (A) (A) (A) (A)
                 (A) (A) (A) (A) (A) (A) (A) (A) (A) (A) (A) (A)
                 (A) (A) (A) (A) (A) (A) (A) (A) (A) (A) (A) (A)
                 (A) (A) (A) (A) (A) (A) (A) (A) (A) (A) (A) (A)
                 (A) (A) (A) (A) (A) (A) (A) (A) (A) (A) (A) (A)
                 (A) (A) (A) (A) (A) (A) (A) (A) (A) (A) (A) (A)
                 (A) (A) (A) (A) (A) (A) (A) (A) (A) (A) (A) (A)
                 (A) (A) (A) (A) (A) (A) (A) (A) (A) (A) (A) (A)
                 (A) (A) (A) (A) (A) (A) (A) (A) (A) (A) (A) (A)
                 (A) (A) (A) (A) (A) (A) (A) (A) (A) (A) (A) (A)
                 (A) (A) (A) (A) (A) (A) (A) (A) (A) (A) (A) (A)
                 (A) (A) (A) (A) (A) (A) (A) (A) (A) (A) (A) (A)
                 (A) (A) (A) (A) (A) (A) (A) (A) (A) (A) (A) (A)
                 (A) (A) (A) (A) (A) (A) (A) (A) (A) (A) (A) (A)
                 (A) (A) (A) (A) (A) (A) (A) (A) (A) (A) (A) (A)
                 (A) (A) (A) (A) (A) (A) (A) (A) (A) (A) (A) (A)
                 (A) (A) (A) (A) (A) (A) (A) (A) (A) (A) (A) (A)
                 (A) (A) (A) (A) (A) (A) (A) (A) (A) (A) (A) (A)
                 (A) (A) (A) (A) (A) (A) (A) (A) (A) (A) (A) (A)
                 (A) (A) (A) (A) (A) (A)
 The electronic state is 2-A.
 Alpha  occ. eigenvalues --  -19.26990 -19.24406 -10.22444 -10.15975 -10.15975
 Alpha  occ. eigenvalues --  -10.15063  -1.24832  -0.88138  -0.80871  -0.69885
 Alpha  occ. eigenvalues --   -0.68403  -0.57187  -0.56090  -0.54407  -0.50605
 Alpha  occ. eigenvalues --   -0.45449  -0.43713  -0.42004  -0.38544  -0.37523
 Alpha  occ. eigenvalues --   -0.36614  -0.34814  -0.33833  -0.30690  -0.22586
 Alpha virt. eigenvalues --    0.01718   0.04140   0.07390   0.07513   0.09078
 Alpha virt. eigenvalues --    0.09284   0.10100   0.12057   0.13942   0.14619
 Alpha virt. eigenvalues --    0.15971   0.16833   0.21430   0.23037   0.25125
 Alpha virt. eigenvalues --    0.26035   0.28807   0.29686   0.30536   0.34708
 Alpha virt. eigenvalues --    0.35774   0.36903   0.40265   0.43005   0.43143
 Alpha virt. eigenvalues --    0.44176   0.45286   0.45807   0.46532   0.47176
 Alpha virt. eigenvalues --    0.47680   0.48445   0.49032   0.49868   0.50513
 Alpha virt. eigenvalues --    0.51377   0.55555   0.56086   0.59582   0.61552
 Alpha virt. eigenvalues --    0.64356   0.67685   0.71259   0.71701   0.73385
 Alpha virt. eigenvalues --    0.77350   0.77533   0.81643   0.82682   0.84314
 Alpha virt. eigenvalues --    0.88394   0.89778   0.91742   0.93525   0.93673
 Alpha virt. eigenvalues --    0.95670   0.98236   0.99299   1.00708   1.00839
 Alpha virt. eigenvalues --    1.04055   1.08365   1.09540   1.10542   1.11945
 Alpha virt. eigenvalues --    1.14464   1.14664   1.17131   1.19330   1.20952
 Alpha virt. eigenvalues --    1.22073   1.23946   1.25992   1.27293   1.28334
 Alpha virt. eigenvalues --    1.28814   1.30426   1.31112   1.31716   1.35159
 Alpha virt. eigenvalues --    1.36440   1.38096   1.39300   1.42478   1.45185
 Alpha virt. eigenvalues --    1.47018   1.48872   1.50674   1.51674   1.55363
 Alpha virt. eigenvalues --    1.58814   1.61018   1.67076   1.70505   1.76619
 Alpha virt. eigenvalues --    1.79835   1.81018   1.81590   1.84759   2.00904
 Alpha virt. eigenvalues --    2.01105   2.08380   2.15644   2.20403   2.22432
 Alpha virt. eigenvalues --    2.26055   2.27153   2.35020   2.35752   2.38295
 Alpha virt. eigenvalues --    2.38904   2.42167   2.46237   2.54291   2.54546
 Alpha virt. eigenvalues --    2.56684   2.58120   2.61090   2.62512   2.65149
 Alpha virt. eigenvalues --    2.67116   2.67755   2.76006   2.78774   2.79061
 Alpha virt. eigenvalues --    2.79117   2.81295   2.82263   2.85100   2.85281
 Alpha virt. eigenvalues --    2.89192   2.89950   2.93625   2.94597   2.96478
 Alpha virt. eigenvalues --    2.99169   2.99434   3.02036   3.03330   3.05809
 Alpha virt. eigenvalues --    3.07070   3.08668   3.09581   3.10713   3.10838
 Alpha virt. eigenvalues --    3.13575   3.13780   3.15009   3.21440   3.28597
 Alpha virt. eigenvalues --    3.29294   3.31900   3.32841   3.34097   3.34229
 Alpha virt. eigenvalues --    3.37029   3.37070   3.38856   3.41882   3.43777
 Alpha virt. eigenvalues --    3.45281   3.47021   3.47927   3.50609   3.53061
 Alpha virt. eigenvalues --    3.53862   3.56532   3.56903   3.60993   3.62470
 Alpha virt. eigenvalues --    3.66008   3.67360   3.68342   3.68832   3.71421
 Alpha virt. eigenvalues --    3.74938   3.77326   3.81789   3.82632   3.83228
 Alpha virt. eigenvalues --    3.83325   3.86784   3.87144   3.92651   3.92693
 Alpha virt. eigenvalues --    3.93019   3.97226   3.97529   3.98851   4.00778
 Alpha virt. eigenvalues --    4.04348   4.07286   4.08465   4.11050   4.12481
 Alpha virt. eigenvalues --    4.13664   4.15391   4.17909   4.18125   4.19166
 Alpha virt. eigenvalues --    4.20652   4.22916   4.25362   4.29330   4.31659
 Alpha virt. eigenvalues --    4.34552   4.36437   4.40178   4.43103   4.44481
 Alpha virt. eigenvalues --    4.46103   4.49881   4.55748   4.62245   4.62356
 Alpha virt. eigenvalues --    4.65721   4.66463   4.69705   4.75903   4.76568
 Alpha virt. eigenvalues --    4.77228   4.80027   4.80953   4.83752   4.86369
 Alpha virt. eigenvalues --    4.90350   4.93724   4.95148   4.98430   4.99408
 Alpha virt. eigenvalues --    5.03969   5.04631   5.09224   5.10162   5.12354
 Alpha virt. eigenvalues --    5.13908   5.18130   5.22952   5.23728   5.26917
 Alpha virt. eigenvalues --    5.30031   5.32010   5.34404   5.37095   5.38174
 Alpha virt. eigenvalues --    5.39296   5.39984   5.40775   5.45886   5.55151
 Alpha virt. eigenvalues --    5.58437   5.60715   5.67892   5.68363   5.85131
 Alpha virt. eigenvalues --    5.89793   5.91629   5.92289   5.98212   6.07053
 Alpha virt. eigenvalues --    6.08059   6.18069   6.29099   6.33650   6.35457
 Alpha virt. eigenvalues --    6.51079   6.55801   6.57915   6.61264   6.84750
 Alpha virt. eigenvalues --    6.94411   7.05752   7.37788   7.39534   7.55509
 Alpha virt. eigenvalues --    9.55413  10.31946  11.63416  12.76531  13.59259
 Alpha virt. eigenvalues --   13.63392
  Beta  occ. eigenvalues --  -19.25448 -19.22911 -10.22464 -10.15971 -10.15971
  Beta  occ. eigenvalues --  -10.15076  -1.21922  -0.84636  -0.80483  -0.69507
  Beta  occ. eigenvalues --   -0.68386  -0.56430  -0.55387  -0.49395  -0.48741
  Beta  occ. eigenvalues --   -0.43608  -0.42126  -0.41904  -0.38385  -0.37206
  Beta  occ. eigenvalues --   -0.36174  -0.33949  -0.33481  -0.22252
  Beta virt. eigenvalues --   -0.14111   0.02190   0.04252   0.07432   0.07598
  Beta virt. eigenvalues --    0.09139   0.09897   0.10217   0.12328   0.13983
  Beta virt. eigenvalues --    0.14639   0.16544   0.17199   0.21544   0.23054
  Beta virt. eigenvalues --    0.25376   0.26112   0.28991   0.29809   0.30614
  Beta virt. eigenvalues --    0.34971   0.35867   0.36990   0.40424   0.43251
  Beta virt. eigenvalues --    0.43300   0.44256   0.45408   0.46033   0.46565
  Beta virt. eigenvalues --    0.47232   0.47770   0.48624   0.49838   0.50021
  Beta virt. eigenvalues --    0.50602   0.51702   0.55678   0.56216   0.61763
  Beta virt. eigenvalues --    0.61775   0.64621   0.67772   0.71665   0.71958
  Beta virt. eigenvalues --    0.74206   0.77387   0.78398   0.81709   0.82800
  Beta virt. eigenvalues --    0.84566   0.88491   0.89852   0.91842   0.93623
  Beta virt. eigenvalues --    0.93717   0.95744   0.98429   0.99344   1.00918
  Beta virt. eigenvalues --    1.00937   1.04218   1.08584   1.09717   1.10926
  Beta virt. eigenvalues --    1.12025   1.14635   1.14775   1.17576   1.19466
  Beta virt. eigenvalues --    1.21361   1.22123   1.24007   1.26740   1.27401
  Beta virt. eigenvalues --    1.28666   1.28928   1.30523   1.31775   1.32043
  Beta virt. eigenvalues --    1.35523   1.36971   1.38398   1.39475   1.42976
  Beta virt. eigenvalues --    1.45274   1.47138   1.49053   1.50793   1.52002
  Beta virt. eigenvalues --    1.55825   1.58913   1.61428   1.67374   1.70630
  Beta virt. eigenvalues --    1.76837   1.80313   1.82371   1.83495   1.85796
  Beta virt. eigenvalues --    2.01380   2.03413   2.10799   2.16346   2.20534
  Beta virt. eigenvalues --    2.22811   2.26128   2.27380   2.35134   2.35966
  Beta virt. eigenvalues --    2.38921   2.39056   2.42292   2.46264   2.54463
  Beta virt. eigenvalues --    2.54592   2.56761   2.58166   2.61172   2.62604
  Beta virt. eigenvalues --    2.65175   2.67289   2.67852   2.76130   2.78835
  Beta virt. eigenvalues --    2.79122   2.79218   2.81322   2.82453   2.85262
  Beta virt. eigenvalues --    2.85340   2.89234   2.90082   2.93668   2.94760
  Beta virt. eigenvalues --    2.96515   2.99218   2.99499   3.02147   3.03342
  Beta virt. eigenvalues --    3.05956   3.07263   3.08698   3.09614   3.10779
  Beta virt. eigenvalues --    3.10857   3.13579   3.13837   3.15132   3.21536
  Beta virt. eigenvalues --    3.28656   3.29558   3.32465   3.32909   3.34122
  Beta virt. eigenvalues --    3.34370   3.37115   3.37389   3.38907   3.41941
  Beta virt. eigenvalues --    3.44767   3.45325   3.47673   3.47971   3.50657
  Beta virt. eigenvalues --    3.53669   3.54012   3.56593   3.57892   3.62302
  Beta virt. eigenvalues --    3.62675   3.66097   3.67817   3.68557   3.69055
  Beta virt. eigenvalues --    3.71506   3.76956   3.77385   3.82398   3.82712
  Beta virt. eigenvalues --    3.83519   3.83804   3.86947   3.87690   3.92770
  Beta virt. eigenvalues --    3.92813   3.93198   3.97583   3.97612   3.99644
  Beta virt. eigenvalues --    4.00871   4.04494   4.07382   4.09094   4.11163
  Beta virt. eigenvalues --    4.12782   4.13797   4.15862   4.18068   4.18226
  Beta virt. eigenvalues --    4.19278   4.20704   4.23257   4.25433   4.29427
  Beta virt. eigenvalues --    4.31708   4.34615   4.36517   4.40589   4.43180
  Beta virt. eigenvalues --    4.44654   4.46516   4.49927   4.56351   4.62625
  Beta virt. eigenvalues --    4.62849   4.67141   4.68592   4.70060   4.76422
  Beta virt. eigenvalues --    4.77426   4.78879   4.80230   4.81805   4.84050
  Beta virt. eigenvalues --    4.86686   4.91478   4.94216   4.96659   4.99700
  Beta virt. eigenvalues --    4.99805   5.04471   5.04839   5.09511   5.10551
  Beta virt. eigenvalues --    5.12421   5.14284   5.18407   5.23514   5.23822
  Beta virt. eigenvalues --    5.27003   5.30539   5.32290   5.36742   5.37380
  Beta virt. eigenvalues --    5.38758   5.39315   5.40053   5.41956   5.46562
  Beta virt. eigenvalues --    5.55240   5.59037   5.61080   5.69828   5.70203
  Beta virt. eigenvalues --    5.85730   5.89943   5.91887   5.92315   5.98347
  Beta virt. eigenvalues --    6.09267   6.09322   6.22917   6.31144   6.38565
  Beta virt. eigenvalues --    6.38723   6.55635   6.57687   6.61282   6.66090
  Beta virt. eigenvalues --    6.85713   6.96488   7.09256   7.38645   7.40496
  Beta virt. eigenvalues --    7.56410   9.58061  10.32043  11.65758  12.76559
  Beta virt. eigenvalues --   13.59295  13.63400
          Condensed to atoms (all electrons):
               1          2          3          4          5          6
     1  C    4.862626   0.407218   0.407215   0.456614   0.008302  -0.050544
     2  H    0.407218   0.572971  -0.031725  -0.038961   0.004285  -0.007594
     3  H    0.407215  -0.031725   0.572973  -0.038959   0.004286   0.005429
     4  C    0.456614  -0.038961  -0.038959   5.234172   0.318382   0.329588
     5  H    0.008302   0.004285   0.004286   0.318382   0.481806  -0.018829
     6  C   -0.050544  -0.007594   0.005429   0.329588  -0.018829   4.885665
     7  H    0.009039  -0.000155  -0.000528  -0.048379  -0.004661   0.408931
     8  H   -0.011271   0.002687   0.000583  -0.039442   0.003857   0.397135
     9  H   -0.004738   0.001664  -0.000122  -0.036446  -0.002559   0.395931
    10  C   -0.050543   0.005430  -0.007594   0.329578  -0.018833  -0.054429
    11  H    0.009039  -0.000528  -0.000155  -0.048379  -0.004662  -0.002699
    12  H   -0.004738  -0.000122   0.001662  -0.036446  -0.002560   0.008267
    13  H   -0.011270   0.000583   0.002688  -0.039440   0.003857  -0.004855
    14  O    0.122013  -0.026571  -0.026570  -0.035889  -0.075846   0.005280
    15  O   -0.060488  -0.000258  -0.000259  -0.178432   0.133496   0.004597
               7          8          9         10         11         12
     1  C    0.009039  -0.011271  -0.004738  -0.050543   0.009039  -0.004738
     2  H   -0.000155   0.002687   0.001664   0.005430  -0.000528  -0.000122
     3  H   -0.000528   0.000583  -0.000122  -0.007594  -0.000155   0.001662
     4  C   -0.048379  -0.039442  -0.036446   0.329578  -0.048379  -0.036446
     5  H   -0.004661   0.003857  -0.002559  -0.018833  -0.004662  -0.002560
     6  C    0.408931   0.397135   0.395931  -0.054429  -0.002699   0.008267
     7  H    0.610611  -0.041710  -0.029406  -0.002698   0.005047   0.000026
     8  H   -0.041710   0.638244  -0.034391  -0.004856  -0.002224  -0.000265
     9  H   -0.029406  -0.034391   0.615659   0.008267   0.000026  -0.000564
    10  C   -0.002698  -0.004856   0.008267   4.885680   0.408934   0.395931
    11  H    0.005047  -0.002224   0.000026   0.408934   0.610607  -0.029406
    12  H    0.000026  -0.000265  -0.000564   0.395931  -0.029406   0.615660
    13  H   -0.002224   0.009156  -0.000264   0.397129  -0.041708  -0.034392
    14  O   -0.000003  -0.000623   0.001528   0.005280  -0.000003   0.001529
    15  O    0.001747  -0.000678   0.001311   0.004599   0.001747   0.001312
              13         14         15
     1  C   -0.011270   0.122013  -0.060488
     2  H    0.000583  -0.026571  -0.000258
     3  H    0.002688  -0.026570  -0.000259
     4  C   -0.039440  -0.035889  -0.178432
     5  H    0.003857  -0.075846   0.133496
     6  C   -0.004855   0.005280   0.004597
     7  H   -0.002224  -0.000003   0.001747
     8  H    0.009156  -0.000623  -0.000678
     9  H   -0.000264   0.001528   0.001311
    10  C    0.397129   0.005280   0.004599
    11  H   -0.041708  -0.000003   0.001747
    12  H   -0.034392   0.001529   0.001312
    13  H    0.638247  -0.000624  -0.000678
    14  O   -0.000624   7.901977   0.164101
    15  O   -0.000678   0.164101   7.988886
          Atomic-Atomic Spin Densities.
               1          2          3          4          5          6
     1  C   -0.017687   0.002226   0.002224   0.002862   0.000168   0.000052
     2  H    0.002226   0.010527  -0.002124   0.001522   0.000111  -0.001563
     3  H    0.002224  -0.002124   0.010529   0.001523   0.000111   0.000593
     4  C    0.002862   0.001522   0.001523  -0.018601   0.005592   0.001219
     5  H    0.000168   0.000111   0.000111   0.005592  -0.004433   0.000183
     6  C    0.000052  -0.001563   0.000593   0.001219   0.000183   0.000683
     7  H    0.000014   0.000043  -0.000012   0.000511  -0.000216  -0.000848
     8  H   -0.000074   0.000239  -0.000120   0.000128   0.000108   0.000008
     9  H    0.000109   0.000313  -0.000050  -0.000394   0.000019   0.001053
    10  C    0.000053   0.000593  -0.001563   0.001219   0.000183  -0.000936
    11  H    0.000014  -0.000012   0.000043   0.000511  -0.000216   0.000296
    12  H    0.000109  -0.000050   0.000313  -0.000395   0.000019  -0.000099
    13  H   -0.000074  -0.000120   0.000239   0.000128   0.000108   0.000199
    14  O   -0.010273  -0.003713  -0.003713  -0.003864   0.000740   0.000548
    15  O    0.002847   0.001031   0.001031   0.002242  -0.008231   0.000269
               7          8          9         10         11         12
     1  C    0.000014  -0.000074   0.000109   0.000053   0.000014   0.000109
     2  H    0.000043   0.000239   0.000313   0.000593  -0.000012  -0.000050
     3  H   -0.000012  -0.000120  -0.000050  -0.001563   0.000043   0.000313
     4  C    0.000511   0.000128  -0.000394   0.001219   0.000511  -0.000395
     5  H   -0.000216   0.000108   0.000019   0.000183  -0.000216   0.000019
     6  C   -0.000848   0.000008   0.001053  -0.000936   0.000296  -0.000099
     7  H   -0.000103   0.000537   0.000088   0.000296  -0.000097  -0.000016
     8  H    0.000537  -0.000767  -0.000171   0.000199  -0.000040   0.000018
     9  H    0.000088  -0.000171  -0.000437  -0.000099  -0.000016   0.000010
    10  C    0.000296   0.000199  -0.000099   0.000684  -0.000848   0.001054
    11  H   -0.000097  -0.000040  -0.000016  -0.000848  -0.000104   0.000088
    12  H   -0.000016   0.000018   0.000010   0.001054   0.000088  -0.000437
    13  H   -0.000040  -0.000202   0.000018   0.000007   0.000537  -0.000171
    14  O   -0.000026  -0.000035  -0.000324   0.000548  -0.000026  -0.000324
    15  O    0.000107   0.000036  -0.000089   0.000269   0.000106  -0.000089
              13         14         15
     1  C   -0.000074  -0.010273   0.002847
     2  H   -0.000120  -0.003713   0.001031
     3  H    0.000239  -0.003713   0.001031
     4  C    0.000128  -0.003864   0.002242
     5  H    0.000108   0.000740  -0.008231
     6  C    0.000199   0.000548   0.000269
     7  H   -0.000040  -0.000026   0.000107
     8  H   -0.000202  -0.000035   0.000036
     9  H    0.000018  -0.000324  -0.000089
    10  C    0.000007   0.000548   0.000269
    11  H    0.000537  -0.000026   0.000106
    12  H   -0.000171  -0.000324  -0.000089
    13  H   -0.000764  -0.000035   0.000036
    14  O   -0.000035   0.675035  -0.155880
    15  O    0.000036  -0.155880   0.665011
 Mulliken charges and spin densities:
               1          2
     1  C   -0.088475  -0.017431
     2  H    0.111077   0.009023
     3  H    0.111076   0.009024
     4  C   -0.127563  -0.005798
     5  H    0.169678  -0.005751
     6  C   -0.301871   0.001659
     7  H    0.094364   0.000236
     8  H    0.083798  -0.000137
     9  H    0.084107   0.000031
    10  C   -0.301875   0.001659
    11  H    0.094365   0.000236
    12  H    0.084106   0.000031
    13  H    0.083796  -0.000136
    14  O   -0.035577   0.498658
    15  O   -0.061006   0.508694
 Sum of Mulliken charges =  -0.00000   1.00000
 Mulliken charges and spin densities with hydrogens summed into heavy atoms:
               1          2
     1  C    0.133677   0.000617
     4  C   -0.127563  -0.005798
     6  C   -0.039601   0.001789
    10  C   -0.039608   0.001790
    14  O   -0.035577   0.498658
    15  O    0.108672   0.502943
 APT charges:
               1
     1  C   -0.651054
     2  H    0.362469
     3  H    0.362480
     4  C   -0.032625
     5  H    0.140206
     6  C   -1.100377
     7  H    0.362636
     8  H    0.371322
     9  H    0.281900
    10  C   -1.100376
    11  H    0.362640
    12  H    0.281890
    13  H    0.371311
    14  O    0.051171
    15  O   -0.063595
 Sum of APT charges =  -0.00000
 APT charges with hydrogens summed into heavy atoms:
               1
     1  C    0.073895
     4  C   -0.032625
     6  C   -0.084518
    10  C   -0.084535
    14  O    0.051171
    15  O    0.076611
 Electronic spatial extent (au):  <R**2>=            643.7310
 Charge=             -0.0000 electrons
 Dipole moment (field-independent basis, Debye):
    X=              0.2742    Y=             -0.0001    Z=              1.0103  Tot=              1.0468
 Quadrupole moment (field-independent basis, Debye-Ang):
   XX=            -42.1212   YY=            -37.9982   ZZ=            -37.0307
   XY=              0.0000   XZ=             -1.4214   YZ=             -0.0002
 Traceless Quadrupole moment (field-independent basis, Debye-Ang):
   XX=             -3.0712   YY=              1.0518   ZZ=              2.0194
   XY=              0.0000   XZ=             -1.4214   YZ=             -0.0002
 Octapole moment (field-independent basis, Debye-Ang**2):
  XXX=            -11.3879  YYY=             -0.0013  ZZZ=             -0.9421  XYY=             -8.9277
  XXY=              0.0000  XXZ=              0.5851  XZZ=             -4.8094  YZZ=              0.0003
  YYZ=              0.4614  XYZ=             -0.0004
 Hexadecapole moment (field-independent basis, Debye-Ang**3):
 XXXX=           -478.7540 YYYY=           -232.4790 ZZZZ=           -145.9942 XXXY=              0.0000
 XXXZ=              3.4048 YYYX=             -0.0003 YYYZ=             -0.0018 ZZZX=             -0.2004
 ZZZY=             -0.0004 XXYY=           -118.5220 XXZZ=           -102.4043 YYZZ=            -62.2805
 XXYZ=             -0.0004 YYXZ=              0.7546 ZZXY=              0.0004
 N-N= 2.550819107106D+02 E-N=-1.230284825811D+03  KE= 3.064146658680D+02
  Exact polarizability:   0.000   0.000   0.000   0.000   0.000   0.000
 Approx polarizability:  92.690   0.001  73.139  -0.772  -0.004 100.123
                          Isotropic Fermi Contact Couplings
        Atom                 a.u.       MegaHertz       Gauss      10(-4) cm-1
     1  C(13)             -0.00528      -5.93082      -2.11627      -1.97831
     2  H(1)               0.00553      24.72829       8.82367       8.24847
     3  H(1)               0.00553      24.72880       8.82385       8.24864
     4  C(13)             -0.00328      -3.69260      -1.31761      -1.23172
     5  H(1)              -0.00324     -14.48887      -5.16999      -4.83297
     6  C(13)              0.00177       1.99351       0.71133       0.66496
     7  H(1)               0.00000       0.00952       0.00340       0.00317
     8  H(1)              -0.00012      -0.52323      -0.18670      -0.17453
     9  H(1)              -0.00003      -0.13446      -0.04798      -0.04485
    10  C(13)              0.00177       1.99475       0.71177       0.66538
    11  H(1)               0.00000       0.00887       0.00316       0.00296
    12  H(1)              -0.00003      -0.13427      -0.04791      -0.04479
    13  H(1)              -0.00012      -0.52200      -0.18626      -0.17412
    14  O(17)              0.04779     -28.97300     -10.33829      -9.66435
    15  O(17)              0.04405     -26.70163      -9.52781      -8.90671
 --------------------------------------------------------
       Center         ----  Spin Dipole Couplings  ----
                      3XX-RR        3YY-RR        3ZZ-RR
 --------------------------------------------------------
     1   Atom       -0.002087      0.012720     -0.010632
     2   Atom       -0.000135     -0.005673      0.005808
     3   Atom       -0.000136     -0.005677      0.005813
     4   Atom        0.012451     -0.002411     -0.010040
     5   Atom        0.068484     -0.029317     -0.039167
     6   Atom        0.006268     -0.002416     -0.003852
     7   Atom        0.003649     -0.001716     -0.001933
     8   Atom        0.002788     -0.001416     -0.001373
     9   Atom        0.002504      0.000671     -0.003175
    10   Atom        0.006268     -0.002415     -0.003853
    11   Atom        0.003649     -0.001716     -0.001933
    12   Atom        0.002503      0.000672     -0.003176
    13   Atom        0.002788     -0.001416     -0.001372
    14   Atom       -1.176260      2.424340     -1.248080
    15   Atom       -1.165310      2.398153     -1.232843
 --------------------------------------------------------
                        XY            XZ            YZ
 --------------------------------------------------------
     1   Atom       -0.000005      0.005912      0.000001
     2   Atom       -0.005556      0.010354     -0.008407
     3   Atom        0.005554      0.010355      0.008404
     4   Atom        0.000001     -0.002379      0.000002
     5   Atom        0.000005      0.000202      0.000002
     6   Atom       -0.004630      0.000225      0.000002
     7   Atom       -0.002137     -0.001093      0.000314
     8   Atom       -0.001437      0.001025     -0.000315
     9   Atom       -0.005102      0.000762     -0.000700
    10   Atom        0.004632      0.000226     -0.000002
    11   Atom        0.002138     -0.001093     -0.000314
    12   Atom        0.005102      0.000763      0.000701
    13   Atom        0.001437      0.001026      0.000315
    14   Atom       -0.000056      0.046549      0.000477
    15   Atom       -0.000232     -0.003398      0.000437
 --------------------------------------------------------


 ---------------------------------------------------------------------------------
              Anisotropic Spin Dipole Couplings in Principal Axis System
 ---------------------------------------------------------------------------------

       Atom             a.u.   MegaHertz   Gauss  10(-4) cm-1        Axes

              Baa    -0.0137    -1.832    -0.654    -0.611 -0.4551 -0.0001  0.8904
     1 C(13)  Bbb     0.0009     0.125     0.045     0.042  0.8904  0.0003  0.4551
              Bcc     0.0127     1.707     0.609     0.569 -0.0004  1.0000 -0.0000
 
              Baa    -0.0101    -5.397    -1.926    -1.800  0.0244  0.8905  0.4543
     2 H(1)   Bbb    -0.0078    -4.155    -1.483    -1.386  0.8375  0.2299 -0.4957
              Bcc     0.0179     9.552     3.408     3.186  0.5458 -0.3926  0.7402
 
              Baa    -0.0101    -5.396    -1.926    -1.800 -0.0248  0.8907 -0.4539
     3 H(1)   Bbb    -0.0078    -4.155    -1.483    -1.386  0.8375 -0.2294 -0.4959
              Bcc     0.0179     9.552     3.408     3.186  0.5458  0.3924  0.7403
 
              Baa    -0.0103    -1.381    -0.493    -0.461  0.1040 -0.0003  0.9946
     4 C(13)  Bbb    -0.0024    -0.323    -0.115    -0.108 -0.0000  1.0000  0.0003
              Bcc     0.0127     1.704     0.608     0.568  0.9946  0.0001 -0.1040
 
              Baa    -0.0392   -20.898    -7.457    -6.971 -0.0019 -0.0002  1.0000
     5 H(1)   Bbb    -0.0293   -15.642    -5.582    -5.218 -0.0001  1.0000  0.0002
              Bcc     0.0685    36.540    13.038    12.188  1.0000  0.0001  0.0019
 
              Baa    -0.0044    -0.595    -0.212    -0.199  0.3950  0.9055 -0.1554
     6 C(13)  Bbb    -0.0038    -0.515    -0.184    -0.172  0.0464  0.1493  0.9877
              Bcc     0.0083     1.111     0.396     0.370  0.9175 -0.3973  0.0170
 
              Baa    -0.0025    -1.321    -0.471    -0.441  0.3524  0.9186  0.1787
     7 H(1)   Bbb    -0.0021    -1.130    -0.403    -0.377  0.0997 -0.2267  0.9689
              Bcc     0.0046     2.451     0.875     0.818  0.9305 -0.3236 -0.1715
 
              Baa    -0.0019    -0.992    -0.354    -0.331  0.2966  0.9550 -0.0066
     8 H(1)   Bbb    -0.0016    -0.859    -0.307    -0.287 -0.2046  0.0703  0.9763
              Bcc     0.0035     1.851     0.661     0.618  0.9328 -0.2883  0.2163
 
              Baa    -0.0036    -1.922    -0.686    -0.641  0.6234  0.7681  0.1462
     9 H(1)   Bbb    -0.0033    -1.747    -0.623    -0.583 -0.1719 -0.0478  0.9840
              Bcc     0.0069     3.669     1.309     1.224  0.7627 -0.6386  0.1022
 
              Baa    -0.0044    -0.595    -0.212    -0.199 -0.3950  0.9054  0.1557
    10 C(13)  Bbb    -0.0038    -0.516    -0.184    -0.172  0.0464 -0.1496  0.9877
              Bcc     0.0083     1.111     0.396     0.371  0.9175  0.3974  0.0170
 
              Baa    -0.0025    -1.321    -0.471    -0.441 -0.3525  0.9187 -0.1784
    11 H(1)   Bbb    -0.0021    -1.130    -0.403    -0.377  0.0997  0.2264  0.9689
              Bcc     0.0046     2.451     0.875     0.818  0.9305  0.3237 -0.1714
 
              Baa    -0.0036    -1.923    -0.686    -0.641 -0.6235  0.7681 -0.1461
    12 H(1)   Bbb    -0.0033    -1.747    -0.624    -0.583 -0.1719  0.0476  0.9840
              Bcc     0.0069     3.670     1.310     1.224  0.7627  0.6386  0.1024
 
              Baa    -0.0019    -0.992    -0.354    -0.331 -0.2968  0.9549  0.0070
    13 H(1)   Bbb    -0.0016    -0.859    -0.307    -0.287 -0.2046 -0.0707  0.9763
              Bcc     0.0035     1.852     0.661     0.618  0.9328  0.2883  0.2163
 
              Baa    -1.2710    91.966    32.816    30.676 -0.4411 -0.0001  0.8974
    14 O(17)  Bbb    -1.1534    83.458    29.780    27.839  0.8974 -0.0000  0.4411
              Bcc     2.4243  -175.424   -62.595   -58.515 -0.0000  1.0000  0.0001
 
              Baa    -1.2330    89.220    31.836    29.761  0.0501 -0.0001  0.9987
    15 O(17)  Bbb    -1.1651    84.309    30.083    28.122  0.9987  0.0001 -0.0501
              Bcc     2.3982  -173.529   -61.919   -57.883 -0.0001  1.0000  0.0001
 

 ---------------------------------------------------------------------------------

 Calling FoFJK, ICntrl=    100147 FMM=F ISym2X=0 I1Cent= 0 IOpClX= 1 NMat=1 NMatS=1 NMatT=0.
 ***** Axes restored to original set *****
 -------------------------------------------------------------------
 Center     Atomic                   Forces (Hartrees/Bohr)
 Number     Number              X              Y              Z
 -------------------------------------------------------------------
      1        6          -0.021318800    0.000003360    0.011599046
      2        1          -0.000001877    0.000002074   -0.000000952
      3        1           0.000000390   -0.000000839   -0.000006584
      4        6          -0.000011671   -0.000006901   -0.000024698
      5        1          -0.066310620    0.000006886    0.007792250
      6        6           0.000001000   -0.000003876    0.000001946
      7        1           0.000002588   -0.000002255    0.000000385
      8        1           0.000000394    0.000000428    0.000000629
      9        1           0.000000969    0.000001776    0.000001078
     10        6          -0.000003315    0.000003372    0.000008167
     11        1           0.000002683    0.000002019    0.000000111
     12        1           0.000000027   -0.000000831    0.000000461
     13        1           0.000001308   -0.000000943   -0.000001140
     14        8           0.021316907   -0.000001547   -0.011597123
     15        8           0.066320014   -0.000002723   -0.007773574
 -------------------------------------------------------------------
 Cartesian Forces:  Max     0.066320014 RMS     0.014977408
 FormGI is forming the generalized inverse of G from B-inverse, IUseBI=4.

 GradGradGradGradGradGradGradGradGradGradGradGradGradGradGradGradGradGrad
 Berny optimization.
 Internal  Forces:  Max     0.066766850 RMS     0.009248622
 Search for a saddle point.
 Step number   1 out of a maximum of   69
 All quantities printed in internal units (Hartrees-Bohrs-Radians)
 Swapping is turned off.
 Second derivative matrix not updated -- analytic derivatives used.
 ITU=  0
     Eigenvalues ---   -0.05734  -0.00003   0.00264   0.00297   0.00792
     Eigenvalues ---    0.02008   0.04980   0.05853   0.05917   0.05927
     Eigenvalues ---    0.05937   0.06967   0.08391   0.09003   0.10645
     Eigenvalues ---    0.11674   0.12143   0.12509   0.13389   0.14396
     Eigenvalues ---    0.14833   0.17038   0.18427   0.29048   0.29107
     Eigenvalues ---    0.30691   0.31817   0.31967   0.32724   0.32905
     Eigenvalues ---    0.33724   0.33867   0.33986   0.34521   0.36253
     Eigenvalues ---    0.45151   0.56367   0.88361   2.00093
 Eigenvectors required to have negative eigenvalues:
                          R7        R4        R3        D3        D2
   1                   -0.68293   0.57540  -0.19509   0.14851  -0.14850
                          A23       A22       A3        A5        D12
   1                    0.13073  -0.12452  -0.11374  -0.11374  -0.07545
 RFO step:  Lambda0=1.402710807D-02 Lambda=-3.41839501D-02.
 Linear search not attempted -- option 19 set.
 Maximum step size (   0.300) exceeded in Quadratic search.
    -- Step size scaled by   0.476
 Iteration  1 RMS(Cart)=  0.03666866 RMS(Int)=  0.00994067
 Iteration  2 RMS(Cart)=  0.01513677 RMS(Int)=  0.00054015
 Iteration  3 RMS(Cart)=  0.00000294 RMS(Int)=  0.00054015
 Iteration  4 RMS(Cart)=  0.00000000 RMS(Int)=  0.00054015
 Variable       Old X    -DE/DX   Delta X   Delta X   Delta X     New X
                                 (Linear)    (Quad)   (Total)
    R1        2.05433   0.00000   0.00000  -0.00594  -0.00594   2.04838
    R2        2.05434  -0.00000   0.00000  -0.00595  -0.00595   2.04839
    R3        2.71308   0.00001   0.00000  -0.05134  -0.05134   2.66173
    R4        3.13185   0.02427   0.00000   0.27518   0.27518   3.40704
    R5        2.88128  -0.00001   0.00000   0.00026   0.00026   2.88154
    R6        2.88128  -0.00000   0.00000   0.00026   0.00026   2.88154
    R7        2.18781   0.06677   0.00000   0.04361   0.04361   2.23142
    R8        2.06442  -0.00000   0.00000  -0.00020  -0.00020   2.06423
    R9        2.07144   0.00000   0.00000  -0.00254  -0.00254   2.06889
   R10        2.06417   0.00000   0.00000  -0.00115  -0.00115   2.06302
   R11        2.06442  -0.00000   0.00000  -0.00020  -0.00020   2.06423
   R12        2.06417   0.00000   0.00000  -0.00115  -0.00115   2.06302
   R13        2.07144  -0.00000   0.00000  -0.00255  -0.00255   2.06890
   R14        2.42599  -0.00002   0.00000  -0.01924  -0.01924   2.40675
    A1        1.94673   0.00000   0.00000   0.02340   0.02094   1.96766
    A2        2.08270   0.00000   0.00000   0.02152   0.01949   2.10219
    A3        1.71340   0.00000   0.00000  -0.04231  -0.04201   1.67138
    A4        2.08275  -0.00001   0.00000   0.02151   0.01947   2.10223
    A5        1.71345   0.00000   0.00000  -0.04232  -0.04202   1.67143
    A6        1.82924  -0.00001   0.00000  -0.02582  -0.02548   1.80376
    A7        2.03962  -0.00000   0.00000   0.01572   0.01520   2.05483
    A8        2.03961  -0.00000   0.00000   0.01572   0.01520   2.05481
    A9        1.98888   0.00000   0.00000   0.00458   0.00391   1.99279
   A10        1.93830  -0.00000   0.00000   0.00421   0.00421   1.94251
   A11        1.96121   0.00000   0.00000  -0.00960  -0.00960   1.95161
   A12        1.95119   0.00000   0.00000  -0.00056  -0.00058   1.95061
   A13        1.86422   0.00000   0.00000   0.00141   0.00141   1.86563
   A14        1.86867   0.00000   0.00000   0.00252   0.00251   1.87118
   A15        1.87525  -0.00000   0.00000   0.00259   0.00258   1.87783
   A16        1.93830  -0.00000   0.00000   0.00421   0.00421   1.94251
   A17        1.95118   0.00000   0.00000  -0.00056  -0.00058   1.95061
   A18        1.96121   0.00000   0.00000  -0.00959  -0.00960   1.95161
   A19        1.86867   0.00000   0.00000   0.00252   0.00251   1.87118
   A20        1.86422   0.00000   0.00000   0.00140   0.00141   1.86563
   A21        1.87525  -0.00000   0.00000   0.00259   0.00258   1.87783
   A22        1.86831   0.00002   0.00000  -0.04691  -0.04691   1.82140
   A23        1.65321   0.00001   0.00000   0.01769   0.01769   1.67090
    D1       -0.02591   0.00000   0.00000  -0.03391  -0.03439  -0.06030
    D2       -2.47038   0.00000   0.00000  -0.08591  -0.08666  -2.55704
    D3        2.47015   0.00000   0.00000   0.08598   0.08672   2.55688
    D4        0.02569   0.00000   0.00000   0.03398   0.03445   0.06014
    D5       -1.91943   0.00000   0.00000   0.02602   0.02616  -1.89327
    D6        1.91929   0.00000   0.00000  -0.02597  -0.02611   1.89318
    D7       -2.15294   0.00001   0.00000   0.00288   0.00293  -2.15002
    D8        2.15302   0.00000   0.00000  -0.00284  -0.00288   2.15014
    D9        0.00000   0.00001   0.00000   0.00003   0.00003   0.00004
   D10        2.77880   0.00000   0.00000  -0.03074  -0.03072   2.74807
   D11       -1.41739   0.00000   0.00000  -0.03252  -0.03252  -1.44991
   D12        0.69288   0.00000   0.00000  -0.03641  -0.03639   0.65648
   D13       -1.04014  -0.00000   0.00000   0.02397   0.02396  -1.01618
   D14        1.04685  -0.00000   0.00000   0.02219   0.02217   1.06902
   D15       -3.12606  -0.00000   0.00000   0.01830   0.01829  -3.10777
   D16       -2.77881   0.00000   0.00000   0.03074   0.03073  -2.74808
   D17       -0.69288  -0.00000   0.00000   0.03641   0.03639  -0.65649
   D18        1.41738  -0.00000   0.00000   0.03252   0.03252   1.44990
   D19        1.04013   0.00000   0.00000  -0.02397  -0.02396   1.01617
   D20        3.12605   0.00000   0.00000  -0.01830  -0.01829   3.10776
   D21       -1.04687   0.00000   0.00000  -0.02218  -0.02216  -1.06904
   D22       -0.00001   0.00002   0.00000  -0.00003  -0.00003  -0.00004
         Item               Value     Threshold  Converged?
 Maximum Force            0.066767     0.000450     NO 
 RMS     Force            0.009249     0.000300     NO 
 Maximum Displacement     0.131984     0.001800     NO 
 RMS     Displacement     0.037885     0.001200     NO 
 Predicted change in Energy=-8.245505D-03
 GradGradGradGradGradGradGradGradGradGradGradGradGradGradGradGradGradGrad

                          Input orientation:                          
 ---------------------------------------------------------------------
 Center     Atomic      Atomic             Coordinates (Angstroms)
 Number     Number       Type             X           Y           Z
 ---------------------------------------------------------------------
      1          6           0        0.324173    0.000143    1.098923
      2          1           0        0.521110    0.902760    1.665900
      3          1           0        0.521132   -0.902302    1.666169
      4          6           0       -0.635497    0.000003    0.067912
      5          1           0        0.392402   -0.000068   -0.825402
      6          6           0       -1.432081    1.280068   -0.160211
      7          1           0       -1.833795    1.321833   -1.175147
      8          1           0       -2.284434    1.356070    0.522670
      9          1           0       -0.816272    2.170483   -0.019652
     10          6           0       -1.431925   -1.280203   -0.159984
     11          1           0       -1.833645   -1.322189   -1.174908
     12          1           0       -0.815999   -2.170515   -0.019280
     13          1           0       -2.284262   -1.356201    0.522921
     14          8           0        1.891812    0.000076    0.208390
     15          8           0        1.557003   -0.000030   -1.020412
 ---------------------------------------------------------------------
                    Distance matrix (angstroms):
                    1          2          3          4          5
     1  C    0.000000
     2  H    1.083957   0.000000
     3  H    1.083959   1.805062   0.000000
     4  C    1.408528   2.169395   2.169417   0.000000
     5  H    1.925535   2.652970   2.653022   1.361832   0.000000
     6  C    2.511585   2.700370   3.451586   1.524846   2.325933
     7  H    3.402218   3.713858   4.308774   2.174477   2.612604
     8  H    2.995903   3.063256   3.778761   2.182823   3.289659
     9  H    2.694847   2.497358   3.751353   2.179755   2.611784
    10  C    2.511577   3.451597   2.700385   1.524848   2.325875
    11  H    3.402212   4.308764   3.713892   2.174477   2.612555
    12  H    2.694834   3.751361   2.497403   2.179755   2.611686
    13  H    2.995895   3.778811   3.063214   2.182831   3.289621
    14  O    1.802926   2.194994   2.195033   2.531210   1.821251
    15  O    2.451826   3.017346   3.017423   2.447755   1.180815
                    6          7          8          9         10
     6  C    0.000000
     7  H    1.092343   0.000000
     8  H    1.094810   1.756938   0.000000
     9  H    1.091704   1.758046   1.764336   0.000000
    10  C    2.560271   2.821816   2.853546   3.507984   0.000000
    11  H    2.821808   2.644022   3.202819   3.816860   1.092342
    12  H    3.507983   3.816862   3.858343   4.340998   1.091705
    13  H    2.853559   3.202847   2.712271   3.858352   1.094812
    14  O    3.580854   4.188241   4.402104   3.477986   3.580788
    15  O    3.363513   3.642633   4.356231   3.368246   3.363462
                   11         12         13         14         15
    11  H    0.000000
    12  H    1.758049   0.000000
    13  H    1.756939   1.764338   0.000000
    14  O    4.188189   3.477864   4.402047   0.000000
    15  O    3.642591   3.368146   4.356191   1.273598   0.000000
 Stoichiometry    C4H9O2(2)
 Framework group  C1[X(C4H9O2)]
 Deg. of freedom    39
 Full point group                 C1      NOp   1
 Largest Abelian subgroup         C1      NOp   1
 Largest concise Abelian subgroup C1      NOp   1
                         Standard orientation:                         
 ---------------------------------------------------------------------
 Center     Atomic      Atomic             Coordinates (Angstroms)
 Number     Number       Type             X           Y           Z
 ---------------------------------------------------------------------
      1          6           0       -0.297021   -0.000057    1.111079
      2          1           0       -0.481123   -0.902631    1.682418
      3          1           0       -0.481102    0.902430    1.682567
      4          6           0        0.639123   -0.000006    0.058659
      5          1           0       -0.408686    0.000028   -0.811216
      6          6           0        1.430326   -1.280104   -0.187308
      7          1           0        1.809018   -1.321945   -1.211053
      8          1           0        2.297880   -1.356079    0.476157
      9          1           0        0.817830   -2.170496   -0.032820
     10          6           0        1.430228    1.280167   -0.187249
     11          1           0        1.808928    1.322077   -1.210987
     12          1           0        0.817654    2.170502   -0.032732
     13          1           0        2.297770    1.356192    0.476231
     14          8           0       -1.884369   -0.000014    0.256171
     15          8           0       -1.577394    0.000003   -0.979878
 ---------------------------------------------------------------------
 Rotational constants (GHZ):           5.0799852           2.3843335           2.2178520
 Standard basis: CC-pVTZ+d (5D, 7F)
 There are   345 symmetry adapted cartesian basis functions of A   symmetry.
 There are   306 symmetry adapted basis functions of A   symmetry.
   306 basis functions,   465 primitive gaussians,   345 cartesian basis functions
    25 alpha electrons       24 beta electrons
       nuclear repulsion energy       252.9776251193 Hartrees.
 NAtoms=   15 NActive=   15 NUniq=   15 SFac= 1.00D+00 NAtFMM=   60 NAOKFM=F Big=F
 Integral buffers will be    131072 words long.
 Raffenetti 2 integral format.
 Two-electron integral symmetry is turned on.
 One-electron integrals computed using PRISM.
 NBasis=   306 RedAO= T EigKep=  3.55D-04  NBF=   306
 NBsUse=   306 1.00D-06 EigRej= -1.00D+00 NBFU=   306
 Initial guess from the checkpoint file:  "RisobO2-Concerted-OOH-Elim-TS2-b3lyp-c-N2.chk"
 B after Tr=     0.000000   -0.000000   -0.000000
         Rot=    0.999985    0.000036   -0.005548    0.000008 Ang=   0.64 deg.
 Initial guess <Sx>= 0.0000 <Sy>= 0.0000 <Sz>= 0.5000 <S**2>= 0.7546 S= 0.5023
 ExpMin= 1.03D-01 ExpMax= 1.53D+04 ExpMxC= 5.22D+02 IAcc=3 IRadAn=         5 AccDes= 0.00D+00
 Harris functional with IExCor=  402 and IRadAn=       5 diagonalized for initial guess.
 HarFok:  IExCor=  402 AccDes= 0.00D+00 IRadAn=         5 IDoV= 1 UseB2=F ITyADJ=14
 ICtDFT=  3500011 ScaDFX=  1.000000  1.000000  1.000000  1.000000
 FoFCou: FMM=F IPFlag=           0 FMFlag=      100000 FMFlg1=           0
         NFxFlg=           0 DoJE=T BraDBF=F KetDBF=T FulRan=T
         wScrn=  0.000000 ICntrl=       500 IOpCl=  0 I1Cent=   200000004 NGrid=           0
         NMat0=    1 NMatS0=      1 NMatT0=    0 NMatD0=    1 NMtDS0=    0 NMtDT0=    0
 Petite list used in FoFCou.
 Requested convergence on RMS density matrix=1.00D-08 within 128 cycles.
 Requested convergence on MAX density matrix=1.00D-06.
 Requested convergence on             energy=1.00D-06.
 No special actions if energy rises.
 Integral accuracy reduced to 1.0D-05 until final iterations.
 Initial convergence to 1.0D-05 achieved.  Increase integral accuracy.
 SCF Done:  E(UB3LYP) =  -308.221861685     A.U. after   15 cycles
            NFock= 15  Conv=0.33D-08     -V/T= 2.0060
 <Sx>= 0.0000 <Sy>= 0.0000 <Sz>= 0.5000 <S**2>= 0.7550 S= 0.5025
 <L.S>= 0.000000000000E+00
 Annihilation of the first spin contaminant:
 S**2 before annihilation     0.7550,   after     0.7500
 Calling FoFJK, ICntrl=      2127 FMM=F ISym2X=0 I1Cent= 0 IOpClX= 1 NMat=1 NMatS=1 NMatT=0.
 ***** Axes restored to original set *****
 -------------------------------------------------------------------
 Center     Atomic                   Forces (Hartrees/Bohr)
 Number     Number              X              Y              Z
 -------------------------------------------------------------------
      1        6          -0.015911961    0.000003213    0.012880503
      2        1           0.000702937    0.000618604   -0.000730970
      3        1           0.000705103   -0.000618350   -0.000734687
      4        6          -0.003454434   -0.000005181    0.000248438
      5        1          -0.042452749    0.000003217    0.007048390
      6        6           0.000413831    0.000533667   -0.001076350
      7        1           0.000105805   -0.000096360    0.000023521
      8        1           0.000029219   -0.000156674    0.000032411
      9        1           0.000026723   -0.000086909    0.000175463
     10        6           0.000410752   -0.000533634   -0.001072566
     11        1           0.000105840    0.000096084    0.000023295
     12        1           0.000026217    0.000087372    0.000175017
     13        1           0.000029923    0.000156663    0.000031396
     14        8           0.016990255   -0.000000618   -0.007124296
     15        8           0.042272540   -0.000001096   -0.009899566
 -------------------------------------------------------------------
 Cartesian Forces:  Max     0.042452749 RMS     0.010015126

 GradGradGradGradGradGradGradGradGradGradGradGradGradGradGradGradGradGrad
 Berny optimization.
 FormGI is forming the generalized inverse of G from B-inverse, IUseBI=4.
 Internal  Forces:  Max     0.043033206 RMS     0.006183525
 Search for a saddle point.
 Step number   2 out of a maximum of   69
 All quantities printed in internal units (Hartrees-Bohrs-Radians)
 Swapping is turned off.
 Update second derivatives using D2CorX and points    1    2
 ITU=  0  0
     Eigenvalues ---   -0.06104  -0.00003   0.00264   0.00299   0.00792
     Eigenvalues ---    0.02041   0.05129   0.05853   0.05918   0.05928
     Eigenvalues ---    0.05937   0.06963   0.08401   0.08998   0.10335
     Eigenvalues ---    0.11674   0.12109   0.12503   0.13385   0.14395
     Eigenvalues ---    0.14829   0.17030   0.18418   0.29047   0.29104
     Eigenvalues ---    0.30696   0.31817   0.31967   0.32724   0.32904
     Eigenvalues ---    0.33724   0.33867   0.33986   0.34516   0.36250
     Eigenvalues ---    0.44981   0.56361   0.88316   1.99890
 Eigenvectors required to have negative eigenvalues:
                          R7        R4        R3        D2        D3
   1                   -0.67159   0.59743  -0.18444  -0.14844   0.14842
                          A23       A22       A3        A5        D12
   1                    0.13029  -0.12690  -0.10947  -0.10946  -0.07319
 RFO step:  Lambda0=4.514256242D-03 Lambda=-1.95713792D-02.
 Linear search not attempted -- option 19 set.
 Maximum step size (   0.300) exceeded in Quadratic search.
    -- Step size scaled by   0.640
 Iteration  1 RMS(Cart)=  0.04187384 RMS(Int)=  0.00904749
 Iteration  2 RMS(Cart)=  0.01344959 RMS(Int)=  0.00053944
 Iteration  3 RMS(Cart)=  0.00000508 RMS(Int)=  0.00053943
 Iteration  4 RMS(Cart)=  0.00000000 RMS(Int)=  0.00053943
 Variable       Old X    -DE/DX   Delta X   Delta X   Delta X     New X
                                 (Linear)    (Quad)   (Total)
    R1        2.04838   0.00026   0.00000  -0.00526  -0.00526   2.04312
    R2        2.04839   0.00026   0.00000  -0.00527  -0.00527   2.04312
    R3        2.66173   0.00263   0.00000  -0.02858  -0.02858   2.63315
    R4        3.40704   0.01954   0.00000   0.26805   0.26805   3.67508
    R5        2.88154  -0.00001   0.00000   0.00033   0.00033   2.88187
    R6        2.88154  -0.00001   0.00000   0.00033   0.00033   2.88187
    R7        2.23142   0.04303   0.00000   0.09655   0.09655   2.32797
    R8        2.06423  -0.00006   0.00000  -0.00076  -0.00076   2.06347
    R9        2.06889  -0.00001   0.00000  -0.00284  -0.00284   2.06606
   R10        2.06302  -0.00003   0.00000  -0.00146  -0.00146   2.06157
   R11        2.06423  -0.00006   0.00000  -0.00076  -0.00076   2.06347
   R12        2.06302  -0.00003   0.00000  -0.00146  -0.00146   2.06157
   R13        2.06890  -0.00002   0.00000  -0.00284  -0.00284   2.06606
   R14        2.40675   0.00280   0.00000  -0.01167  -0.01167   2.39508
    A1        1.96766   0.00051   0.00000   0.02663   0.02434   1.99200
    A2        2.10219   0.00003   0.00000   0.01424   0.01199   2.11418
    A3        1.67138  -0.00046   0.00000  -0.03766  -0.03749   1.63389
    A4        2.10223   0.00002   0.00000   0.01422   0.01197   2.11420
    A5        1.67143  -0.00046   0.00000  -0.03766  -0.03749   1.63393
    A6        1.80376  -0.00020   0.00000  -0.03518  -0.03501   1.76875
    A7        2.05483   0.00014   0.00000   0.01289   0.01240   2.06723
    A8        2.05481   0.00014   0.00000   0.01289   0.01241   2.06722
    A9        1.99279   0.00011   0.00000   0.00607   0.00550   1.99828
   A10        1.94251  -0.00009   0.00000   0.00132   0.00132   1.94383
   A11        1.95161  -0.00020   0.00000  -0.00973  -0.00974   1.94187
   A12        1.95061  -0.00008   0.00000  -0.00208  -0.00210   1.94852
   A13        1.86563   0.00014   0.00000   0.00329   0.00329   1.86892
   A14        1.87118   0.00016   0.00000   0.00475   0.00475   1.87593
   A15        1.87783   0.00010   0.00000   0.00329   0.00327   1.88110
   A16        1.94251  -0.00009   0.00000   0.00132   0.00132   1.94383
   A17        1.95061  -0.00008   0.00000  -0.00208  -0.00209   1.94851
   A18        1.95161  -0.00020   0.00000  -0.00973  -0.00974   1.94187
   A19        1.87118   0.00016   0.00000   0.00474   0.00474   1.87593
   A20        1.86563   0.00014   0.00000   0.00329   0.00329   1.86892
   A21        1.87783   0.00010   0.00000   0.00330   0.00327   1.88110
   A22        1.82140   0.00152   0.00000  -0.04013  -0.04013   1.78127
   A23        1.67090   0.00013   0.00000   0.00669   0.00669   1.67758
    D1       -0.06030  -0.00036   0.00000  -0.03797  -0.03832  -0.09862
    D2       -2.55704  -0.00102   0.00000  -0.09031  -0.09084  -2.64788
    D3        2.55688   0.00102   0.00000   0.09036   0.09090   2.64777
    D4        0.06014   0.00036   0.00000   0.03802   0.03838   0.09852
    D5       -1.89327   0.00033   0.00000   0.02619   0.02628  -1.86699
    D6        1.89318  -0.00033   0.00000  -0.02615  -0.02624   1.86694
    D7       -2.15002   0.00019   0.00000   0.00771   0.00755  -2.14246
    D8        2.15014  -0.00019   0.00000  -0.00775  -0.00759   2.14255
    D9        0.00004   0.00000   0.00000  -0.00001  -0.00001   0.00003
   D10        2.74807  -0.00037   0.00000  -0.03069  -0.03070   2.71738
   D11       -1.44991  -0.00038   0.00000  -0.03217  -0.03218  -1.48209
   D12        0.65648  -0.00045   0.00000  -0.03622  -0.03622   0.62027
   D13       -1.01618   0.00028   0.00000   0.02218   0.02218  -0.99400
   D14        1.06902   0.00027   0.00000   0.02070   0.02070   1.08971
   D15       -3.10777   0.00020   0.00000   0.01665   0.01666  -3.09111
   D16       -2.74808   0.00037   0.00000   0.03069   0.03070  -2.71739
   D17       -0.65649   0.00045   0.00000   0.03622   0.03621  -0.62028
   D18        1.44990   0.00038   0.00000   0.03217   0.03218   1.48208
   D19        1.01617  -0.00028   0.00000  -0.02218  -0.02218   0.99399
   D20        3.10776  -0.00020   0.00000  -0.01665  -0.01666   3.09110
   D21       -1.06904  -0.00027   0.00000  -0.02070  -0.02069  -1.08973
   D22       -0.00004   0.00001   0.00000   0.00002   0.00002  -0.00002
         Item               Value     Threshold  Converged?
 Maximum Force            0.043033     0.000450     NO 
 RMS     Force            0.006184     0.000300     NO 
 Maximum Displacement     0.135540     0.001800     NO 
 RMS     Displacement     0.041495     0.001200     NO 
 Predicted change in Energy=-7.379352D-03
 GradGradGradGradGradGradGradGradGradGradGradGradGradGradGradGradGradGrad

                          Input orientation:                          
 ---------------------------------------------------------------------
 Center     Atomic      Atomic             Coordinates (Angstroms)
 Number     Number       Type             X           Y           Z
 ---------------------------------------------------------------------
      1          6           0        0.288472    0.000143    1.141571
      2          1           0        0.531743    0.907648    1.676533
      3          1           0        0.531782   -0.907211    1.676772
      4          6           0       -0.652080   -0.000001    0.113496
      5          1           0        0.339096   -0.000047   -0.785567
      6          6           0       -1.431191    1.282482   -0.158363
      7          1           0       -1.794098    1.317032   -1.187652
      8          1           0       -2.305602    1.360826    0.493244
      9          1           0       -0.815719    2.168818    0.002069
     10          6           0       -1.431046   -1.282623   -0.158124
     11          1           0       -1.793959   -1.317399   -1.187403
     12          1           0       -0.815468   -2.168858    0.002461
     13          1           0       -2.305443   -1.360956    0.493506
     14          8           0        1.953491    0.000090    0.136665
     15          8           0        1.539745   -0.000018   -1.061320
 ---------------------------------------------------------------------
                    Distance matrix (angstroms):
                    1          2          3          4          5
     1  C    0.000000
     2  H    1.081171   0.000000
     3  H    1.081172   1.814860   0.000000
     4  C    1.393405   2.160636   2.160647   0.000000
     5  H    1.927803   2.631152   2.631195   1.338187   0.000000
     6  C    2.508279   2.713015   3.466373   1.525019   2.274242
     7  H    3.390660   3.712235   4.308353   2.175263   2.539072
     8  H    3.000168   3.107421   3.820403   2.174900   3.237554
     9  H    2.687165   2.491994   3.752646   2.177836   2.580299
    10  C    2.508274   3.466381   2.713020   1.525020   2.274223
    11  H    3.390658   4.308347   3.712254   2.175262   2.539057
    12  H    2.687158   3.752650   2.492018   2.177835   2.580261
    13  H    3.000163   3.820438   3.107387   2.174906   3.237543
    14  O    1.944769   2.283906   2.283940   2.605674   1.859243
    15  O    2.533459   3.055448   3.055509   2.486823   1.231908
                    6          7          8          9         10
     6  C    0.000000
     7  H    1.091939   0.000000
     8  H    1.093309   1.757546   0.000000
     9  H    1.090933   1.760170   1.764612   0.000000
    10  C    2.565105   2.819564   2.859537   3.509521   0.000000
    11  H    2.819557   2.634431   3.203005   3.811234   1.091939
    12  H    3.509519   3.811235   3.862646   4.337676   1.090934
    13  H    2.859548   3.203027   2.721781   3.862653   1.093310
    14  O    3.631479   4.187192   4.485379   3.519947   3.631439
    15  O    3.359552   3.586794   4.365233   3.373849   3.359529
                   11         12         13         14         15
    11  H    0.000000
    12  H    1.760171   0.000000
    13  H    1.757546   1.764613   0.000000
    14  O    4.187161   3.519869   4.485343   0.000000
    15  O    3.586777   3.373799   4.365215   1.267420   0.000000
 Stoichiometry    C4H9O2(2)
 Framework group  C1[X(C4H9O2)]
 Deg. of freedom    39
 Full point group                 C1      NOp   1
 Largest Abelian subgroup         C1      NOp   1
 Largest concise Abelian subgroup C1      NOp   1
                         Standard orientation:                         
 ---------------------------------------------------------------------
 Center     Atomic      Atomic             Coordinates (Angstroms)
 Number     Number       Type             X           Y           Z
 ---------------------------------------------------------------------
      1          6           0       -0.231966   -0.000023    1.165304
      2          1           0       -0.450485   -0.907473    1.710936
      3          1           0       -0.450457    0.907387    1.711015
      4          6           0        0.660468   -0.000003    0.095192
      5          1           0       -0.370881   -0.000000   -0.757488
[...]
 ! D16   D(1,4,10,11)         -152.9579         -DE/DX =    0.0                 !
 ! D17   D(1,4,10,12)          -32.513          -DE/DX =    0.0                 !
 ! D18   D(1,4,10,13)           87.7783         -DE/DX =    0.0                 !
 ! D19   D(6,4,10,11)           57.4468         -DE/DX =    0.0                 !
 ! D20   D(6,4,10,12)          177.8917         -DE/DX =    0.0                 !
 ! D21   D(6,4,10,13)          -61.817          -DE/DX =    0.0                 !
 ! D22   D(1,14,15,5)            0.0001         -DE/DX =    0.0                 !
 --------------------------------------------------------------------------------
 GradGradGradGradGradGradGradGradGradGradGradGradGradGradGradGradGradGrad


 ----------------------------------------------------------------------

 Electric dipole moment (input orientation):
 (Debye = 10**-18 statcoulomb cm , SI units = C m)
                  (au)            (Debye)         (10**-30 SI)
   Tot        0.957901D+00      0.243474D+01      0.812142D+01
   x         -0.856894D+00     -0.217801D+01     -0.726505D+01
   y         -0.460472D-03     -0.117040D-02     -0.390404D-02
   z          0.428144D+00      0.108823D+01      0.362996D+01

 Dipole polarizability, Alpha (input orientation).
 (esu units = cm**3 , SI units = C**2 m**2 J**-1)
 Alpha(0;0):
               (au)            (10**-24 esu)      (10**-40 SI)
   iso        0.642788D+02      0.952514D+01      0.105981D+02
   aniso      0.171613D+02      0.254304D+01      0.282951D+01
   xx         0.741526D+02      0.109883D+02      0.122261D+02
   yx         0.111735D-01      0.165574D-02      0.184226D-02
   yy         0.547553D+02      0.811389D+01      0.902792D+01
   zx        -0.200329D+01     -0.296858D+00     -0.330299D+00
   zy        -0.853053D-03     -0.126409D-03     -0.140649D-03
   zz         0.639285D+02      0.947323D+01      0.105404D+02

 ----------------------------------------------------------------------

 Dipole orientation:
     6          2.25175118          0.00088509          0.63625936
     1          3.32543805          1.73250766          0.50901510
     1          3.32572270         -1.73059864          0.50907371
     6         -0.29333536          0.00029653          1.28846729
     1         -0.98560455         -0.00141553         -1.08764573
     6         -1.47134369          2.42995977          2.29850407
     1         -3.49225822          2.50239666          1.89695936
     1         -1.24616259          2.55502104          4.34744289
     1         -0.59943243          4.09656460          1.45876788
     6         -1.46956440         -2.42898981          2.30147255
     1         -3.49041060         -2.50347127          1.89994546
     1         -0.59634986         -4.09599799          1.46388681
     1         -1.24434415         -2.55128260          4.35056796
     8          1.75711244          0.00125117         -3.50406368
     8         -0.63867712         -0.00159360         -3.56224359

 Electric dipole moment (dipole orientation):
 (Debye = 10**-18 statcoulomb cm , SI units = C m)
                  (au)            (Debye)         (10**-30 SI)
   Tot        0.957901D+00      0.243474D+01      0.812142D+01
   x          0.000000D+00      0.000000D+00      0.000000D+00
   y          0.000000D+00      0.000000D+00      0.000000D+00
   z          0.957901D+00      0.243474D+01      0.812142D+01

 Dipole polarizability, Alpha (dipole orientation).
 (esu units = cm**3 , SI units = C**2 m**2 J**-1)
 Alpha(0;0):
               (au)            (10**-24 esu)      (10**-40 SI)
   iso        0.642788D+02      0.952514D+01      0.105981D+02
   aniso      0.171613D+02      0.254304D+01      0.282951D+01
   xx         0.643691D+02      0.953851D+01      0.106130D+02
   yx         0.570127D-02      0.844841D-03      0.940012D-03
   yy         0.547553D+02      0.811389D+01      0.902792D+01
   zx        -0.288503D+01     -0.427517D+00     -0.475677D+00
   zy        -0.212126D-02     -0.314338D-03     -0.349748D-03
   zz         0.737121D+02      0.109230D+02      0.121535D+02

 ----------------------------------------------------------------------
 1\1\GINC-CNODE0635\Freq\UB3LYP\CC-pVTZ+d\C4H9O2(2)\LMOSKALEVA\09-Apr-2
 022\0\\#N Geom=AllCheck Guess=TCheck SCRF=Check GenChk UB3LYP/CC-pVTZ+
 d Freq\\RisobO2-Concerted-OOH-Elim-TS2-b3lyp-c-N2\\0,2\C,0.2313964057,
 -0.0000476069,1.2164171553\H,0.5453085452,0.9161509643,1.6950207286\H,
 0.5458927524,-0.9164457329,1.6942883896\C,-0.6793113835,-0.0001247151,
 0.1658917239\H,0.2817505305,-0.0003173864,-0.7238146335\C,-1.436446198
 7,1.2855258252,-0.152237474\H,-1.7243649312,1.3242777376,-1.2038481205
 \H,-2.3531269768,1.3511487676,0.4390076608\H,-0.8329705319,2.167531471
 5,0.0623140292\C,-1.4366664243,-1.2857201878,-0.1519291133\H,-1.724554
 2315,-1.3247141209,-1.2035406182\H,-0.8333762162,-2.1677870447,0.06289
 99531\H,-2.3533731684,-1.3509914026,0.4393086688\O,2.0743389036,0.0012
 771212,0.0029918534\O,1.5352249251,0.00016331,-1.1448822032\\Version=E
 S64L-G16RevB.01\State=2-A\HF=-308.2341799\S2=0.76047\S2-1=0.\S2A=0.750
 066\RMSD=4.656e-09\RMSF=2.952e-05\ZeroPoint=0.1209021\Thermal=0.128354
 7\Dipole=-0.8568938,-0.0004605,0.4281439\DipoleDeriv=0.4620969,0.00007
 93,0.0695006,0.0003104,0.0882537,0.0000471,0.320367,0.0002043,-0.00815
 ,0.0302239,-0.0129621,-0.023593,-0.0457747,-0.0367933,-0.0601075,0.008
 2089,-0.0383331,0.0398611,0.0302922,0.0130391,-0.0236095,0.0458273,-0.
 0369004,0.0600563,0.0081256,0.0382928,0.0398986,0.1511158,-0.0000625,0
 .1299621,-0.0002493,0.1000846,-0.0000419,-0.3863197,-0.0002041,-0.2516
 867,0.1179159,-0.0000041,-0.2185466,0.0000255,0.1158242,0.0000226,-0.2
 977504,-0.0001037,0.3457783,0.0580591,-0.0129179,-0.0569811,-0.086074,
 0.0316229,-0.0019476,0.0531197,-0.0408203,0.1824201,0.0312446,0.027117
 8,-0.0290587,0.0207133,0.0440775,-0.0286346,-0.0862822,0.0328292,-0.12
 39623,-0.1217338,0.0533677,0.0609069,0.0443842,0.0282149,0.042685,0.10
 4779,-0.0039259,-0.0046621,-0.0033663,-0.1000096,-0.0290617,-0.0516719
 ,-0.094322,-0.0153225,-0.028161,-0.041435,0.0499102,0.0580796,0.012951
 5,-0.0568872,0.0862282,0.0318318,0.0020177,0.0532941,0.040935,0.182495
 4,0.0312171,-0.0271445,-0.0290494,-0.0207434,0.0440766,0.028594,-0.086
 3102,-0.0328946,-0.1239816,-0.0033395,0.100007,-0.0290934,0.0516789,-0
 .0943604,0.0153654,-0.0281824,0.0415016,0.0498945,-0.1217836,-0.053341
 6,0.0609016,-0.0443616,0.0281939,-0.042703,0.1047501,0.0038801,-0.0046
 543,-0.7777577,-0.0002598,0.1488326,-0.0009528,-0.1310681,0.0005016,-0
 .4650513,-0.0002306,0.4814021,0.0577358,0.0001397,0.0257767,0.00066,-0
 .1187358,-0.0005326,0.7254129,0.0003043,-0.8545634\Polar=74.1526361,0.
 0111735,54.7552667,-2.0032945,-0.0008531,63.9285137\Quadrupole=-2.6768
 015,1.6840663,0.9927352,-0.0017151,1.5349842,0.000085\PG=C01 [X(C4H9O2
 )]\NImag=1\\0.31737673,-0.00018518,0.66084740,0.27098613,0.00021391,0.
 49070325,-0.06255777,-0.06979617,-0.04785568,0.06343844,-0.07029836,-0
 .26621412,-0.10742509,0.07640971,0.27501284,-0.04999616,-0.10396319,-0
 .10215234,0.05245375,0.11458553,0.10077929,-0.06265556,0.06994874,-0.0
 4785763,0.00450694,-0.00731151,0.00251005,0.06353102,0.07045601,-0.266
 26450,0.10725199,0.00732114,-0.01553001,0.01171695,-0.07657067,0.27507
 238,-0.04998161,0.10377902,-0.10198116,0.00252219,-0.01173306,0.009862
 84,0.05246534,-0.11440593,0.10060531,-0.21223649,-0.00001367,-0.178790
 26,-0.00038671,0.00081620,-0.00961700,-0.00040533,-0.00080937,-0.00962
 898,0.49735321,0.00001982,-0.10527040,-0.00001564,-0.01597194,0.002398
 22,-0.02129542,0.01597871,0.00238893,0.02130879,0.00001260,0.47804220,
 -0.11640939,0.00000657,-0.20766133,-0.00977970,0.00197302,-0.00102364,
 -0.00975228,-0.00197447,-0.00104297,0.22151920,-0.00002180,0.36494400,
 0.05394860,0.00002971,0.03270360,-0.00315546,-0.00080661,0.00300002,-0
 .00313498,0.00080203,0.00298377,-0.00476819,0.00000332,-0.07772161,0.0
 1399379,0.00000714,-0.00428922,0.00000256,0.00041887,-0.00003129,-0.00
 020678,-0.00042165,-0.00003147,0.00020915,0.00002368,-0.02453818,-0.00
 001410,0.00000541,0.05416194,-0.02324327,-0.00002025,-0.03704411,0.000
 01122,0.00053920,-0.00064331,0.00000722,-0.00053830,-0.00063330,0.0134
 1332,0.00000575,0.00131890,0.03675886,0.00003203,0.06918250,-0.0081296
 8,0.01856229,-0.00259421,-0.00102384,0.00076887,0.00169237,0.00180207,
 -0.00064521,-0.00258873,-0.10194485,0.04385973,-0.02612444,-0.01674811
 ,0.01353123,0.00139623,0.53283031,0.00861166,-0.00098055,0.00578195,-0
 .00213378,0.00091127,-0.00062423,-0.00012487,0.00083332,-0.00247933,0.
 03867084,-0.15233611,0.01633032,0.00660667,-0.00478661,-0.00112303,0.0
 5224667,0.49352863,-0.02211133,0.02656401,-0.01204041,0.00400152,0.000
 67390,-0.00113943,-0.00700886,0.00024172,-0.00041254,-0.01776194,0.011
 38629,-0.06712850,0.01200782,-0.00914501,-0.00075887,0.00237418,0.0210
 8155,0.55050281,-0.00041787,0.00379242,-0.00153347,0.00033855,0.000054
 39,0.00016874,-0.00097487,0.00027326,-0.00045919,-0.00768113,0.0002257
 8,-0.01556274,0.00118785,-0.00010804,-0.00167277,-0.06307936,0.0007023
 4,-0.06287471,0.06779896,0.00138220,-0.00509739,0.00123279,0.00004280,
 0.00006441,0.00019901,0.00140643,0.00019631,0.00070819,0.00934086,-0.0
 0091955,0.02611393,-0.00177197,0.00060902,0.00150952,-0.00009259,-0.04
 821917,0.00422018,-0.00504478,0.05108973,0.00024846,0.00153272,0.00032
 826,0.00024909,0.00002185,0.00008522,-0.00028704,-0.00000479,0.0000270
 1,-0.00287863,0.00010188,-0.00350238,0.00133445,-0.00012297,-0.0003854
 3,-0.06395797,0.00555903,-0.28919301,0.07132244,-0.00677987,0.31412520
 ,0.00210113,0.00051996,0.00164694,-0.00078883,0.00003792,0.00037437,0.
 00045972,0.00008480,-0.00053580,-0.01560378,0.00363274,0.00513016,-0.0
 0034176,0.00168898,-0.00134997,-0.22289315,0.00738024,0.11762851,0.007
 78120,-0.00064852,-0.00420435,0.24383444,-0.00286055,-0.00058739,-0.00
 268202,0.00059302,0.00015208,-0.00022391,-0.00061427,0.00001659,0.0005
 2143,0.02501243,-0.00443039,-0.01083174,0.00260447,-0.00223402,0.00067
 556,0.00889566,-0.04656905,-0.00786945,-0.00045325,-0.00057231,-0.0002
 2978,-0.01340362,0.05022171,-0.00040302,0.00054380,0.00101586,-0.00025
 727,-0.00011319,0.00005382,0.00058465,0.00000239,-0.00042640,-0.008300
 17,0.00073844,0.00471419,0.00016425,0.00052564,-0.00017113,0.11727921,
 -0.00678704,-0.12394147,0.02700010,-0.00074528,-0.01763864,-0.12876231
 ,0.00566394,0.13212870,0.00078710,0.00045848,0.00022705,0.00016830,-0.
 00017558,-0.00004621,0.00000708,-0.00007994,0.00028045,0.00944909,0.01
 472125,0.00413122,0.00076034,-0.00007373,-0.00014510,-0.13101264,-0.12
 006956,-0.03024573,-0.00494016,-0.00542889,-0.00091612,-0.01460592,-0.
 02109559,-0.00660076,0.14017681,-0.00198039,0.00099724,-0.00170453,0.0
 0053880,0.00055926,0.00094090,0.00024187,0.00038509,-0.00009043,-0.016
 05500,-0.02235540,-0.00523064,-0.00070203,0.00004260,0.00020200,-0.117
 24045,-0.21465505,-0.04147903,0.00110128,0.00139300,-0.00040586,0.0009
 6810,0.00184118,0.00108976,0.12825593,0.23578203,0.00051026,0.00089598
 ,0.00048023,-0.00031234,0.00003424,-0.00006582,0.00014162,-0.00017277,
 -0.00001157,0.00452979,0.00495744,-0.00036449,-0.00036074,-0.00027033,
 0.00010513,-0.03012868,-0.04224347,-0.05765167,-0.01778676,-0.02573125
 ,-0.00505087,0.00995292,0.01553225,0.00386398,0.03418580,0.04555953,0.
 05789672,-0.00812292,-0.01854711,-0.00258378,0.00180004,0.00064788,-0.
 00258167,-0.00102333,-0.00077367,0.00169167,-0.10194990,-0.04387739,-0
 .02613902,-0.01676043,-0.01353335,0.00140690,0.00938565,0.01333477,0.0
 0395119,0.00032327,0.00004372,0.00027061,0.00065944,0.00077378,0.00002
 124,-0.00145434,0.00468359,-0.00074263,0.53280090,-0.00862184,-0.00098
 469,-0.00578526,0.00012088,0.00082974,0.00247948,0.00213632,0.00091334
 ,0.00062323,-0.03867176,-0.15232524,-0.01630761,-0.00660389,-0.0047841
 0,0.00112318,-0.01334075,-0.02831095,-0.00416905,-0.00070581,0.0015731
 1,-0.00038559,-0.00076158,0.00190161,-0.00034325,0.00248475,-0.0033027
 3,0.00108081,-0.05225888,0.49352953,-0.02211844,-0.02656682,-0.0120516
 6,-0.00700393,-0.00024627,-0.00041719,0.00399962,-0.00067026,-0.001140
 41,-0.01776528,-0.01137121,-0.06708698,0.01202189,0.00914562,-0.000769
 35,0.00395072,0.00417597,0.00168630,0.00027241,0.00094779,0.00009598,-
 0.00016815,-0.00063268,0.00005107,-0.00095801,0.00168931,-0.00001945,0
 .00237935,-0.02106014,0.55051512,-0.00041781,-0.00379411,-0.00153620,-
 0.00097476,-0.00027348,-0.00045930,0.00033878,-0.00005457,0.00016874,-
 0.00768526,-0.00022991,-0.01556523,0.00118988,0.00010834,-0.00167442,0
 .00032306,0.00070586,0.00027204,0.00034208,-0.00022348,0.00014548,0.00
 005621,-0.00008804,0.00015686,-0.00013939,0.00006787,0.00013057,-0.063
 07693,-0.00071570,-0.06286293,0.06779806,-0.00138170,-0.00509583,-0.00
 123403,-0.00140545,0.00019621,-0.00070850,-0.00004321,0.00006510,-0.00
 019848,-0.00934297,-0.00092686,-0.02610699,0.00177446,0.00060941,-0.00
 151100,-0.00004373,0.00157241,-0.00094796,0.00022343,-0.00026847,0.000
 57191,0.00005157,-0.00016352,0.00006540,-0.00006095,0.00030621,0.00026
 629,0.00007828,-0.04822277,-0.00427496,0.00506210,0.05109233,0.0002488
 4,-0.00153119,0.00032883,-0.00028674,0.00000462,0.00002748,0.00024909,
 -0.00002191,0.00008506,-0.00287728,-0.00010242,-0.00349385,0.00133452,
 0.00012341,-0.00038491,0.00027091,0.00038496,0.00009584,0.00014524,-0.
 00057180,0.00028164,0.00004652,-0.00002603,-0.00015861,0.00005280,-0.0
 0007506,0.00032622,-0.06394692,-0.00561316,-0.28919287,0.07131063,0.00
 683933,0.31412335,0.00078714,-0.00045982,0.00022771,0.00000666,0.00007
 994,0.00028017,0.00016799,0.00017584,-0.00004690,0.00944853,-0.0147227
 8,0.00413677,0.00076011,0.00007357,-0.00014501,-0.00145526,-0.00248533
 ,-0.00095771,-0.00013944,0.00006106,0.00005271,0.00017872,-0.00024711,
 -0.00019529,0.00065126,-0.00088777,0.00006515,-0.13095994,0.12003849,-
 0.03027324,-0.00493818,0.00542852,-0.00091749,0.14012006,0.00198012,0.
 00099735,0.00170480,-0.00024208,0.00038501,0.00009008,-0.00054000,0.00
 055973,-0.00094135,0.01604994,-0.02235647,0.00523720,0.00070195,0.0000
 4351,-0.00020219,-0.00468434,-0.00330167,-0.00168899,-0.00006776,0.000
 30623,0.00007503,-0.00003375,0.00035385,-0.00014544,0.00088760,-0.0015
 1541,0.00028049,0.11721152,-0.21467511,0.04153407,-0.00110498,0.001399
 81,0.00040431,-0.12822377,0.23580486,0.00051007,-0.00089554,0.00047919
 ,0.00014131,0.00017263,-0.00001133,-0.00031227,-0.00003416,-0.00006514
 ,0.00452637,-0.00495106,-0.00036441,-0.00036133,0.00027029,0.00010536,
 -0.00074193,-0.00108041,-0.00001820,0.00013060,-0.00026637,0.00032624,
 -0.00025771,0.00029154,0.00002213,0.00006488,-0.00028003,0.00055866,-0
 .03015744,0.04229737,-0.05767679,-0.01778053,0.02573269,-0.00505878,0.
 03421589,-0.04562183,0.05792386,0.00210342,-0.00051700,0.00164879,0.00
 045896,-0.00008417,-0.00053463,-0.00078801,-0.00003881,0.00037478,-0.0
 1560978,-0.00362977,0.00512919,-0.00034380,-0.00168902,-0.00134841,0.0
 0066033,0.00076152,-0.00016841,0.00005622,-0.00005160,0.00004649,0.000
 45054,-0.00069127,0.00014920,0.00017872,0.00003394,-0.00025767,-0.2229
 0642,-0.00731165,0.11763288,0.00778065,0.00064552,-0.00420377,-0.01460
 175,-0.00096105,0.00994874,0.24385051,0.00286269,-0.00058503,0.0026853
 2,0.00061323,0.00001737,-0.00052000,-0.00059250,0.00015054,0.00022346,
 -0.02501586,-0.00442367,0.01082471,-0.00260647,-0.00223292,-0.00067321
 ,-0.00077246,0.00190198,0.00063243,0.00008798,-0.00016355,0.00002605,0
 .00069126,-0.00020131,-0.00031393,0.00024700,0.00035388,-0.00029148,-0
 .00882428,-0.04655774,0.00782425,0.00045892,-0.00057201,0.00022625,0.0
 2109836,0.00183160,-0.01553250,0.01332802,0.05021314,-0.00040299,-0.00
 054215,0.00101605,0.00058478,-0.00000198,-0.00042597,-0.00025766,0.000
 11248,0.00005455,-0.00829399,-0.00073515,0.00470936,0.00016423,-0.0005
 2471,-0.00017018,0.00002164,0.00034304,0.00005108,0.00015689,-0.000065
 38,-0.00015844,0.00014894,0.00031379,0.00004374,-0.00019537,0.00014538
 ,0.00002211,0.11728499,0.00674067,-0.12394507,0.02700030,0.00073442,-0
 .01763837,-0.00660775,-0.00108729,0.00386859,-0.12876659,-0.00561336,0
 .13212981,0.02936164,0.00002828,-0.01409960,-0.00400201,-0.00006049,0.
 00472298,-0.00399245,0.00005199,0.00471119,0.00137271,-0.00003768,-0.0
 4928594,-0.08135210,-0.00006347,-0.01365476,-0.00547407,-0.00323997,0.
 00538624,0.00033303,-0.00038702,0.00000296,-0.00126853,0.00242221,0.00
 000988,0.00031162,0.00053198,0.00002060,-0.00548564,0.00324847,0.00539
 649,0.00033361,0.00038721,0.00000235,0.00031231,-0.00052981,0.00002015
 ,-0.00127222,-0.00242550,0.00000879,0.18720789,0.00004255,-0.01785044,
 -0.00000838,0.00514938,0.00166493,-0.00359904,-0.00515832,0.00166021,0
 .00361188,0.00001823,0.00262870,-0.00004806,-0.00008966,0.01065949,-0.
 00001643,-0.00009808,-0.00018941,-0.00007991,0.00000952,0.00005297,-0.
 00001284,-0.00005530,0.00008117,-0.00003931,-0.00004085,0.00007029,-0.
 00001818,0.00008674,-0.00018316,0.00008773,-0.00000916,0.00005287,0.00
 001229,0.00004076,0.00006934,0.00001838,0.00005346,0.00007751,0.000039
 59,0.00024171,0.01542771,0.00277691,0.00000993,0.00807331,0.00281232,0
 .00063132,-0.00245327,0.00280950,-0.00062796,-0.00244982,0.01449984,-0
 .00000296,-0.00536091,-0.02724971,-0.00002701,-0.01277411,-0.00011990,
 -0.00068437,-0.00182597,-0.00028569,0.00000168,-0.00026249,0.00074644,
 -0.00060502,0.00042732,0.00003232,-0.00023566,0.00049514,-0.00012147,0
 .00068543,-0.00182656,-0.00028573,-0.00000238,-0.00026304,0.00003285,0
 .00023732,0.00049421,0.00074592,0.00060513,0.00042763,0.20728117,0.000
 41454,0.44725346,-0.05192767,-0.00002683,-0.01058939,0.00217149,0.0001
 9529,-0.00196749,0.00216095,-0.00019284,-0.00195692,-0.04935213,0.0000
 1553,0.10629380,0.05476426,0.00003204,-0.00976003,0.00675955,-0.000967
 05,-0.00449282,-0.00092833,0.00137178,-0.00142859,-0.00001943,-0.00084
 786,-0.00084658,-0.00033787,0.00044227,0.00005209,0.00677054,0.0009629
 5,-0.00450338,-0.00093000,-0.00137310,-0.00142871,-0.00033822,-0.00044
 358,0.00005319,-0.00001737,0.00084960,-0.00084620,-0.11638579,-0.00019
 099,-0.20367478,0.14761001,-0.00003417,0.01037758,-0.00001836,-0.00165
 842,-0.00041590,0.00112910,0.00166493,-0.00041558,-0.00113656,-0.00003
 616,0.00442421,0.00004968,0.00005261,-0.02319816,-0.00000282,-0.000946
 86,0.00060097,0.00057933,-0.00009076,-0.00004434,0.00005323,-0.0001528
 0,0.00018978,-0.00014192,-0.00002993,0.00009779,0.00012046,0.00095440,
 0.00059915,-0.00058240,0.00009035,-0.00004491,-0.00005361,0.00003005,0
 .00009736,-0.00012102,0.00015188,0.00019021,0.00014064,-0.00016793,-0.
 01422217,-0.00040001,0.00017279,0.02176403,0.00938553,-0.00002681,-0.0
 2949398,0.00271949,0.00088328,-0.00247636,0.00270865,-0.00087497,-0.00
 247144,-0.00257500,-0.00000292,-0.01865701,0.00321997,0.00000219,-0.01
 697720,-0.00072941,0.00136504,0.00177403,0.00097891,-0.00077313,0.0009
 2170,-0.00039650,0.00010212,0.00001543,0.00013277,-0.00012562,-0.00058
 431,-0.00073302,-0.00136611,0.00177788,0.00097971,0.00077426,0.0009220
 0,0.00013212,0.00012379,-0.00058358,-0.00039651,-0.00010311,0.00001512
 ,-0.15052251,-0.00036225,-0.42995489,0.13509582,0.00038426,0.49577261\
 \-0.00009415,0.00000552,-0.00002714,0.00005099,-0.00001677,-0.00002896
 ,0.00005500,0.00000743,-0.00004285,-0.00002169,-0.00000906,0.00006330,
 0.00005752,0.00000376,-0.00001241,0.00001618,0.00001390,-0.00002259,0.
 00000291,0.00000188,0.00000072,-0.00000038,-0.00000617,-0.00000256,-0.
 00000242,-0.00000101,0.00000655,0.00000554,-0.00000736,-0.00001123,0.0
 0000333,-0.00000218,0.00000001,-0.00000191,0.00000155,0.00000640,-0.00
 000011,0.00000568,-0.00000370,0.00000473,0.00001587,0.00000120,-0.0000
 7554,-0.00001304,0.00007326\\\@


 MYSTERY IS THE WISDOM OF BLOCKHEADS... HORACE WALPOLE 
 Job cpu time:       0 days  0 hours  0 minutes 35.8 seconds.
 Elapsed time:       0 days  0 hours  4 minutes 15.3 seconds.
 File lengths (MBytes):  RWF=    221 Int=      0 D2E=      0 Chk=     11 Scr=      1
 Normal termination of Gaussian 16 at Sat Apr  9 19:48:24 2022.
