 Entering Gaussian System, Link 0=g16
 Input=TS_01.com
 Output=TS_01.log
 Initial command:
 /home/saurabh/g16/l1.exe "/scratch/saurabh/PBS_8058158.helios/Gau-104222.inp" -scrdir="/scratch/saurabh/PBS_8058158.helios/"
 Entering Link 1 = /home/saurabh/g16/l1.exe PID=    104223.
  
 Copyright (c) 1988-2019, Gaussian, Inc.  All Rights Reserved.
  
 This is part of the Gaussian(R) 16 program.  It is based on
 the Gaussian(R) 09 system (copyright 2009, Gaussian, Inc.),
 the Gaussian(R) 03 system (copyright 2003, Gaussian, Inc.),
 the Gaussian(R) 98 system (copyright 1998, Gaussian, Inc.),
 the Gaussian(R) 94 system (copyright 1995, Gaussian, Inc.),
 the Gaussian 92(TM) system (copyright 1992, Gaussian, Inc.),
 the Gaussian 90(TM) system (copyright 1990, Gaussian, Inc.),
 the Gaussian 88(TM) system (copyright 1988, Gaussian, Inc.),
 the Gaussian 86(TM) system (copyright 1986, Carnegie Mellon
 University), and the Gaussian 82(TM) system (copyright 1983,
 Carnegie Mellon University). Gaussian is a federally registered
 trademark of Gaussian, Inc.
  
 This software contains proprietary and confidential information,
 including trade secrets, belonging to Gaussian, Inc.
  
 This software is provided under written license and may be
 used, copied, transmitted, or stored only in accord with that
 written license.
  
 The following legend is applicable only to US Government
 contracts under FAR:
  
                    RESTRICTED RIGHTS LEGEND
  
 Use, reproduction and disclosure by the US Government is
 subject to restrictions as set forth in subparagraphs (a)
 and (c) of the Commercial Computer Software - Restricted
 Rights clause in FAR 52.227-19.
  
 Gaussian, Inc.
 340 Quinnipiac St., Bldg. 40, Wallingford CT 06492
  
  
 ---------------------------------------------------------------
 Warning -- This program may not be used in any manner that
 competes with the business of Gaussian, Inc. or will provide
 assistance to any competitor of Gaussian, Inc.  The licensee
 of this program is prohibited from giving any competitor of
 Gaussian, Inc. access to this program.  By using this program,
 the user acknowledges that Gaussian, Inc. is engaged in the
 business of creating and licensing software in the field of
 computational chemistry and represents and warrants to the
 licensee that it is not a competitor of Gaussian, Inc. and that
 it will not use this program in any manner prohibited above.
 ---------------------------------------------------------------
  

 Cite this work as:
 Gaussian 16, Revision C.01,
 M. J. Frisch, G. W. Trucks, H. B. Schlegel, G. E. Scuseria, 
 M. A. Robb, J. R. Cheeseman, G. Scalmani, V. Barone, 
 G. A. Petersson, H. Nakatsuji, X. Li, M. Caricato, A. V. Marenich, 
 J. Bloino, B. G. Janesko, R. Gomperts, B. Mennucci, H. P. Hratchian, 
 J. V. Ortiz, A. F. Izmaylov, J. L. Sonnenberg, D. Williams-Young, 
 F. Ding, F. Lipparini, F. Egidi, J. Goings, B. Peng, A. Petrone, 
 T. Henderson, D. Ranasinghe, V. G. Zakrzewski, J. Gao, N. Rega, 
 G. Zheng, W. Liang, M. Hada, M. Ehara, K. Toyota, R. Fukuda, 
 J. Hasegawa, M. Ishida, T. Nakajima, Y. Honda, O. Kitao, H. Nakai, 
 T. Vreven, K. Throssell, J. A. Montgomery, Jr., J. E. Peralta, 
 F. Ogliaro, M. J. Bearpark, J. J. Heyd, E. N. Brothers, K. N. Kudin, 
 V. N. Staroverov, T. A. Keith, R. Kobayashi, J. Normand, 
 K. Raghavachari, A. P. Rendell, J. C. Burant, S. S. Iyengar, 
 J. Tomasi, M. Cossi, J. M. Millam, M. Klene, C. Adamo, R. Cammi, 
 J. W. Ochterski, R. L. Martin, K. Morokuma, O. Farkas, 
 J. B. Foresman, and D. J. Fox, Gaussian, Inc., Wallingford CT, 2019.
 
 ******************************************
 Gaussian 16:  EM64L-G16RevC.01  3-Jul-2019
                 4-May-2022 
 ******************************************
 %mem=64gb
 %nproc=8
 Will use up to    8 processors via shared memory.
 %chk=TS_01.chk
 ----------------------------------------------------------------------
 #p B3LYP/cc-PVTZ+d scf(verytight, maxcycles=1000) opt(qst2,calcfc, max
 cyc=1000) freq(hpmodes) int(grid=ultrafine)
 ----------------------------------------------------------------------
 1/5=1,6=1000,10=4,18=20,26=4,27=202,38=1/1,3;
 2/9=110,12=2,17=6,18=5,40=1/2;
 3/5=16,6=1,7=9,11=2,25=1,30=1,71=2,74=-5,75=-5,140=1/1,2,3;
 4//1;
 5/5=2,7=1000,17=3,38=5/2;
 8/6=4,10=90,11=11/1;
 11/6=1,8=1,9=11,15=111,16=1/1,2,10;
 10/6=1,13=1/2;
 6/7=2,8=2,9=2,10=2,28=1/1;
 7/10=1,25=1/1,2,3,16;
 1/5=1,6=1000,10=4,18=20,26=4,27=202/3(2);
 2/9=110/2;
 99//99;
 2/9=110/2;
 3/5=16,6=1,7=9,11=2,25=1,30=1,71=1,74=-5,75=-5/1,2,3;
 4/5=5,16=3,69=1/1;
 5/5=2,7=1000,17=3,38=5/2;
 7//1,2,3,16;
 1/5=1,6=1000,18=20,26=4,27=202/3(-5);
 2/9=110/2;
 6/7=2,8=2,9=2,10=2,19=2,28=1/1;
 99/9=1/99;
 Leave Link    1 at Wed May  4 20:55:45 2022, MaxMem=  8589934592 cpu:               0.6 elap:               0.1
 (Enter /home/saurabh/g16/l101.exe)
 --------
 Reactant
 --------
 Symbolic Z-matrix:
 Charge =  0 Multiplicity = 2
 C                     1.98486  -0.89922  -0.16542 
 C                     0.7421   -0.01318  -0.28795 
 C                    -0.35778  -0.55889   0.61468 
 C                     1.0569    1.45168   0.02147 
 H                     1.76802  -1.93628  -0.42641 
 H                     2.38267  -0.88429   0.85224 
 H                     2.77308  -0.54569  -0.83068 
 H                     0.36534  -0.08438  -1.31177 
 H                     1.45126   1.56056   1.03498 
 H                     0.1691    2.07762  -0.063 
 H                     1.80726   1.83769  -0.6694 
 O                    -1.60973   0.16967   0.45297 
 O                    -2.21363  -0.15352  -0.67309 
 H                    -0.11644  -0.4299    1.67111 
 H                    -0.56989  -1.60686   0.40717 
 
 ---
 Pdt
 ---
 Symbolic Z-matrix:
 Charge =  0 Multiplicity = 2
 C                     1.74775  -1.14807  -0.17044 
 C                     0.82867  -0.00433   0.08419 
 C                    -0.38426  -0.17799   0.93173 
 C                     1.25899   1.37599  -0.28292 
 H                     1.24205  -2.10798  -0.06159 
 H                     2.60323  -1.15227   0.52212 
 H                     2.17825  -1.10036  -1.17538 
 H                    -1.61077   0.07206  -1.4965 
 H                     2.04768   1.74491   0.39022 
 H                     0.43162   2.08398  -0.23002 
 H                     1.68047   1.41458  -1.2913 
 O                    -1.58028   0.3884    0.37183 
 O                    -1.97074  -0.43589  -0.75659 
 H                    -0.30788   0.38012   1.87595 
 H                    -0.56348  -1.22864   1.16915 
 
 ITRead=  0  0  0  0  0  0  0  0  0  0  0  0  0  0  0
 MicOpt= -1 -1 -1 -1 -1 -1 -1 -1 -1 -1 -1 -1 -1 -1 -1
 Iteration  1 RMS(Cart)=  0.10929575 RMS(Int)=  0.56216349
 Iteration  2 RMS(Cart)=  0.06787251 RMS(Int)=  0.54329968
 Iteration  3 RMS(Cart)=  0.03265592 RMS(Int)=  0.53019542
 Iteration  4 RMS(Cart)=  0.03146085 RMS(Int)=  0.52018443
 Iteration  5 RMS(Cart)=  0.03041290 RMS(Int)=  0.51321392
 Iteration  6 RMS(Cart)=  0.02938399 RMS(Int)=  0.50911439
 Iteration  7 RMS(Cart)=  0.02823898 RMS(Int)=  0.50764303
 Iteration  8 RMS(Cart)=  0.01826342 RMS(Int)=  0.50763024
 Iteration  9 RMS(Cart)=  0.00134153 RMS(Int)=  0.50776007
 Iteration 10 RMS(Cart)=  0.00020238 RMS(Int)=  0.50780020
 Iteration 11 RMS(Cart)=  0.00006990 RMS(Int)=  0.50781266
 Iteration 12 RMS(Cart)=  0.00002485 RMS(Int)=  0.50781648
 Iteration 13 RMS(Cart)=  0.00000887 RMS(Int)=  0.50781764
 Iteration 14 RMS(Cart)=  0.00000317 RMS(Int)=  0.50781798
 Iteration 15 RMS(Cart)=  0.00000114 RMS(Int)=  0.50781807
 Iteration 16 RMS(Cart)=  0.00000041 RMS(Int)=  0.50781810
 Iteration  1 RMS(Cart)=  0.00000015 RMS(Int)=  0.50781810
 Iteration  1 RMS(Cart)=  0.00000005 RMS(Int)=  0.50781811
 Iteration  1 RMS(Cart)=  0.00000002 RMS(Int)=  0.50781811
 Iteration  1 RMS(Cart)=  0.00000001 RMS(Int)=  0.50781811
 Iteration  1 RMS(Cart)=  0.00000000 RMS(Int)=  0.50781811
 Iteration  1 RMS(Cart)=  0.00000000 RMS(Int)=  0.50781811
 Iteration  1 RMS(Cart)=  0.00000000 RMS(Int)=  0.50781811
 Iteration  1 RMS(Cart)=  0.00000000 RMS(Int)=  0.50781811
 Iteration  1 RMS(Cart)=  0.00000000 RMS(Int)=  0.50781811
   Var     Old X     New X   DQ Goal   DQ Act.  Rel. Err.   Overall
     1    2.8935    2.8538   -0.0397   -0.0397    1.0000
     2    2.0620    2.0613   -0.0007   -0.0007
     3    2.0650    2.0725    0.0075    0.0075
     4    2.0605    2.0642    0.0037    0.0037
     5    2.8797    2.8512   -0.0322   -0.0286    0.8885
     6    2.8911    2.8550   -0.0361   -0.0361    1.0000
     7    2.0660    3.7844    1.7145    1.7184    1.0023
     8    2.7543    2.7051   -0.0195   -0.0492    2.5278
     9    2.0623    2.0700    0.0077    0.0077
    10    2.0582    2.0609    0.0026    0.0026
    11    2.0654    2.0726    0.0072    0.0072
    12    2.0590    2.0596    0.0006    0.0006
    13    2.0609    2.0638    0.0029    0.0029
    14    5.0225    3.4250   -1.5976   -1.5974    0.9999
    15    2.4907    2.6371    0.1256    0.1464    1.1658
    16    1.9493    1.9511    0.0018    0.0018
    17    1.9413    1.9483    0.0070    0.0070
    18    1.9287    1.9373    0.0086    0.0086
    19    1.8840    1.8767   -0.0072   -0.0072
    20    1.8817    1.8852    0.0035    0.0035
    21    1.8761    1.8613   -0.0148   -0.0148    0.9998
    22    1.9084    1.9935    0.0989    0.0852    0.8610
    23    1.9507    2.0518    0.0664    0.1011    1.5224
    24    1.8933    1.9708    0.0693    0.0775    1.1184
    25    1.9515    2.0556    0.0615    0.1041    1.6926
    26    1.8573    1.5525   -0.3331   -0.3048    0.9150
    27    1.8993    1.7506   -0.1223   -0.1488    1.2168
    28    1.9555    1.9170    0.0189   -0.0385   -2.0357
    29    1.9514    1.9340    0.0007   -0.0173
    30    1.9523    1.9927   -0.0015    0.0405
    31    1.8114    1.8336   -0.0235    0.0222   -0.9451
    32    1.8677    1.8800    0.0183    0.0123    0.6725
    33    1.9190    1.8990   -0.0149   -0.0200    1.3439
    34    1.9360    1.9178    0.0049   -0.0182
    35    1.9463    1.9697    0.0018    0.0234
    36    1.9309    1.9445    0.0099    0.0136
    37    1.8846    1.8743   -0.0064   -0.0103
    38    1.8796    1.8224   -0.0146   -0.0572    3.9121
    39    1.8841    1.9280    0.0032    0.0440
    40    1.9453    1.8448   -0.0333   -0.1005    3.0196
    41    1.3226    1.6170    0.2230    0.2944    1.3202
    42    1.0125    0.7429   -0.2939   -0.2696    0.9173
    43   -3.1004   -3.0232    0.0867    0.0772    0.8904
    44   -1.0063   -0.9972    0.0239    0.0091    0.3811
    45   -1.0937   -1.3601   -0.2907   -0.2664    0.9164
    46    1.0766    1.1570    0.0899    0.0804    0.8941
    47   -3.1125   -3.1002    0.0271    0.0123    0.4537
    48    3.1071    2.8490   -0.2823   -0.2580    0.9139
    49   -1.0058   -0.9170    0.0983    0.0888    0.9031
    50    1.0883    1.1090    0.0355    0.0207    0.5826
    51   -3.0509   -2.6840    0.3599    0.3669    1.0195
    52    1.2072    1.5811    0.3769    0.3739    0.9919
    53   -0.9537   -0.5705    0.3969    0.3833    0.9656
    54    1.0624    1.0835   -0.0215    0.0211   -0.9812
    55   -0.9627   -0.9346   -0.0044    0.0281
    56   -3.1236   -3.0861    0.0155    0.0375    2.4138
    57   -1.0093   -0.6810    0.2875    0.3283    1.1420
    58   -3.0344   -2.6991    0.3046    0.3353    1.1009
    59    1.0879    1.4326    0.3245    0.3447    1.0621
    60   -1.0363   -1.0332   -0.1040    0.0031   -0.0295
    61   -3.1376   -3.1245    3.0411    0.0131    0.0043
    62    1.0485    0.9779   -0.1127   -0.0706    0.6263
    63    1.1096    1.4615    0.2907    0.3519    1.2105
    64   -0.9916   -0.6297    0.2942    0.3619    1.2301
    65   -3.0888   -2.8106    0.2820    0.2782    0.9865
    66   -3.1269    3.1071    3.0003    6.2340    2.0778
    67    1.0550    1.0159   -0.1377   -0.0391    0.2840
    68   -1.0421   -1.1650   -0.1499   -0.1228    0.8194
    69    1.3072    1.3379   -0.0330    0.0307   -0.9307
    70   -2.8678   -2.8645   -0.0373    0.0033   -0.0887
    71   -0.8386   -0.8421   -0.0576   -0.0035    0.0604
    72   -0.6756   -1.0496   -0.5205   -0.3740    0.7185
 NAtoms=     15 NQM=       15 NQMF=       0 NMMI=      0 NMMIF=      0
                NMic=       0 NMicF=      0.
                    Isotopes and Nuclear Properties:
 (Nuclear quadrupole moments (NQMom) in fm**2, nuclear magnetic moments (NMagM)
  in nuclear magnetons)

  Atom         1           2           3           4           5           6           7           8           9          10
 IAtWgt=          12          12          12          12           1           1           1           1           1           1
 AtmWgt=  12.0000000  12.0000000  12.0000000  12.0000000   1.0078250   1.0078250   1.0078250   1.0078250   1.0078250   1.0078250
 NucSpn=           0           0           0           0           1           1           1           1           1           1
 AtZEff=  -0.0000000  -0.0000000  -0.0000000  -0.0000000  -0.0000000  -0.0000000  -0.0000000  -0.0000000  -0.0000000  -0.0000000
 NQMom=    0.0000000   0.0000000   0.0000000   0.0000000   0.0000000   0.0000000   0.0000000   0.0000000   0.0000000   0.0000000
 NMagM=    0.0000000   0.0000000   0.0000000   0.0000000   2.7928460   2.7928460   2.7928460   2.7928460   2.7928460   2.7928460
 AtZNuc=   6.0000000   6.0000000   6.0000000   6.0000000   1.0000000   1.0000000   1.0000000   1.0000000   1.0000000   1.0000000

  Atom        11          12          13          14          15
 IAtWgt=           1          16          16           1           1
 AtmWgt=   1.0078250  15.9949146  15.9949146   1.0078250   1.0078250
 NucSpn=           1           0           0           1           1
 AtZEff=  -0.0000000  -0.0000000  -0.0000000  -0.0000000  -0.0000000
 NQMom=    0.0000000   0.0000000   0.0000000   0.0000000   0.0000000
 NMagM=    2.7928460   0.0000000   0.0000000   2.7928460   2.7928460
 AtZNuc=   1.0000000   8.0000000   8.0000000   1.0000000   1.0000000
 Leave Link  101 at Wed May  4 20:55:45 2022, MaxMem=  8589934592 cpu:               5.5 elap:               0.8
 (Enter /home/saurabh/g16/l103.exe)

 GradGradGradGradGradGradGradGradGradGradGradGradGradGradGradGradGradGrad
 Berny optimization.
 Initialization pass.
                           ----------------------------
                           !    Initial Parameters    !
                           ! (Angstroms and Degrees)  !
 --------------------------                            --------------------------
 ! Name  Definition         TS        Reactant Product Derivative Info.         !
 --------------------------------------------------------------------------------
 ! R1    R(1,2)             1.5102    1.5312    1.4892 calculate D2E/DX2 analyti!
 ! R2    R(1,5)             1.0908    1.0912    1.0904 calculate D2E/DX2 analyti!
 ! R3    R(1,6)             1.0967    1.0928    1.1007 calculate D2E/DX2 analyti!
 ! R4    R(1,7)             1.0923    1.0904    1.0943 calculate D2E/DX2 analyti!
 ! R5    R(2,3)             1.5088    1.5239    1.4899 calculate D2E/DX2 analyti!
 ! R6    R(2,4)             1.5108    1.5299    1.4917 calculate D2E/DX2 analyti!
 ! R7    R(2,8)             2.0026    1.0933    2.9078 calculate D2E/DX2 analyti!
 ! R8    R(3,12)            1.4315    1.4575    1.4369 calculate D2E/DX2 analyti!
 ! R9    R(3,14)            1.0954    1.0913    1.0995 calculate D2E/DX2 analyti!
 ! R10   R(3,15)            1.0906    1.0892    1.0919 calculate D2E/DX2 analyti!
 ! R11   R(4,9)             1.0968    1.093     1.1006 calculate D2E/DX2 analyti!
 ! R12   R(4,10)            1.0899    1.0896    1.0902 calculate D2E/DX2 analyti!
 ! R13   R(4,11)            1.0921    1.0906    1.0936 calculate D2E/DX2 analyti!
 ! R14   R(8,13)            1.8124    2.6578    0.967  calculate D2E/DX2 analyti!
 ! R15   R(12,13)           1.3955    1.318     1.4509 calculate D2E/DX2 analyti!
 ! A1    A(2,1,5)         111.7895  111.6873  111.889  calculate D2E/DX2 analyti!
 ! A2    A(2,1,6)         111.6273  111.2285  112.0258 calculate D2E/DX2 analyti!
 ! A3    A(2,1,7)         110.9987  110.5048  111.4895 calculate D2E/DX2 analyti!
 ! A4    A(5,1,6)         107.5293  107.9438  107.1149 calculate D2E/DX2 analyti!
 ! A5    A(5,1,7)         108.0131  107.8114  108.2095 calculate D2E/DX2 analyti!
 ! A6    A(6,1,7)         106.646   107.4941  105.7974 calculate D2E/DX2 analyti!
 ! A7    A(1,2,3)         114.2212  109.3405  120.6772 calculate D2E/DX2 analyti!
 ! A8    A(1,2,4)         117.5605  111.7693  119.377  calculate D2E/DX2 analyti!
 ! A9    A(1,2,8)         112.9211  108.4792  116.4228 calculate D2E/DX2 analyti!
 ! A10   A(3,2,4)         117.7791  111.8136  118.8624 calculate D2E/DX2 analyti!
 ! A11   A(3,2,8)          88.9524  106.4176   68.2418 calculate D2E/DX2 analyti!
 ! A12   A(4,2,8)         100.3002  108.824    94.8138 calculate D2E/DX2 analyti!
 ! A13   A(2,3,12)        109.8341  112.0396  114.2065 calculate D2E/DX2 analyti!
 ! A14   A(2,3,14)        110.8125  111.8052  111.8893 calculate D2E/DX2 analyti!
 ! A15   A(2,3,15)        114.1744  111.856   111.6825 calculate D2E/DX2 analyti!
 ! A16   A(12,3,14)       105.0578  103.7847  101.0907 calculate D2E/DX2 analyti!
 ! A17   A(12,3,15)       107.7157  107.0097  109.1092 calculate D2E/DX2 analyti!
 ! A18   A(14,3,15)       108.8051  109.9512  108.2456 calculate D2E/DX2 analyti!
 ! A19   A(2,4,9)         109.8825  110.9265  111.4926 calculate D2E/DX2 analyti!
 ! A20   A(2,4,10)        112.8533  111.5137  111.7179 calculate D2E/DX2 analyti!
 ! A21   A(2,4,11)        111.4127  110.6312  111.7618 calculate D2E/DX2 analyti!
 ! A22   A(9,4,10)        107.3868  107.9788  107.2465 calculate D2E/DX2 analyti!
 ! A23   A(9,4,11)        104.4184  107.693   106.0189 calculate D2E/DX2 analyti!
 ! A24   A(10,4,11)       110.4691  107.9497  108.3189 calculate D2E/DX2 analyti!
 ! A25   A(3,12,13)       105.7005  111.4559  107.6439 calculate D2E/DX2 analyti!
 ! A26   A(8,13,12)        92.645    75.7784  101.3309 calculate D2E/DX2 analyti!
 ! D1    D(5,1,2,3)        42.5638   58.0102   24.3307 calculate D2E/DX2 analyti!
 ! D2    D(5,1,2,4)      -173.2173 -177.6415 -167.704  calculate D2E/DX2 analyti!
 ! D3    D(5,1,2,8)       -57.1343  -57.6556  -54.9198 calculate D2E/DX2 analyti!
 ! D4    D(6,1,2,3)       -77.9289  -62.665   -95.9781 calculate D2E/DX2 analyti!
 ! D5    D(6,1,2,4)        66.2899   61.6833   71.9872 calculate D2E/DX2 analyti!
 ! D6    D(6,1,2,8)      -177.6271 -178.3308 -175.2286 calculate D2E/DX2 analyti!
 ! D7    D(7,1,2,3)       163.2383  178.0223  145.6703 calculate D2E/DX2 analyti!
 ! D8    D(7,1,2,4)       -52.5428  -57.6294  -46.3644 calculate D2E/DX2 analyti!
 ! D9    D(7,1,2,8)        63.5402   62.3565   66.4198 calculate D2E/DX2 analyti!
 ! D10   D(1,2,3,12)     -153.7817 -174.8044 -133.5647 calculate D2E/DX2 analyti!
 ! D11   D(1,2,3,14)       90.5882   69.1663  112.3614 calculate D2E/DX2 analyti!
 ! D12   D(1,2,3,15)      -32.6847  -54.6443   -9.1625 calculate D2E/DX2 analyti!
 ! D13   D(4,2,3,12)       62.0823   60.8733   58.4091 calculate D2E/DX2 analyti!
 ! D14   D(4,2,3,14)      -53.5479  -55.156   -55.6649 calculate D2E/DX2 analyti!
 ! D15   D(4,2,3,15)     -176.8208 -178.9666 -177.1887 calculate D2E/DX2 analyti!
 ! D16   D(8,2,3,12)      -39.0164  -57.8286  -24.8825 calculate D2E/DX2 analyti!
 ! D17   D(8,2,3,14)     -154.6465 -173.8579 -138.9564 calculate D2E/DX2 analyti!
 ! D18   D(8,2,3,15)       82.0806   62.3315   99.5197 calculate D2E/DX2 analyti!
 ! D19   D(1,2,4,9)       -59.1998  -59.3757  -71.2986 calculate D2E/DX2 analyti!
 ! D20   D(1,2,4,10)     -179.018  -179.7698  168.713  calculate D2E/DX2 analyti!
 ! D21   D(1,2,4,11)       56.0292   60.0732   47.1601 calculate D2E/DX2 analyti!
 ! D22   D(3,2,4,9)        83.7383   63.5776   96.8859 calculate D2E/DX2 analyti!
 ! D23   D(3,2,4,10)      -36.0799  -56.8165  -23.1024 calculate D2E/DX2 analyti!
 ! D24   D(3,2,4,11)     -161.0328 -176.9735 -144.6554 calculate D2E/DX2 analyti!
 ! D25   D(8,2,4,9)       178.0239 -179.1591  164.6545 calculate D2E/DX2 analyti!
 ! D26   D(8,2,4,10)       58.2058   60.4468   44.6661 calculate D2E/DX2 analyti!
 ! D27   D(8,2,4,11)      -66.7471  -59.7102  -76.8869 calculate D2E/DX2 analyti!
 ! D28   D(2,3,12,13)      76.6567   74.8955   71.1106 calculate D2E/DX2 analyti!
 ! D29   D(14,3,12,13)   -164.1219 -164.3113 -168.5808 calculate D2E/DX2 analyti!
 ! D30   D(15,3,12,13)    -48.2494  -48.0501  -54.654  calculate D2E/DX2 analyti!
 ! D31   D(3,12,13,8)     -60.138   -38.7117  -98.357  calculate D2E/DX2 analyti!
 --------------------------------------------------------------------------------
 Trust Radius=3.00D-01 FncErr=1.00D-07 GrdErr=1.00D-06 EigMax=2.50D+02 EigMin=1.00D-04
 Number of steps in this run=    100 maximum allowed number of steps=    100.
 Search for a saddle point of order  1.
 GradGradGradGradGradGradGradGradGradGradGradGradGradGradGradGradGradGrad

 Leave Link  103 at Wed May  4 20:55:45 2022, MaxMem=  8589934592 cpu:               0.1 elap:               0.0
 (Enter /home/saurabh/g16/l202.exe)
                          Input orientation:                          
 ---------------------------------------------------------------------
 Center     Atomic      Atomic             Coordinates (Angstroms)
 Number     Number       Type             X           Y           Z
 ---------------------------------------------------------------------
      1          6           0        1.983552   -0.930050   -0.143046
      2          6           0        0.817880    0.024640   -0.040888
      3          6           0       -0.370649   -0.527403    0.706804
      4          6           0        1.129858    1.494208    0.119167
      5          1           0        1.656799   -1.944791   -0.374037
      6          1           0        2.554957   -0.971843    0.792119
      7          1           0        2.681065   -0.614216   -0.922085
      8          1           0       -0.297539    0.074369   -1.703356
      9          1           0        1.722444    1.652859    1.028321
     10          1           0        0.234696    2.110362    0.202223
     11          1           0        1.769165    1.856380   -0.688780
     12          8           0       -1.568123    0.116360    0.258708
     13          8           0       -1.868468   -0.461638   -0.975446
     14          1           0       -0.302911   -0.291173    1.774277
     15          1           0       -0.509607   -1.603059    0.592926
 ---------------------------------------------------------------------
                    Distance matrix (angstroms):
                    1          2          3          4          5
     1  C    0.000000
     2  C    1.510185   0.000000
     3  C    2.535080   1.508773   0.000000
     4  C    2.583519   1.510820   2.585294   0.000000
     5  H    1.090791   2.166432   2.699583   3.513919   0.000000
     6  H    1.096715   2.168943   2.960401   2.926633   1.764436
     7  H    1.092327   2.157800   3.460314   2.817073   1.766325
     8  H    2.940544   2.002607   2.485225   2.715694   3.108622
     9  H    2.848103   2.147682   3.039400   1.096763   3.861865
    10  H    3.524459   2.179322   2.752971   1.089889   4.335749
    11  H    2.847451   2.163326   3.494120   1.092090   3.815833
    12  O    3.724348   2.406487   1.431490   3.032661   3.879282
    13  O    3.968672   2.885539   2.253387   3.743457   3.871555
    14  H    3.051590   2.156556   1.095396   2.824854   3.345171
    15  H    2.685226   2.193934   1.090557   3.536291   2.396896
                    6          7          8          9         10
     6  H    0.000000
     7  H    1.755646   0.000000
     8  H    3.931754   3.155411   0.000000
     9  H    2.763681   3.140488   3.746200   0.000000
    10  H    3.902765   3.830420   2.838974   1.762141   0.000000
    11  H    3.287761   2.643830   2.911391   1.729751   1.792481
    12  O    4.297499   4.470303   2.337913   3.712272   2.688753
    13  O    4.790750   4.552404   1.812450   4.623941   3.524967
    14  H    3.097637   4.034704   3.496796   2.904784   2.920231
    15  H    3.135229   3.667895   2.851604   3.971476   3.807379
                   11         12         13         14         15
    11  H    0.000000
    12  O    3.881095   0.000000
    13  O    4.322935   1.395502   0.000000
    14  H    3.869384   2.015885   3.168754   0.000000
    15  H    4.336276   2.046597   2.368361   1.777459   0.000000
 Stoichiometry    C4H9O2(2)
 Framework group  C1[X(C4H9O2)]
 Deg. of freedom    39
 Full point group                 C1      NOp   1
 Largest Abelian subgroup         C1      NOp   1
 Largest concise Abelian subgroup C1      NOp   1
                         Standard orientation:                         
 ---------------------------------------------------------------------
 Center     Atomic      Atomic             Coordinates (Angstroms)
 Number     Number       Type             X           Y           Z
 ---------------------------------------------------------------------
      1          6           0        1.802986   -1.090859   -0.158737
      2          6           0        0.747056   -0.013619   -0.086462
      3          6           0       -0.412480   -0.343328    0.820822
      4          6           0        1.209507    1.423527   -0.144127
      5          1           0        1.361986   -2.086058   -0.228898
      6          1           0        2.453363   -1.079257    0.724246
      7          1           0        2.450709   -0.946486   -1.026371
      8          1           0       -0.510179   -0.048026   -1.644861
      9          1           0        1.897278    1.627622    0.685455
     10          1           0        0.388053    2.135858   -0.068915
     11          1           0        1.801179    1.616269   -1.041587
     12          8           0       -1.580934    0.363896    0.392206
     13          8           0       -2.049070   -0.324099   -0.728033
     14          1           0       -0.222704    0.011631    1.839587
     15          1           0       -0.662064   -1.404255    0.858980
 ---------------------------------------------------------------------
 Rotational constants (GHZ):           5.4989221           2.2656019           1.9774649
 Leave Link  202 at Wed May  4 20:55:46 2022, MaxMem=  8589934592 cpu:               0.1 elap:               0.0
 (Enter /home/saurabh/g16/l301.exe)
 Standard basis: CC-pVTZ+d (5D, 7F)
 Ernie: Thresh=  0.10000D-02 Tol=  0.10000D-05 Strict=F.
 Ernie:  18 primitive shells out of 228 were deleted.
 There are   345 symmetry adapted cartesian basis functions of A   symmetry.
 There are   306 symmetry adapted basis functions of A   symmetry.
   306 basis functions,   465 primitive gaussians,   345 cartesian basis functions
    25 alpha electrons       24 beta electrons
       nuclear repulsion energy       248.9392521794 Hartrees.
 IExCor=  402 DFT=T Ex+Corr=B3LYP ExCW=0 ScaHFX=  0.200000
 ScaDFX=  0.800000  0.720000  1.000000  0.810000 ScalE2=  1.000000  1.000000
 IRadAn=      5 IRanWt=     -1 IRanGd=            0 ICorTp=0 IEmpDi=  4
 NAtoms=   15 NActive=   15 NUniq=   15 SFac= 1.00D+00 NAtFMM=   60 NAOKFM=F Big=F
 Integral buffers will be    131072 words long.
 Raffenetti 2 integral format.
 Two-electron integral symmetry is turned on.
 Leave Link  301 at Wed May  4 20:55:46 2022, MaxMem=  8589934592 cpu:               0.3 elap:               0.1
 (Enter /home/saurabh/g16/l302.exe)
 NPDir=0 NMtPBC=     1 NCelOv=     1 NCel=       1 NClECP=     1 NCelD=      1
         NCelK=      1 NCelE2=     1 NClLst=     1 CellRange=     0.0.
 One-electron integrals computed using PRISM.
 One-electron integral symmetry used in STVInt
 NBasis=   306 RedAO= T EigKep=  5.23D-04  NBF=   306
 NBsUse=   306 1.00D-06 EigRej= -1.00D+00 NBFU=   306
 Precomputing XC quadrature grid using
 IXCGrd= 4 IRadAn=           5 IRanWt=          -1 IRanGd=           0 AccXCQ= 0.00D+00.
 Generated NRdTot=       0 NPtTot=           0 NUsed=           0 NTot=          32
 NSgBfM=   345   345   345   345   345 MxSgAt=    15 MxSgA2=    15.
 Leave Link  302 at Wed May  4 20:55:46 2022, MaxMem=  8589934592 cpu:               2.1 elap:               0.3
 (Enter /home/saurabh/g16/l303.exe)
 DipDrv:  MaxL=1.
 Leave Link  303 at Wed May  4 20:55:46 2022, MaxMem=  8589934592 cpu:               0.3 elap:               0.1
 (Enter /home/saurabh/g16/l401.exe)
 ExpMin= 1.03D-01 ExpMax= 1.53D+04 ExpMxC= 5.22D+02 IAcc=3 IRadAn=         5 AccDes= 0.00D+00
 Harris functional with IExCor=  402 and IRadAn=       5 diagonalized for initial guess.
 HarFok:  IExCor=  402 AccDes= 0.00D+00 IRadAn=         5 IDoV= 1 UseB2=F ITyADJ=14
 ICtDFT=  3500011 ScaDFX=  1.000000  1.000000  1.000000  1.000000
 FoFCou: FMM=F IPFlag=           0 FMFlag=      100000 FMFlg1=           0
         NFxFlg=           0 DoJE=T BraDBF=F KetDBF=T FulRan=T
         wScrn=  0.000000 ICntrl=       500 IOpCl=  0 I1Cent=   200000004 NGrid=           0
         NMat0=    1 NMatS0=      1 NMatT0=    0 NMatD0=    1 NMtDS0=    0 NMtDT0=    0
 Petite list used in FoFCou.
 Harris En= -308.198288019615    
 JPrj=0 DoOrth=F DoCkMO=F.
 Initial guess <Sx>= 0.0000 <Sy>= 0.0000 <Sz>= 0.5000 <S**2>= 0.7500 S= 0.5000
 Leave Link  401 at Wed May  4 20:55:48 2022, MaxMem=  8589934592 cpu:              13.7 elap:               1.7
 (Enter /home/saurabh/g16/l502.exe)
 Integral symmetry usage will be decided dynamically.
 UHF open shell SCF:
 Using DIIS extrapolation, IDIIS=  1040.
 NGot=  8589934592 LenX=  8589690316 LenY=  8589570850
 Requested convergence on RMS density matrix=1.00D-08 within1000 cycles.
 Requested convergence on MAX density matrix=1.00D-06.
 Requested convergence on             energy=1.00D-06.
 No special actions if energy rises.
 Fock matrices will be formed incrementally for  20 cycles.
 Integral accuracy reduced to 1.0D-05 until final iterations.

 Cycle   1  Pass 0  IDiag  1:
 FoFJK:  IHMeth= 1 ICntrl=       0 DoSepK=F KAlg= 0 I1Cent=           0 FoldK=F
 IRaf= 980000000 NMat=       1 IRICut=       1 DoRegI=T DoRafI=F ISym2E= 0 IDoP0=0 IntGTp=1.
 FoFCou: FMM=F IPFlag=           0 FMFlag=      100000 FMFlg1=           0
         NFxFlg=           0 DoJE=F BraDBF=F KetDBF=F FulRan=T
         wScrn=  0.000000 ICntrl=         0 IOpCl=  1 I1Cent=           0 NGrid=           0
         NMat0=    1 NMatS0=      1 NMatT0=    0 NMatD0=    1 NMtDS0=    0 NMtDT0=    0
 Symmetry not used in FoFCou.
 E= -307.969985948416    
 DIIS: error= 3.44D-02 at cycle   1 NSaved=   1.
 NSaved= 1 IEnMin= 1 EnMin= -307.969985948416     IErMin= 1 ErrMin= 3.44D-02
 ErrMax= 3.44D-02  0.00D+00 EMaxC= 1.00D-01 BMatC= 7.98D-01 BMatP= 7.98D-01
 IDIUse=3 WtCom= 6.56D-01 WtEn= 3.44D-01
 Coeff-Com:  0.100D+01
 Coeff-En:   0.100D+01
 Coeff:      0.100D+01
 Gap=     0.100 Goal=   None    Shift=    0.000
 Gap=     0.119 Goal=   None    Shift=    0.000
 GapD=    0.100 DampG=0.500 DampE=0.500 DampFc=0.2500 IDamp=-1.
 Damping current iteration by 2.50D-01
 RMSDP=2.18D-03 MaxDP=9.53D-02              OVMax= 2.60D-01

 Cycle   2  Pass 0  IDiag  1:
 RMSU=  5.44D-04    CP:  9.97D-01
 E= -308.039994723897     Delta-E=       -0.070008775480 Rises=F Damp=T
 DIIS: error= 1.56D-02 at cycle   2 NSaved=   2.
 NSaved= 2 IEnMin= 2 EnMin= -308.039994723897     IErMin= 2 ErrMin= 1.56D-02
 ErrMax= 1.56D-02  0.00D+00 EMaxC= 1.00D-01 BMatC= 2.05D-01 BMatP= 7.98D-01
 IDIUse=3 WtCom= 8.44D-01 WtEn= 1.56D-01
 Coeff-Com: -0.814D+00 0.181D+01
 Coeff-En:   0.000D+00 0.100D+01
 Coeff:     -0.687D+00 0.169D+01
 Gap=     0.159 Goal=   None    Shift=    0.000
 Gap=     0.121 Goal=   None    Shift=    0.000
 RMSDP=6.44D-04 MaxDP=2.69D-02 DE=-7.00D-02 OVMax= 1.64D-01

 Cycle   3  Pass 0  IDiag  1:
 RMSU=  5.23D-04    CP:  9.96D-01  1.69D+00
 E= -308.155448215461     Delta-E=       -0.115453491564 Rises=F Damp=F
 DIIS: error= 3.75D-03 at cycle   3 NSaved=   3.
 NSaved= 3 IEnMin= 3 EnMin= -308.155448215461     IErMin= 3 ErrMin= 3.75D-03
 ErrMax= 3.75D-03  0.00D+00 EMaxC= 1.00D-01 BMatC= 3.58D-02 BMatP= 2.05D-01
 IDIUse=3 WtCom= 9.63D-01 WtEn= 3.75D-02
 Coeff-Com: -0.346D+00 0.773D+00 0.573D+00
 Coeff-En:   0.000D+00 0.000D+00 0.100D+01
 Coeff:     -0.333D+00 0.744D+00 0.589D+00
 Gap=     0.167 Goal=   None    Shift=    0.000
 Gap=     0.115 Goal=   None    Shift=    0.000
 RMSDP=2.97D-04 MaxDP=1.18D-02 DE=-1.15D-01 OVMax= 4.91D-02

 Cycle   4  Pass 0  IDiag  1:
 RMSU=  2.39D-04    CP:  9.96D-01  1.72D+00  6.65D-01
 E= -308.159736146479     Delta-E=       -0.004287931018 Rises=F Damp=F
 DIIS: error= 3.86D-03 at cycle   4 NSaved=   4.
 NSaved= 4 IEnMin= 4 EnMin= -308.159736146479     IErMin= 3 ErrMin= 3.75D-03
 ErrMax= 3.86D-03  0.00D+00 EMaxC= 1.00D-01 BMatC= 2.10D-02 BMatP= 3.58D-02
 IDIUse=3 WtCom= 9.61D-01 WtEn= 3.86D-02
 Coeff-Com: -0.431D-01 0.114D+00 0.423D+00 0.506D+00
 Coeff-En:   0.000D+00 0.000D+00 0.333D+00 0.667D+00
 Coeff:     -0.414D-01 0.110D+00 0.419D+00 0.512D+00
 Gap=     0.168 Goal=   None    Shift=    0.000
 Gap=     0.117 Goal=   None    Shift=    0.000
 RMSDP=1.61D-04 MaxDP=7.04D-03 DE=-4.29D-03 OVMax= 3.09D-02

 Cycle   5  Pass 0  IDiag  1:
 RMSU=  1.28D-04    CP:  9.95D-01  1.74D+00  8.05D-01  7.32D-01
 E= -308.163413946125     Delta-E=       -0.003677799647 Rises=F Damp=F
 DIIS: error= 1.20D-03 at cycle   5 NSaved=   5.
 NSaved= 5 IEnMin= 5 EnMin= -308.163413946125     IErMin= 5 ErrMin= 1.20D-03
 ErrMax= 1.20D-03  0.00D+00 EMaxC= 1.00D-01 BMatC= 2.48D-03 BMatP= 2.10D-02
 IDIUse=3 WtCom= 9.88D-01 WtEn= 1.20D-02
 Coeff-Com:  0.129D-01-0.137D-01 0.202D+00 0.324D+00 0.475D+00
 Coeff-En:   0.000D+00 0.000D+00 0.000D+00 0.000D+00 0.100D+01
 Coeff:      0.127D-01-0.136D-01 0.200D+00 0.320D+00 0.481D+00
 Gap=     0.172 Goal=   None    Shift=    0.000
 Gap=     0.118 Goal=   None    Shift=    0.000
 RMSDP=7.88D-05 MaxDP=6.48D-03 DE=-3.68D-03 OVMax= 1.96D-02

 Cycle   6  Pass 0  IDiag  1:
 RMSU=  6.30D-05    CP:  9.96D-01  1.70D+00  8.45D-01  8.39D-01  8.07D-01
 E= -308.164156919979     Delta-E=       -0.000742973853 Rises=F Damp=F
 DIIS: error= 6.87D-04 at cycle   6 NSaved=   6.
 NSaved= 6 IEnMin= 6 EnMin= -308.164156919979     IErMin= 6 ErrMin= 6.87D-04
 ErrMax= 6.87D-04  0.00D+00 EMaxC= 1.00D-01 BMatC= 6.04D-04 BMatP= 2.48D-03
 IDIUse=3 WtCom= 9.93D-01 WtEn= 6.87D-03
 Coeff-Com:  0.289D-01-0.561D-01 0.123D-01 0.563D-01 0.311D+00 0.648D+00
 Coeff-En:   0.000D+00 0.000D+00 0.000D+00 0.000D+00 0.000D+00 0.100D+01
 Coeff:      0.287D-01-0.557D-01 0.122D-01 0.559D-01 0.308D+00 0.650D+00
 Gap=     0.174 Goal=   None    Shift=    0.000
 Gap=     0.121 Goal=   None    Shift=    0.000
 RMSDP=5.89D-05 MaxDP=4.75D-03 DE=-7.43D-04 OVMax= 1.49D-02

 Cycle   7  Pass 0  IDiag  1:
 RMSU=  3.33D-05    CP:  9.95D-01  1.70D+00  8.59D-01  9.50D-01  1.10D+00
                    CP:  1.21D+00
 E= -308.164490677708     Delta-E=       -0.000333757729 Rises=F Damp=F
 DIIS: error= 4.02D-04 at cycle   7 NSaved=   7.
 NSaved= 7 IEnMin= 7 EnMin= -308.164490677708     IErMin= 7 ErrMin= 4.02D-04
 ErrMax= 4.02D-04  0.00D+00 EMaxC= 1.00D-01 BMatC= 1.83D-04 BMatP= 6.04D-04
 IDIUse=3 WtCom= 9.96D-01 WtEn= 4.02D-03
 Coeff-Com:  0.129D-01-0.277D-01-0.563D-01-0.710D-01 0.564D-01 0.377D+00
 Coeff-Com:  0.709D+00
 Coeff-En:   0.000D+00 0.000D+00 0.000D+00 0.000D+00 0.000D+00 0.000D+00
 Coeff-En:   0.100D+01
 Coeff:      0.129D-01-0.276D-01-0.561D-01-0.708D-01 0.562D-01 0.375D+00
 Coeff:      0.710D+00
 Gap=     0.176 Goal=   None    Shift=    0.000
 Gap=     0.123 Goal=   None    Shift=    0.000
 RMSDP=4.93D-05 MaxDP=4.77D-03 DE=-3.34D-04 OVMax= 1.17D-02

 Cycle   8  Pass 0  IDiag  1:
 RMSU=  2.82D-05    CP:  9.95D-01  1.71D+00  8.79D-01  1.00D+00  1.27D+00
                    CP:  1.68D+00  8.89D-01
 E= -308.164678171526     Delta-E=       -0.000187493819 Rises=F Damp=F
 DIIS: error= 2.67D-04 at cycle   8 NSaved=   8.
 NSaved= 8 IEnMin= 8 EnMin= -308.164678171526     IErMin= 8 ErrMin= 2.67D-04
 ErrMax= 2.67D-04  0.00D+00 EMaxC= 1.00D-01 BMatC= 1.40D-04 BMatP= 1.83D-04
 IDIUse=3 WtCom= 9.97D-01 WtEn= 2.67D-03
 Coeff-Com: -0.631D-02 0.983D-02-0.481D-01-0.850D-01-0.131D+00-0.208D+00
 Coeff-Com:  0.611D+00 0.858D+00
 Coeff-En:   0.000D+00 0.000D+00 0.000D+00 0.000D+00 0.000D+00 0.000D+00
 Coeff-En:   0.000D+00 0.100D+01
 Coeff:     -0.629D-02 0.981D-02-0.480D-01-0.848D-01-0.131D+00-0.208D+00
 Coeff:      0.609D+00 0.859D+00
 Gap=     0.178 Goal=   None    Shift=    0.000
 Gap=     0.126 Goal=   None    Shift=    0.000
 RMSDP=5.71D-05 MaxDP=5.09D-03 DE=-1.87D-04 OVMax= 1.34D-02

 Cycle   9  Pass 0  IDiag  1:
 RMSU=  1.43D-05    CP:  9.95D-01  1.70D+00  8.90D-01  1.09D+00  1.49D+00
                    CP:  2.19D+00  1.65D+00  1.41D+00
 E= -308.164829641841     Delta-E=       -0.000151470315 Rises=F Damp=F
 DIIS: error= 1.64D-04 at cycle   9 NSaved=   9.
 NSaved= 9 IEnMin= 9 EnMin= -308.164829641841     IErMin= 9 ErrMin= 1.64D-04
 ErrMax= 1.64D-04  0.00D+00 EMaxC= 1.00D-01 BMatC= 1.67D-05 BMatP= 1.40D-04
 IDIUse=3 WtCom= 9.98D-01 WtEn= 1.64D-03
 Coeff-Com: -0.307D-02 0.573D-02 0.102D-01 0.223D-01 0.198D-01-0.130D+00
 Coeff-Com: -0.100D+00-0.259D-01 0.120D+01
 Coeff-En:   0.000D+00 0.000D+00 0.000D+00 0.000D+00 0.000D+00 0.000D+00
 Coeff-En:   0.000D+00 0.000D+00 0.100D+01
 Coeff:     -0.307D-02 0.572D-02 0.102D-01 0.222D-01 0.197D-01-0.129D+00
 Coeff:     -0.100D+00-0.258D-01 0.120D+01
 Gap=     0.179 Goal=   None    Shift=    0.000
 Gap=     0.127 Goal=   None    Shift=    0.000
 RMSDP=3.00D-05 MaxDP=2.56D-03 DE=-1.51D-04 OVMax= 8.69D-03

 Cycle  10  Pass 0  IDiag  1:
 RMSU=  8.11D-06    CP:  9.95D-01  1.70D+00  8.93D-01  1.11D+00  1.55D+00
                    CP:  2.45D+00  2.02D+00  1.95D+00  1.71D+00
 E= -308.164869593090     Delta-E=       -0.000039951249 Rises=F Damp=F
 DIIS: error= 8.84D-05 at cycle  10 NSaved=  10.
 NSaved=10 IEnMin=10 EnMin= -308.164869593090     IErMin=10 ErrMin= 8.84D-05
 ErrMax= 8.84D-05  0.00D+00 EMaxC= 1.00D-01 BMatC= 6.63D-06 BMatP= 1.67D-05
 IDIUse=1 WtCom= 1.00D+00 WtEn= 0.00D+00
 Coeff-Com:  0.160D-02-0.264D-02 0.265D-01 0.525D-01 0.855D-01 0.295D-01
 Coeff-Com: -0.342D+00-0.401D+00 0.485D+00 0.106D+01
 Coeff:      0.160D-02-0.264D-02 0.265D-01 0.525D-01 0.855D-01 0.295D-01
 Coeff:     -0.342D+00-0.401D+00 0.485D+00 0.106D+01
 Gap=     0.180 Goal=   None    Shift=    0.000
 Gap=     0.128 Goal=   None    Shift=    0.000
 RMSDP=2.45D-05 MaxDP=2.31D-03 DE=-4.00D-05 OVMax= 6.70D-03

 Cycle  11  Pass 0  IDiag  1:
 RMSU=  3.88D-06    CP:  9.95D-01  1.70D+00  8.92D-01  1.13D+00  1.60D+00
                    CP:  2.62D+00  2.30D+00  2.42D+00  2.54D+00  1.30D+00
 E= -308.164885567224     Delta-E=       -0.000015974133 Rises=F Damp=F
 DIIS: error= 3.07D-05 at cycle  11 NSaved=  11.
 NSaved=11 IEnMin=11 EnMin= -308.164885567224     IErMin=11 ErrMin= 3.07D-05
 ErrMax= 3.07D-05  0.00D+00 EMaxC= 1.00D-01 BMatC= 8.01D-07 BMatP= 6.63D-06
 IDIUse=1 WtCom= 1.00D+00 WtEn= 0.00D+00
 Coeff-Com:  0.110D-02-0.189D-02 0.300D-02 0.539D-02 0.127D-01 0.382D-01
 Coeff-Com: -0.671D-01-0.681D-01-0.152D+00 0.198D+00 0.103D+01
 Coeff:      0.110D-02-0.189D-02 0.300D-02 0.539D-02 0.127D-01 0.382D-01
 Coeff:     -0.671D-01-0.681D-01-0.152D+00 0.198D+00 0.103D+01
 Gap=     0.180 Goal=   None    Shift=    0.000
 Gap=     0.128 Goal=   None    Shift=    0.000
 RMSDP=9.65D-06 MaxDP=7.01D-04 DE=-1.60D-05 OVMax= 2.91D-03

 Initial convergence to 1.0D-05 achieved.  Increase integral accuracy.
 Cycle  12  Pass 1  IDiag  1:
 E= -308.164883988332     Delta-E=        0.000001578892 Rises=F Damp=F
 DIIS: error= 2.34D-05 at cycle   1 NSaved=   1.
 NSaved= 1 IEnMin= 1 EnMin= -308.164883988332     IErMin= 1 ErrMin= 2.34D-05
 ErrMax= 2.34D-05  0.00D+00 EMaxC= 1.00D-01 BMatC= 5.76D-07 BMatP= 5.76D-07
 IDIUse=1 WtCom= 1.00D+00 WtEn= 0.00D+00
 Coeff-Com:  0.100D+01
 Coeff:      0.100D+01
 Gap=     0.180 Goal=   None    Shift=    0.000
 Gap=     0.128 Goal=   None    Shift=    0.000
 RMSDP=9.65D-06 MaxDP=7.01D-04 DE= 1.58D-06 OVMax= 4.80D-04

 Cycle  13  Pass 1  IDiag  1:
 RMSU=  4.37D-06    CP:  1.00D+00
 E= -308.164884142992     Delta-E=       -0.000000154660 Rises=F Damp=F
 DIIS: error= 7.84D-06 at cycle   2 NSaved=   2.
 NSaved= 2 IEnMin= 2 EnMin= -308.164884142992     IErMin= 2 ErrMin= 7.84D-06
 ErrMax= 7.84D-06  0.00D+00 EMaxC= 1.00D-01 BMatC= 1.01D-07 BMatP= 5.76D-07
 IDIUse=1 WtCom= 1.00D+00 WtEn= 0.00D+00
 Coeff-Com:  0.151D+00 0.849D+00
 Coeff:      0.151D+00 0.849D+00
 Gap=     0.180 Goal=   None    Shift=    0.000
 Gap=     0.128 Goal=   None    Shift=    0.000
 RMSDP=1.02D-06 MaxDP=6.02D-05 DE=-1.55D-07 OVMax= 3.68D-04

 Cycle  14  Pass 1  IDiag  1:
 RMSU=  9.84D-07    CP:  1.00D+00  1.06D+00
 E= -308.164884189167     Delta-E=       -0.000000046175 Rises=F Damp=F
 DIIS: error= 1.06D-05 at cycle   3 NSaved=   3.
 NSaved= 3 IEnMin= 3 EnMin= -308.164884189167     IErMin= 2 ErrMin= 7.84D-06
 ErrMax= 1.06D-05  0.00D+00 EMaxC= 1.00D-01 BMatC= 1.72D-07 BMatP= 1.01D-07
 IDIUse=1 WtCom= 1.00D+00 WtEn= 0.00D+00
 Coeff-Com: -0.151D-01 0.592D+00 0.423D+00
 Coeff:     -0.151D-01 0.592D+00 0.423D+00
 Gap=     0.180 Goal=   None    Shift=    0.000
 Gap=     0.128 Goal=   None    Shift=    0.000
 RMSDP=5.39D-07 MaxDP=2.87D-05 DE=-4.62D-08 OVMax= 1.41D-04

 Cycle  15  Pass 1  IDiag  1:
 RMSU=  4.98D-07    CP:  1.00D+00  1.10D+00  1.13D+00
 E= -308.164884237189     Delta-E=       -0.000000048022 Rises=F Damp=F
 DIIS: error= 4.23D-06 at cycle   4 NSaved=   4.
 NSaved= 4 IEnMin= 4 EnMin= -308.164884237189     IErMin= 4 ErrMin= 4.23D-06
 ErrMax= 4.23D-06  0.00D+00 EMaxC= 1.00D-01 BMatC= 2.45D-08 BMatP= 1.01D-07
 IDIUse=1 WtCom= 1.00D+00 WtEn= 0.00D+00
 Coeff-Com: -0.402D-01 0.146D+00 0.196D+00 0.699D+00
 Coeff:     -0.402D-01 0.146D+00 0.196D+00 0.699D+00
 Gap=     0.180 Goal=   None    Shift=    0.000
 Gap=     0.128 Goal=   None    Shift=    0.000
 RMSDP=5.59D-07 MaxDP=3.74D-05 DE=-4.80D-08 OVMax= 2.03D-04

 Cycle  16  Pass 1  IDiag  1:
 RMSU=  2.67D-07    CP:  1.00D+00  1.14D+00  1.55D+00  1.39D+00
 E= -308.164884262147     Delta-E=       -0.000000024958 Rises=F Damp=F
 DIIS: error= 3.40D-06 at cycle   5 NSaved=   5.
 NSaved= 5 IEnMin= 5 EnMin= -308.164884262147     IErMin= 5 ErrMin= 3.40D-06
 ErrMax= 3.40D-06  0.00D+00 EMaxC= 1.00D-01 BMatC= 1.84D-08 BMatP= 2.45D-08
 IDIUse=1 WtCom= 1.00D+00 WtEn= 0.00D+00
 Coeff-Com: -0.118D-01-0.520D+00-0.375D+00 0.656D+00 0.125D+01
 Coeff:     -0.118D-01-0.520D+00-0.375D+00 0.656D+00 0.125D+01
 Gap=     0.180 Goal=   None    Shift=    0.000
 Gap=     0.128 Goal=   None    Shift=    0.000
 RMSDP=1.22D-06 MaxDP=7.38D-05 DE=-2.50D-08 OVMax= 4.56D-04

 Cycle  17  Pass 1  IDiag  1:
 RMSU=  2.32D-07    CP:  1.00D+00  1.23D+00  2.51D+00  2.62D+00  1.59D+00
 E= -308.164884296781     Delta-E=       -0.000000034634 Rises=F Damp=F
 DIIS: error= 2.28D-06 at cycle   6 NSaved=   6.
 NSaved= 6 IEnMin= 6 EnMin= -308.164884296781     IErMin= 6 ErrMin= 2.28D-06
 ErrMax= 2.28D-06  0.00D+00 EMaxC= 1.00D-01 BMatC= 9.38D-09 BMatP= 1.84D-08
 IDIUse=1 WtCom= 1.00D+00 WtEn= 0.00D+00
 Coeff-Com:  0.202D-02-0.460D+00-0.368D+00 0.296D+00 0.983D+00 0.547D+00
 Coeff:      0.202D-02-0.460D+00-0.368D+00 0.296D+00 0.983D+00 0.547D+00
 Gap=     0.180 Goal=   None    Shift=    0.000
 Gap=     0.128 Goal=   None    Shift=    0.000
 RMSDP=5.37D-07 MaxDP=3.74D-05 DE=-3.46D-08 OVMax= 1.67D-04

 Cycle  18  Pass 1  IDiag  1:
 RMSU=  1.38D-07    CP:  1.00D+00  1.26D+00  2.92D+00  3.00D+00  1.95D+00
                    CP:  7.01D-01
 E= -308.164884304145     Delta-E=       -0.000000007365 Rises=F Damp=F
 DIIS: error= 7.97D-07 at cycle   7 NSaved=   7.
 NSaved= 7 IEnMin= 7 EnMin= -308.164884304145     IErMin= 7 ErrMin= 7.97D-07
 ErrMax= 7.97D-07  0.00D+00 EMaxC= 1.00D-01 BMatC= 1.26D-09 BMatP= 9.38D-09
 IDIUse=1 WtCom= 1.00D+00 WtEn= 0.00D+00
 Coeff-Com:  0.473D-02-0.124D+00-0.114D+00 0.222D-01 0.229D+00 0.310D+00
 Coeff-Com:  0.673D+00
 Coeff:      0.473D-02-0.124D+00-0.114D+00 0.222D-01 0.229D+00 0.310D+00
 Coeff:      0.673D+00
 Gap=     0.180 Goal=   None    Shift=    0.000
 Gap=     0.128 Goal=   None    Shift=    0.000
 RMSDP=1.52D-07 MaxDP=9.45D-06 DE=-7.36D-09 OVMax= 5.71D-05

 Cycle  19  Pass 1  IDiag  1:
 RMSU=  7.31D-08    CP:  1.00D+00  1.27D+00  3.00D+00  3.00D+00  2.09D+00
                    CP:  8.87D-01  1.31D+00
 E= -308.164884305040     Delta-E=       -0.000000000895 Rises=F Damp=F
 DIIS: error= 3.38D-07 at cycle   8 NSaved=   8.
 NSaved= 8 IEnMin= 8 EnMin= -308.164884305040     IErMin= 8 ErrMin= 3.38D-07
 ErrMax= 3.38D-07  0.00D+00 EMaxC= 1.00D-01 BMatC= 1.87D-10 BMatP= 1.26D-09
 IDIUse=1 WtCom= 1.00D+00 WtEn= 0.00D+00
 Coeff-Com: -0.383D-03 0.151D+00 0.114D+00-0.879D-01-0.357D+00-0.137D+00
 Coeff-Com:  0.411D-01 0.128D+01
 Coeff:     -0.383D-03 0.151D+00 0.114D+00-0.879D-01-0.357D+00-0.137D+00
 Coeff:      0.411D-01 0.128D+01
 Gap=     0.180 Goal=   None    Shift=    0.000
 Gap=     0.128 Goal=   None    Shift=    0.000
 RMSDP=1.11D-07 MaxDP=8.63D-06 DE=-8.95D-10 OVMax= 3.92D-05

 Cycle  20  Pass 1  IDiag  1:
 RMSU=  6.32D-08    CP:  1.00D+00  1.28D+00  3.00D+00  3.00D+00  2.16D+00
                    CP:  1.04D+00  1.77D+00  1.60D+00
 E= -308.164884305312     Delta-E=       -0.000000000271 Rises=F Damp=F
 DIIS: error= 1.81D-07 at cycle   9 NSaved=   9.
 NSaved= 9 IEnMin= 9 EnMin= -308.164884305312     IErMin= 9 ErrMin= 1.81D-07
 ErrMax= 1.81D-07  0.00D+00 EMaxC= 1.00D-01 BMatC= 7.51D-11 BMatP= 1.87D-10
 IDIUse=1 WtCom= 1.00D+00 WtEn= 0.00D+00
 Coeff-Com: -0.880D-03 0.105D+00 0.815D-01-0.503D-01-0.236D+00-0.122D+00
 Coeff-Com: -0.902D-01 0.744D+00 0.568D+00
 Coeff:     -0.880D-03 0.105D+00 0.815D-01-0.503D-01-0.236D+00-0.122D+00
 Coeff:     -0.902D-01 0.744D+00 0.568D+00
 Gap=     0.180 Goal=   None    Shift=    0.000
 Gap=     0.128 Goal=   None    Shift=    0.000
 RMSDP=2.10D-08 MaxDP=1.37D-06 DE=-2.71D-10 OVMax= 4.41D-06

 Cycle  21  Pass 1  IDiag  1:
 RMSU=  1.51D-08    CP:  1.00D+00  1.28D+00  3.00D+00  3.00D+00  2.18D+00
                    CP:  1.06D+00  1.83D+00  1.74D+00  9.98D-01
 E= -308.164884305334     Delta-E=       -0.000000000023 Rises=F Damp=F
 DIIS: error= 8.54D-08 at cycle  10 NSaved=  10.
 NSaved=10 IEnMin=10 EnMin= -308.164884305334     IErMin=10 ErrMin= 8.54D-08
 ErrMax= 8.54D-08  0.00D+00 EMaxC= 1.00D-01 BMatC= 7.87D-12 BMatP= 7.51D-11
 IDIUse=1 WtCom= 1.00D+00 WtEn= 0.00D+00
 Coeff-Com: -0.325D-03 0.184D-01 0.145D-01-0.544D-02-0.398D-01-0.260D-01
 Coeff-Com: -0.556D-01 0.102D+00 0.228D+00 0.765D+00
 Coeff:     -0.325D-03 0.184D-01 0.145D-01-0.544D-02-0.398D-01-0.260D-01
 Coeff:     -0.556D-01 0.102D+00 0.228D+00 0.765D+00
 Gap=     0.180 Goal=   None    Shift=    0.000
 Gap=     0.128 Goal=   None    Shift=    0.000
 RMSDP=8.39D-09 MaxDP=5.63D-07 DE=-2.25D-11 OVMax= 1.96D-06

 SCF Done:  E(UB3LYP) =  -308.164884305     A.U. after   21 cycles
            NFock= 21  Conv=0.84D-08     -V/T= 2.0075
 <Sx>= 0.0000 <Sy>= 0.0000 <Sz>= 0.5000 <S**2>= 0.8584 S= 0.5528
 <L.S>= 0.000000000000E+00
 KE= 3.058655337659D+02 PE=-1.217674123381D+03 EE= 3.547044531305D+02
 Annihilation of the first spin contaminant:
 S**2 before annihilation     0.8584,   after     0.7508
 Leave Link  502 at Wed May  4 20:57:41 2022, MaxMem=  8589934592 cpu:             905.1 elap:             113.1
 (Enter /home/saurabh/g16/l801.exe)
 DoSCS=F DFT=T ScalE2(SS,OS)=  1.000000  1.000000
 Range of M.O.s used for correlation:     1   306
 NBasis=   306 NAE=    25 NBE=    24 NFC=     0 NFV=     0
 NROrb=    306 NOA=    25 NOB=    24 NVA=   281 NVB=   282

 **** Warning!!: The largest alpha MO coefficient is  0.10874275D+02


 **** Warning!!: The largest beta MO coefficient is  0.10872278D+02

 Leave Link  801 at Wed May  4 20:57:41 2022, MaxMem=  8589934592 cpu:               0.2 elap:               0.0
 (Enter /home/saurabh/g16/l1101.exe)
 Using compressed storage, NAtomX=    15.
 Will process     16 centers per pass.
 Leave Link 1101 at Wed May  4 20:57:41 2022, MaxMem=  8589934592 cpu:               2.2 elap:               0.3
 (Enter /home/saurabh/g16/l1102.exe)
 Symmetrizing basis deriv contribution to polar:
 IMax=3 JMax=2 DiffMx= 0.00D+00
 Leave Link 1102 at Wed May  4 20:57:41 2022, MaxMem=  8589934592 cpu:               0.3 elap:               0.1
 (Enter /home/saurabh/g16/l1110.exe)
 Forming Gx(P) for the SCF density, NAtomX=    15.
 Integral derivatives from FoFJK, PRISM(SPDF).
 Do as many integral derivatives as possible in FoFJK.
 G2DrvN: MDV=    8589932911.
 G2DrvN: will do    16 centers at a time, making    1 passes.
 Calling FoFCou, ICntrl=  3107 FMM=F I1Cent=   0 AccDes= 0.00D+00.
 FoFJK:  IHMeth= 1 ICntrl=    3107 DoSepK=F KAlg= 0 I1Cent=           0 FoldK=F
 IRaf=         0 NMat=       1 IRICut=       1 DoRegI=T DoRafI=F ISym2E= 0 IDoP0=0 IntGTp=1.
 FoFCou: FMM=F IPFlag=           0 FMFlag=      100000 FMFlg1=           0
         NFxFlg=           0 DoJE=F BraDBF=F KetDBF=F FulRan=T
         wScrn=  0.000000 ICntrl=      3107 IOpCl=  1 I1Cent=           0 NGrid=           0
         NMat0=    1 NMatS0=      1 NMatT0=    0 NMatD0=    1 NMtDS0=    0 NMtDT0=    0
 Symmetry not used in FoFCou.
 End of G2Drv F.D. properties file   721 does not exist.
 End of G2Drv F.D. properties file   722 does not exist.
 End of G2Drv F.D. properties file   788 does not exist.
 Leave Link 1110 at Wed May  4 21:00:23 2022, MaxMem=  8589934592 cpu:            1294.5 elap:             161.7
 (Enter /home/saurabh/g16/l1002.exe)
 Minotr:  UHF open shell wavefunction.
          IDoAtm=111111111111111
          Direct CPHF calculation.
          Differentiating once with respect to nuclear coordinates.
          Requested convergence is 1.0D-08 RMS, and 1.0D-07 maximum.
          Secondary convergence is 1.0D-12 RMS, and 1.0D-12 maximum.
          NewPWx=T KeepS1=F KeepF1=F KeepIn=T MapXYZ=F SortEE=F KeepMc=T.
         4457 words used for storage of precomputed grid.
 Keep R1 and R2 ints in memory in canonical form, NReq=2227041650.
 FoFCou: FMM=F IPFlag=           0 FMFlag=           0 FMFlg1=           0
         NFxFlg=           0 DoJE=F BraDBF=F KetDBF=F FulRan=T
         wScrn=  0.000000 ICntrl=       600 IOpCl=  0 I1Cent=           0 NGrid=           0
         NMat0=    1 NMatS0=  46971 NMatT0=    0 NMatD0=    1 NMtDS0=    0 NMtDT0=    0
 Symmetry not used in FoFCou.
 Two-electron integral symmetry not used.
          MDV=    8589934592 using IRadAn=       1.
          Solving linear equations simultaneously, MaxMat=       0.
          There are    48 degrees of freedom in the 1st order CPHF.  IDoFFX=6 NUNeed=     0.
     42 vectors produced by pass  0 Test12= 2.87D-14 2.08D-09 XBig12= 2.29D-01 1.83D-01.
 AX will form    42 AO Fock derivatives at one time.
     42 vectors produced by pass  1 Test12= 2.87D-14 2.08D-09 XBig12= 9.87D-02 7.61D-02.
     42 vectors produced by pass  2 Test12= 2.87D-14 2.08D-09 XBig12= 2.00D-03 5.19D-03.
     42 vectors produced by pass  3 Test12= 2.87D-14 2.08D-09 XBig12= 2.21D-05 5.28D-04.
     42 vectors produced by pass  4 Test12= 2.87D-14 2.08D-09 XBig12= 1.98D-07 4.58D-05.
     42 vectors produced by pass  5 Test12= 2.87D-14 2.08D-09 XBig12= 1.21D-09 3.29D-06.
     31 vectors produced by pass  6 Test12= 2.87D-14 2.08D-09 XBig12= 6.59D-12 2.60D-07.
      9 vectors produced by pass  7 Test12= 2.87D-14 2.08D-09 XBig12= 2.20D-14 1.28D-08.
 InvSVY:  IOpt=1 It=  1 EMax= 2.44D-15
 Solved reduced A of dimension   292 with    42 vectors.
 End of Minotr F.D. properties file   721 does not exist.
 End of Minotr F.D. properties file   722 does not exist.
 End of Minotr F.D. properties file   788 does not exist.
 Leave Link 1002 at Wed May  4 21:04:38 2022, MaxMem=  8589934592 cpu:            2032.3 elap:             254.7
 (Enter /home/saurabh/g16/l601.exe)
 Copying SCF densities to generalized density rwf, IOpCl= 1 IROHF=0.

 **********************************************************************

            Population analysis using the SCF Density.

 **********************************************************************

 Orbital symmetries:
 Alpha Orbitals:
       Occupied  (A) (A) (A) (A) (A) (A) (A) (A) (A) (A) (A) (A)
                 (A) (A) (A) (A) (A) (A) (A) (A) (A) (A) (A) (A)
                 (A)
       Virtual   (A) (A) (A) (A) (A) (A) (A) (A) (A) (A) (A) (A)
                 (A) (A) (A) (A) (A) (A) (A) (A) (A) (A) (A) (A)
                 (A) (A) (A) (A) (A) (A) (A) (A) (A) (A) (A) (A)
                 (A) (A) (A) (A) (A) (A) (A) (A) (A) (A) (A) (A)
                 (A) (A) (A) (A) (A) (A) (A) (A) (A) (A) (A) (A)
                 (A) (A) (A) (A) (A) (A) (A) (A) (A) (A) (A) (A)
                 (A) (A) (A) (A) (A) (A) (A) (A) (A) (A) (A) (A)
                 (A) (A) (A) (A) (A) (A) (A) (A) (A) (A) (A) (A)
                 (A) (A) (A) (A) (A) (A) (A) (A) (A) (A) (A) (A)
                 (A) (A) (A) (A) (A) (A) (A) (A) (A) (A) (A) (A)
                 (A) (A) (A) (A) (A) (A) (A) (A) (A) (A) (A) (A)
                 (A) (A) (A) (A) (A) (A) (A) (A) (A) (A) (A) (A)
                 (A) (A) (A) (A) (A) (A) (A) (A) (A) (A) (A) (A)
                 (A) (A) (A) (A) (A) (A) (A) (A) (A) (A) (A) (A)
                 (A) (A) (A) (A) (A) (A) (A) (A) (A) (A) (A) (A)
                 (A) (A) (A) (A) (A) (A) (A) (A) (A) (A) (A) (A)
                 (A) (A) (A) (A) (A) (A) (A) (A) (A) (A) (A) (A)
                 (A) (A) (A) (A) (A) (A) (A) (A) (A) (A) (A) (A)
                 (A) (A) (A) (A) (A) (A) (A) (A) (A) (A) (A) (A)
                 (A) (A) (A) (A) (A) (A) (A) (A) (A) (A) (A) (A)
                 (A) (A) (A) (A) (A) (A) (A) (A) (A) (A) (A) (A)
                 (A) (A) (A) (A) (A) (A) (A) (A) (A) (A) (A) (A)
                 (A) (A) (A) (A) (A) (A) (A) (A) (A) (A) (A) (A)
                 (A) (A) (A) (A) (A)
 Beta  Orbitals:
       Occupied  (A) (A) (A) (A) (A) (A) (A) (A) (A) (A) (A) (A)
                 (A) (A) (A) (A) (A) (A) (A) (A) (A) (A) (A) (A)
       Virtual   (A) (A) (A) (A) (A) (A) (A) (A) (A) (A) (A) (A)
                 (A) (A) (A) (A) (A) (A) (A) (A) (A) (A) (A) (A)
                 (A) (A) (A) (A) (A) (A) (A) (A) (A) (A) (A) (A)
                 (A) (A) (A) (A) (A) (A) (A) (A) (A) (A) (A) (A)
                 (A) (A) (A) (A) (A) (A) (A) (A) (A) (A) (A) (A)
                 (A) (A) (A) (A) (A) (A) (A) (A) (A) (A) (A) (A)
                 (A) (A) (A) (A) (A) (A) (A) (A) (A) (A) (A) (A)
                 (A) (A) (A) (A) (A) (A) (A) (A) (A) (A) (A) (A)
                 (A) (A) (A) (A) (A) (A) (A) (A) (A) (A) (A) (A)
                 (A) (A) (A) (A) (A) (A) (A) (A) (A) (A) (A) (A)
                 (A) (A) (A) (A) (A) (A) (A) (A) (A) (A) (A) (A)
                 (A) (A) (A) (A) (A) (A) (A) (A) (A) (A) (A) (A)
                 (A) (A) (A) (A) (A) (A) (A) (A) (A) (A) (A) (A)
                 (A) (A) (A) (A) (A) (A) (A) (A) (A) (A) (A) (A)
                 (A) (A) (A) (A) (A) (A) (A) (A) (A) (A) (A) (A)
                 (A) (A) (A) (A) (A) (A) (A) (A) (A) (A) (A) (A)
                 (A) (A) (A) (A) (A) (A) (A) (A) (A) (A) (A) (A)
                 (A) (A) (A) (A) (A) (A) (A) (A) (A) (A) (A) (A)
                 (A) (A) (A) (A) (A) (A) (A) (A) (A) (A) (A) (A)
                 (A) (A) (A) (A) (A) (A) (A) (A) (A) (A) (A) (A)
                 (A) (A) (A) (A) (A) (A) (A) (A) (A) (A) (A) (A)
                 (A) (A) (A) (A) (A) (A) (A) (A) (A) (A) (A) (A)
                 (A) (A) (A) (A) (A) (A) (A) (A) (A) (A) (A) (A)
                 (A) (A) (A) (A) (A) (A)
 The electronic state is 2-A.
 Alpha  occ. eigenvalues --  -19.21164 -19.19202 -10.24220 -10.23994 -10.18929
 Alpha  occ. eigenvalues --  -10.18542  -1.13701  -0.88080  -0.81649  -0.71637
 Alpha  occ. eigenvalues --   -0.68891  -0.57156  -0.50765  -0.50127  -0.48467
 Alpha  occ. eigenvalues --   -0.44797  -0.43378  -0.42915  -0.40903  -0.38891
 Alpha  occ. eigenvalues --   -0.37507  -0.36837  -0.29516  -0.27312  -0.23477
 Alpha virt. eigenvalues --   -0.05445   0.02667   0.04902   0.06479   0.07152
 Alpha virt. eigenvalues --    0.08839   0.09075   0.10236   0.12043   0.13149
 Alpha virt. eigenvalues --    0.14130   0.14448   0.18675   0.20568   0.22692
 Alpha virt. eigenvalues --    0.24756   0.26679   0.28952   0.30457   0.33042
 Alpha virt. eigenvalues --    0.33962   0.35202   0.35789   0.39260   0.42120
 Alpha virt. eigenvalues --    0.42677   0.43611   0.44071   0.44329   0.45085
 Alpha virt. eigenvalues --    0.45847   0.46851   0.47234   0.47842   0.48612
 Alpha virt. eigenvalues --    0.51393   0.55942   0.57573   0.59301   0.61668
 Alpha virt. eigenvalues --    0.62394   0.66390   0.68989   0.70792   0.74062
 Alpha virt. eigenvalues --    0.75262   0.76518   0.78670   0.80261   0.82279
 Alpha virt. eigenvalues --    0.82893   0.86317   0.87391   0.89643   0.90202
 Alpha virt. eigenvalues --    0.93078   0.95227   0.97651   0.99343   1.01876
 Alpha virt. eigenvalues --    1.02374   1.05278   1.06311   1.07210   1.09489
 Alpha virt. eigenvalues --    1.11160   1.13104   1.14374   1.15138   1.17008
 Alpha virt. eigenvalues --    1.19956   1.21878   1.23109   1.23873   1.25718
 Alpha virt. eigenvalues --    1.27219   1.27998   1.29737   1.31474   1.32665
 Alpha virt. eigenvalues --    1.34134   1.36556   1.37534   1.39277   1.41107
 Alpha virt. eigenvalues --    1.44288   1.46568   1.47559   1.49820   1.50906
 Alpha virt. eigenvalues --    1.52807   1.54083   1.59431   1.62452   1.66428
 Alpha virt. eigenvalues --    1.71249   1.77996   1.80263   1.91031   1.93505
 Alpha virt. eigenvalues --    1.99856   2.09270   2.11900   2.16802   2.18933
 Alpha virt. eigenvalues --    2.21679   2.24465   2.27753   2.30907   2.33927
 Alpha virt. eigenvalues --    2.34464   2.41087   2.44164   2.46926   2.49852
 Alpha virt. eigenvalues --    2.50905   2.54197   2.56796   2.58180   2.61871
 Alpha virt. eigenvalues --    2.62274   2.66283   2.70870   2.72873   2.76370
 Alpha virt. eigenvalues --    2.78196   2.79350   2.81140   2.82380   2.86580
 Alpha virt. eigenvalues --    2.87193   2.88623   2.89566   2.91192   2.91652
 Alpha virt. eigenvalues --    2.93861   2.96645   2.97270   2.98746   3.00807
 Alpha virt. eigenvalues --    3.02738   3.04202   3.05506   3.07238   3.08244
 Alpha virt. eigenvalues --    3.09387   3.10878   3.12778   3.14028   3.16581
 Alpha virt. eigenvalues --    3.22165   3.27308   3.28527   3.30328   3.30978
 Alpha virt. eigenvalues --    3.31458   3.34482   3.35061   3.36587   3.37406
 Alpha virt. eigenvalues --    3.38599   3.40067   3.41942   3.42805   3.44900
 Alpha virt. eigenvalues --    3.45471   3.47674   3.49495   3.53808   3.54296
 Alpha virt. eigenvalues --    3.56834   3.58093   3.59797   3.62784   3.64762
 Alpha virt. eigenvalues --    3.67188   3.67811   3.70000   3.73987   3.75320
 Alpha virt. eigenvalues --    3.77281   3.77379   3.78607   3.81476   3.83935
 Alpha virt. eigenvalues --    3.85853   3.88292   3.90969   3.94819   3.95909
 Alpha virt. eigenvalues --    3.97388   3.97507   3.99804   4.02622   4.05306
 Alpha virt. eigenvalues --    4.07289   4.08887   4.09733   4.12488   4.13051
 Alpha virt. eigenvalues --    4.14079   4.15134   4.17809   4.19182   4.19754
 Alpha virt. eigenvalues --    4.24243   4.25963   4.28571   4.30127   4.33895
 Alpha virt. eigenvalues --    4.36210   4.40862   4.41285   4.42510   4.49941
 Alpha virt. eigenvalues --    4.50169   4.52389   4.57244   4.65355   4.67979
 Alpha virt. eigenvalues --    4.72687   4.74133   4.76372   4.78437   4.79708
 Alpha virt. eigenvalues --    4.81489   4.83465   4.86988   4.93032   4.96954
 Alpha virt. eigenvalues --    5.02975   5.03952   5.04143   5.07543   5.09005
 Alpha virt. eigenvalues --    5.10642   5.13373   5.14065   5.15902   5.18919
 Alpha virt. eigenvalues --    5.19791   5.22994   5.23741   5.24753   5.28924
 Alpha virt. eigenvalues --    5.30784   5.31045   5.34091   5.35767   5.37301
 Alpha virt. eigenvalues --    5.40673   5.49327   5.51596   5.54552   5.62389
 Alpha virt. eigenvalues --    5.78123   5.85285   5.86386   5.88721   5.90386
 Alpha virt. eigenvalues --    5.93359   5.98988   6.04213   6.17529   6.28515
 Alpha virt. eigenvalues --    6.36897   6.39268   6.53013   6.65811   6.78547
 Alpha virt. eigenvalues --    6.82795   6.96681   7.21100   7.25590   7.31953
 Alpha virt. eigenvalues --    9.24963   9.46063  10.43455  12.71126  13.47969
 Alpha virt. eigenvalues --   13.59892
  Beta  occ. eigenvalues --  -19.20672 -19.17509 -10.24035 -10.23461 -10.18966
  Beta  occ. eigenvalues --  -10.18562  -1.11846  -0.85492  -0.80192  -0.71486
  Beta  occ. eigenvalues --   -0.68183  -0.56006  -0.49712  -0.49189  -0.47666
  Beta  occ. eigenvalues --   -0.44062  -0.42766  -0.40565  -0.40446  -0.38454
  Beta  occ. eigenvalues --   -0.36581  -0.34676  -0.28349  -0.24910
  Beta virt. eigenvalues --   -0.12096  -0.04196   0.02702   0.05717   0.06587
  Beta virt. eigenvalues --    0.07388   0.08939   0.09722   0.10368   0.12301
  Beta virt. eigenvalues --    0.13332   0.14638   0.14780   0.18854   0.20765
  Beta virt. eigenvalues --    0.22139   0.24873   0.26741   0.29205   0.30831
  Beta virt. eigenvalues --    0.33103   0.34364   0.35452   0.36105   0.39939
  Beta virt. eigenvalues --    0.42140   0.42922   0.43783   0.44260   0.44564
  Beta virt. eigenvalues --    0.45243   0.46373   0.46957   0.47432   0.48202
  Beta virt. eigenvalues --    0.48744   0.51792   0.56263   0.57880   0.59365
  Beta virt. eigenvalues --    0.62018   0.62898   0.67035   0.70404   0.70864
  Beta virt. eigenvalues --    0.74221   0.75458   0.76823   0.78960   0.80863
  Beta virt. eigenvalues --    0.82370   0.83005   0.86091   0.87556   0.89958
  Beta virt. eigenvalues --    0.90337   0.93099   0.95149   0.97874   0.99565
  Beta virt. eigenvalues --    1.01905   1.02472   1.05465   1.06478   1.07278
  Beta virt. eigenvalues --    1.09965   1.11333   1.13576   1.14574   1.15354
  Beta virt. eigenvalues --    1.17247   1.20222   1.22095   1.23254   1.24212
  Beta virt. eigenvalues --    1.26023   1.27524   1.28188   1.29991   1.31736
  Beta virt. eigenvalues --    1.32929   1.34529   1.37123   1.37688   1.39830
  Beta virt. eigenvalues --    1.41629   1.45136   1.47142   1.47940   1.50150
  Beta virt. eigenvalues --    1.51212   1.53367   1.54936   1.60163   1.63058
  Beta virt. eigenvalues --    1.67010   1.71984   1.78523   1.81372   1.91880
  Beta virt. eigenvalues --    1.94618   2.00850   2.10282   2.13121   2.17102
  Beta virt. eigenvalues --    2.19453   2.21866   2.24815   2.28621   2.31271
  Beta virt. eigenvalues --    2.34745   2.35218   2.41412   2.44360   2.47146
  Beta virt. eigenvalues --    2.50411   2.51339   2.54306   2.57121   2.58409
  Beta virt. eigenvalues --    2.62118   2.62524   2.66535   2.70433   2.72558
  Beta virt. eigenvalues --    2.76440   2.78299   2.79713   2.81440   2.82892
  Beta virt. eigenvalues --    2.86811   2.87246   2.88639   2.89815   2.91432
  Beta virt. eigenvalues --    2.91960   2.94107   2.96751   2.97453   2.98967
  Beta virt. eigenvalues --    3.01009   3.02849   3.04389   3.05667   3.07307
  Beta virt. eigenvalues --    3.08381   3.09619   3.11224   3.12737   3.14144
  Beta virt. eigenvalues --    3.16815   3.22164   3.26789   3.29219   3.29435
  Beta virt. eigenvalues --    3.30542   3.31655   3.34045   3.35053   3.36927
  Beta virt. eigenvalues --    3.37294   3.38569   3.40086   3.42242   3.42806
  Beta virt. eigenvalues --    3.44960   3.45332   3.47679   3.49687   3.53563
  Beta virt. eigenvalues --    3.54860   3.56977   3.58280   3.60114   3.62997
  Beta virt. eigenvalues --    3.64953   3.66980   3.68054   3.71679   3.74136
  Beta virt. eigenvalues --    3.75720   3.76871   3.77826   3.78973   3.81317
  Beta virt. eigenvalues --    3.84235   3.85914   3.87933   3.91290   3.95034
  Beta virt. eigenvalues --    3.96162   3.97553   3.97859   3.99470   4.02729
  Beta virt. eigenvalues --    4.05534   4.07004   4.08982   4.10005   4.12784
  Beta virt. eigenvalues --    4.13325   4.14220   4.15257   4.17835   4.19093
  Beta virt. eigenvalues --    4.20117   4.24232   4.26168   4.28712   4.30430
  Beta virt. eigenvalues --    4.34231   4.36529   4.40835   4.41565   4.42530
  Beta virt. eigenvalues --    4.49403   4.50724   4.53055   4.57461   4.65624
  Beta virt. eigenvalues --    4.68371   4.73769   4.75339   4.76667   4.79164
  Beta virt. eigenvalues --    4.80100   4.82198   4.84085   4.87617   4.93379
  Beta virt. eigenvalues --    4.98307   5.03182   5.04249   5.05042   5.08040
  Beta virt. eigenvalues --    5.09440   5.11147   5.13658   5.15915   5.17778
  Beta virt. eigenvalues --    5.19788   5.20101   5.23827   5.25193   5.27043
  Beta virt. eigenvalues --    5.29431   5.31079   5.32232   5.34442   5.36006
  Beta virt. eigenvalues --    5.37579   5.40924   5.49637   5.51988   5.55750
  Beta virt. eigenvalues --    5.63436   5.79033   5.85506   5.86534   5.88982
  Beta virt. eigenvalues --    5.90726   5.93573   6.02272   6.05441   6.18230
  Beta virt. eigenvalues --    6.33721   6.39968   6.40911   6.57459   6.68256
  Beta virt. eigenvalues --    6.80380   6.84013   6.99380   7.21439   7.26987
  Beta virt. eigenvalues --    7.32758   9.26215   9.47936  10.44414  12.71252
  Beta virt. eigenvalues --   13.48083  13.59951
          Condensed to atoms (all electrons):
               1          2          3          4          5          6
     1  C    4.861733   0.324469  -0.030431  -0.047575   0.410282   0.377731
     2  C    0.324469   5.214136   0.299668   0.332043  -0.038909  -0.031300
     3  C   -0.030431   0.299668   4.741212  -0.037236  -0.002559  -0.005106
     4  C   -0.047575   0.332043  -0.037236   4.864438   0.005925  -0.005620
     5  H    0.410282  -0.038909  -0.002559   0.005925   0.572206  -0.033775
     6  H    0.377731  -0.031300  -0.005106  -0.005620  -0.033775   0.622248
     7  H    0.398363  -0.035454   0.005320  -0.000372  -0.024521  -0.034343
     8  H   -0.012185   0.215419  -0.042700  -0.017287  -0.003075   0.003712
     9  H   -0.005169  -0.039218  -0.004313   0.375225  -0.000360   0.007699
    10  H    0.006441  -0.037612  -0.001599   0.404062  -0.000295  -0.000463
    11  H   -0.002987  -0.035270   0.005449   0.406575  -0.000116  -0.000645
    12  O    0.003318  -0.055332   0.292135  -0.001640   0.000338  -0.000219
    13  O   -0.001329  -0.018917  -0.068373   0.002600   0.000510  -0.000062
    14  H   -0.001697  -0.044860   0.381219   0.000690  -0.000051   0.002994
    15  H    0.001397  -0.060921   0.422904   0.005728   0.003780  -0.001313
               7          8          9         10         11         12
     1  C    0.398363  -0.012185  -0.005169   0.006441  -0.002987   0.003318
     2  C   -0.035454   0.215419  -0.039218  -0.037612  -0.035270  -0.055332
     3  C    0.005320  -0.042700  -0.004313  -0.001599   0.005449   0.292135
     4  C   -0.000372  -0.017287   0.375225   0.404062   0.406575  -0.001640
     5  H   -0.024521  -0.003075  -0.000360  -0.000295  -0.000116   0.000338
     6  H   -0.034343   0.003712   0.007699  -0.000463  -0.000645  -0.000219
     7  H    0.584639  -0.003212  -0.001304   0.000052   0.003215  -0.000338
     8  H   -0.003212   0.846697   0.005361  -0.006025  -0.005324  -0.039447
     9  H   -0.001304   0.005361   0.636100  -0.032504  -0.037123  -0.000857
    10  H    0.000052  -0.006025  -0.032504   0.552693  -0.021402   0.014351
    11  H    0.003215  -0.005324  -0.037123  -0.021402   0.576961  -0.000291
    12  O   -0.000338  -0.039447  -0.000857   0.014351  -0.000291   7.840092
    13  O    0.000066   0.061385  -0.000080  -0.000433   0.000003   0.121966
    14  H   -0.000557   0.005188   0.004450  -0.000813  -0.000219  -0.020177
    15  H    0.000344  -0.008612  -0.000497   0.001274  -0.000287  -0.038127
              13         14         15
     1  C   -0.001329  -0.001697   0.001397
     2  C   -0.018917  -0.044860  -0.060921
     3  C   -0.068373   0.381219   0.422904
     4  C    0.002600   0.000690   0.005728
     5  H    0.000510  -0.000051   0.003780
     6  H   -0.000062   0.002994  -0.001313
     7  H    0.000066  -0.000557   0.000344
     8  H    0.061385   0.005188  -0.008612
     9  H   -0.000080   0.004450  -0.000497
    10  H   -0.000433  -0.000813   0.001274
    11  H    0.000003  -0.000219  -0.000287
    12  O    0.121966  -0.020177  -0.038127
    13  O    8.080751   0.006307   0.016346
    14  H    0.006307   0.609288  -0.032638
    15  H    0.016346  -0.032638   0.595159
          Atomic-Atomic Spin Densities.
               1          2          3          4          5          6
     1  C   -0.025701  -0.004356   0.002170   0.001921   0.002162  -0.001951
     2  C   -0.004356   0.551651   0.001295  -0.005784  -0.001869  -0.018093
     3  C    0.002170   0.001295  -0.043940  -0.000660   0.000584  -0.000509
     4  C    0.001921  -0.005784  -0.000660  -0.015332   0.000108  -0.001329
     5  H    0.002162  -0.001869   0.000584   0.000108   0.004803  -0.005140
     6  H   -0.001951  -0.018093  -0.000509  -0.001329  -0.005140   0.060670
     7  H    0.006270  -0.007722   0.000022   0.001615   0.002385  -0.009584
     8  H   -0.000266   0.030463   0.017014   0.000330  -0.000704   0.000565
     9  H   -0.001282  -0.021021   0.001573  -0.004690  -0.000331   0.006112
    10  H   -0.000044  -0.000155  -0.000231   0.001752   0.000000  -0.000062
    11  H    0.000899  -0.005717  -0.000241   0.007699   0.000133  -0.001109
    12  O   -0.000011  -0.000527   0.005818  -0.001249   0.000004  -0.000016
    13  O   -0.000059  -0.005911  -0.004752   0.000458   0.000094  -0.000072
    14  H   -0.000341  -0.024059   0.006535  -0.001338  -0.000617   0.003202
    15  H    0.000910  -0.004724   0.001285  -0.000404  -0.000428   0.000646
               7          8          9         10         11         12
     1  C    0.006270  -0.000266  -0.001282  -0.000044   0.000899  -0.000011
     2  C   -0.007722   0.030463  -0.021021  -0.000155  -0.005717  -0.000527
     3  C    0.000022   0.017014   0.001573  -0.000231  -0.000241   0.005818
     4  C    0.001615   0.000330  -0.004690   0.001752   0.007699  -0.001249
     5  H    0.002385  -0.000704  -0.000331   0.000000   0.000133   0.000004
     6  H   -0.009584   0.000565   0.006112  -0.000062  -0.001109  -0.000016
     7  H    0.018188  -0.001403  -0.001811   0.000045   0.001226  -0.000021
     8  H   -0.001403  -0.340737   0.000523   0.001292  -0.001213   0.011063
     9  H   -0.001811   0.000523   0.063361  -0.001717  -0.007741   0.000445
    10  H    0.000045   0.001292  -0.001717   0.000150   0.000636  -0.000636
    11  H    0.001226  -0.001213  -0.007741   0.000636   0.011437  -0.000068
    12  O   -0.000021   0.011063   0.000445  -0.000636  -0.000068   0.214960
    13  O    0.000129  -0.019007  -0.000165  -0.000322   0.000161  -0.075222
    14  H   -0.000351   0.001222   0.004284  -0.000365  -0.000347  -0.006075
    15  H   -0.000200   0.004525   0.000272  -0.000036  -0.000037  -0.002854
              13         14         15
     1  C   -0.000059  -0.000341   0.000910
     2  C   -0.005911  -0.024059  -0.004724
     3  C   -0.004752   0.006535   0.001285
     4  C    0.000458  -0.001338  -0.000404
     5  H    0.000094  -0.000617  -0.000428
     6  H   -0.000072   0.003202   0.000646
     7  H    0.000129  -0.000351  -0.000200
     8  H   -0.019007   0.001222   0.004525
     9  H   -0.000165   0.004284   0.000272
    10  H   -0.000322  -0.000365  -0.000036
    11  H    0.000161  -0.000347  -0.000037
    12  O   -0.075222  -0.006075  -0.002854
    13  O    0.702891  -0.000103  -0.001083
    14  H   -0.000103   0.045806   0.002402
    15  H   -0.001083   0.002402   0.003571
 Mulliken charges and spin densities:
               1          2
     1  C   -0.282361  -0.019679
     2  C    0.012059   0.483473
     3  C    0.044411  -0.014037
     4  C   -0.287557  -0.016903
     5  H    0.110623   0.001184
     6  H    0.098462   0.033328
     7  H    0.108103   0.008789
     8  H    0.000105  -0.296334
     9  H    0.092593   0.037811
    10  H    0.122273   0.000307
    11  H    0.111461   0.005717
    12  O   -0.115770   0.145611
    13  O   -0.200741   0.597035
    14  H    0.090877   0.029853
    15  H    0.095463   0.003844
 Sum of Mulliken charges =  -0.00000   1.00000
 Mulliken charges and spin densities with hydrogens summed into heavy atoms:
               1          2
     1  C    0.034826   0.023622
     2  C    0.012059   0.483473
     3  C    0.230751   0.019660
     4  C    0.038770   0.026933
    12  O   -0.115770   0.145611
    13  O   -0.200636   0.300701
 APT charges:
               1
     1  C   -1.075262
     2  C   -0.053900
     3  C   -0.598092
     4  C   -1.059936
     5  H    0.320234
     6  H    0.388367
     7  H    0.416799
     8  H    0.096217
     9  H    0.368849
    10  H    0.294315
    11  H    0.428715
    12  O   -0.033121
    13  O   -0.156190
    14  H    0.332934
    15  H    0.330072
 Sum of APT charges =  -0.00000
 APT charges with hydrogens summed into heavy atoms:
               1
     1  C    0.050138
     2  C   -0.053900
     3  C    0.064913
     4  C    0.031943
    12  O   -0.033121
    13  O   -0.059973
 Electronic spatial extent (au):  <R**2>=            686.6462
 Charge=             -0.0000 electrons
 Dipole moment (field-independent basis, Debye):
    X=              3.5454    Y=             -0.3159    Z=              1.5090  Tot=              3.8662
 Quadrupole moment (field-independent basis, Debye-Ang):
   XX=            -42.4321   YY=            -37.1237   ZZ=            -37.9030
   XY=              0.4988   XZ=             -1.6897   YZ=             -0.9015
 Traceless Quadrupole moment (field-independent basis, Debye-Ang):
   XX=             -3.2792   YY=              2.0292   ZZ=              1.2499
   XY=              0.4988   XZ=             -1.6897   YZ=             -0.9015
 Octapole moment (field-independent basis, Debye-Ang**2):
  XXX=              1.8020  YYY=             -0.5496  ZZZ=              3.7643  XYY=             -3.2343
  XXY=             -0.9761  XXZ=              2.2515  XZZ=             -2.1704  YZZ=              0.4418
  YYZ=              0.6586  XYZ=              0.8125
 Hexadecapole moment (field-independent basis, Debye-Ang**3):
 XXXX=           -542.3097 YYYY=           -227.2649 ZZZZ=           -132.4249 XXXY=              1.7997
 XXXZ=             -6.3057 YYYX=             -0.0711 YYYZ=              0.1327 ZZZX=              0.2366
 ZZZY=              1.5122 XXYY=           -126.3717 XXZZ=           -108.8768 YYZZ=            -62.2833
 XXYZ=             -1.5630 YYXZ=             -0.8160 ZZXY=              1.3812
 N-N= 2.489392521794D+02 E-N=-1.217674103397D+03  KE= 3.058655337659D+02
  Exact polarizability:       0.000       0.000       0.000       0.000       0.000       0.000
 Approx polarizability:     132.291       4.345      80.115      16.980       5.111     117.222
                          Isotropic Fermi Contact Couplings
        Atom                 a.u.       MegaHertz       Gauss      10(-4) cm-1
     1  C(13)             -0.01122     -12.61325      -4.50072      -4.20733
     2  C(13)              0.04426      49.75929      17.75535      16.59791
     3  C(13)             -0.01795     -20.17661      -7.19951      -6.73019
     4  C(13)             -0.00280      -3.15262      -1.12493      -1.05160
     5  H(1)               0.00168       7.50514       2.67802       2.50344
     6  H(1)               0.01409      62.97426      22.47078      21.00595
     7  H(1)               0.00590      26.35690       9.40480       8.79172
     8  H(1)              -0.09522    -425.63597    -151.87750    -141.97688
     9  H(1)               0.01547      69.14893      24.67406      23.06560
    10  H(1)               0.00131       5.84618       2.08606       1.95008
    11  H(1)               0.00485      21.68651       7.73829       7.23384
    12  O(17)              0.04507     -27.32189      -9.74913      -9.11360
    13  O(17)             -0.00227       1.37664       0.49122       0.45920
    14  H(1)               0.01284      57.38311      20.47572      19.14095
    15  H(1)               0.00068       3.05514       1.09015       1.01909
 --------------------------------------------------------
       Center         ----  Spin Dipole Couplings  ----
                      3XX-RR        3YY-RR        3ZZ-RR
 --------------------------------------------------------
     1   Atom        0.002758     -0.001419     -0.001339
     2   Atom       -0.177103     -0.291332      0.468436
     3   Atom        0.024558     -0.018266     -0.006292
     4   Atom        0.000047      0.006292     -0.006339
     5   Atom       -0.001472      0.006938     -0.005465
     6   Atom        0.004471     -0.001213     -0.003258
     7   Atom        0.005520     -0.002172     -0.003348
     8   Atom        0.030586     -0.035558      0.004972
     9   Atom        0.000716      0.002591     -0.003308
    10   Atom       -0.002106      0.009304     -0.007198
    11   Atom        0.000640      0.002500     -0.003140
    12   Atom       -0.033944     -0.059310      0.093253
    13   Atom        0.549630     -0.687101      0.137471
    14   Atom        0.001371     -0.008943      0.007572
    15   Atom        0.002588      0.000685     -0.003273
 --------------------------------------------------------
                        XY            XZ            YZ
 --------------------------------------------------------
     1   Atom       -0.008601      0.001200      0.000985
     2   Atom        0.033221      0.282963      0.089965
     3   Atom       -0.009994     -0.012873      0.003528
     4   Atom        0.011011      0.004109      0.002482
     5   Atom       -0.005148     -0.000825      0.000551
     6   Atom       -0.004908      0.003672     -0.001435
     7   Atom       -0.004266     -0.005568      0.002299
     8   Atom        0.005989      0.003469     -0.001978
     9   Atom        0.005132      0.002955      0.002196
    10   Atom        0.000847     -0.000806     -0.000395
    11   Atom        0.005664     -0.004816     -0.005123
    12   Atom        0.324498     -0.432939     -0.490341
    13   Atom        1.143876     -1.664326     -0.969259
    14   Atom        0.000932      0.003310     -0.000609
    15   Atom       -0.001171      0.003496     -0.007824
 --------------------------------------------------------


 ---------------------------------------------------------------------------------
              Anisotropic Spin Dipole Couplings in Principal Axis System
 ---------------------------------------------------------------------------------

       Atom             a.u.   MegaHertz   Gauss  10(-4) cm-1        Axes

              Baa    -0.0085    -1.141    -0.407    -0.381  0.6077  0.7667 -0.2072
     1 C(13)  Bbb    -0.0010    -0.138    -0.049    -0.046  0.1037  0.1821  0.9778
              Bcc     0.0095     1.279     0.456     0.427  0.7874 -0.6157  0.0311
 
              Baa    -0.3018   -40.504   -14.453   -13.511 -0.0082  0.9936 -0.1130
     2 C(13)  Bbb    -0.2836   -38.051   -13.577   -12.692  0.9367 -0.0319 -0.3487
              Bcc     0.5854    78.555    28.030    26.203  0.3500  0.1087  0.9304
 
              Baa    -0.0205    -2.754    -0.983    -0.919  0.1990  0.9780 -0.0625
     3 C(13)  Bbb    -0.0110    -1.470    -0.525    -0.490  0.3386 -0.0088  0.9409
              Bcc     0.0315     4.225     1.507     1.409  0.9197 -0.2084 -0.3329
 
              Baa    -0.0096    -1.286    -0.459    -0.429  0.7045 -0.3966 -0.5886
     4 C(13)  Bbb    -0.0059    -0.798    -0.285    -0.266  0.3749 -0.4962  0.7831
              Bcc     0.0155     2.084     0.744     0.695  0.6026  0.7723  0.2009
 
              Baa    -0.0057    -3.021    -1.078    -1.008  0.2756  0.0707  0.9587
     5 H(1)   Bbb    -0.0038    -2.010    -0.717    -0.670  0.8598  0.4278 -0.2788
              Bcc     0.0094     5.031     1.795     1.678 -0.4299  0.9011  0.0572
 
              Baa    -0.0049    -2.618    -0.934    -0.873 -0.4934 -0.3454  0.7983
     6 H(1)   Bbb    -0.0037    -1.964    -0.701    -0.655  0.2603  0.8171  0.5144
              Bcc     0.0086     4.581     1.635     1.528  0.8300 -0.4616  0.3132
 
              Baa    -0.0061    -3.230    -1.152    -1.077  0.4022 -0.0972  0.9104
[...]
 ! D29   D(14,3,12,13)         167.4887         -DE/DX =    0.0                 !
 ! D30   D(15,3,12,13)         -72.6717         -DE/DX =    0.0                 !
 ! D31   D(3,12,13,8)          -34.0815         -DE/DX =    0.0                 !
 --------------------------------------------------------------------------------
 GradGradGradGradGradGradGradGradGradGradGradGradGradGradGradGradGradGrad

 Leave Link  103 at Wed May  4 21:59:43 2022, MaxMem=  8589934592 cpu:               0.2 elap:               0.0
 (Enter /home/saurabh/g16/l9999.exe)

 ----------------------------------------------------------------------

 Electric dipole moment (input orientation):
 (Debye = 10**-18 statcoulomb cm , SI units = C m)
                  (au)            (Debye)         (10**-30 SI)
   Tot        0.139769D+01      0.355258D+01      0.118501D+02
   x          0.127431D+01      0.323897D+01      0.108040D+02
   y         -0.839888D-01     -0.213478D+00     -0.712087D+00
   z          0.568005D+00      0.144372D+01      0.481575D+01

 Dipole polarizability, Alpha (input orientation).
 (esu units = cm**3 , SI units = C**2 m**2 J**-1)
 Alpha(0;0):
               (au)            (10**-24 esu)      (10**-40 SI)
   iso        0.638217D+02      0.945740D+01      0.105228D+02
   aniso      0.217715D+02      0.322620D+01      0.358963D+01
   xx         0.772541D+02      0.114479D+02      0.127375D+02
   yx         0.275773D+01      0.408654D+00      0.454688D+00
   yy         0.572540D+02      0.848416D+01      0.943990D+01
   zx         0.375250D+01      0.556063D+00      0.618703D+00
   zy         0.983882D+00      0.145796D+00      0.162220D+00
   zz         0.569570D+02      0.844016D+01      0.939095D+01

 ----------------------------------------------------------------------

 Dipole orientation:
     6          1.86157695         -1.64007293          3.19982666
     6          0.69981314          0.05184552          1.23912494
     6         -1.72734034         -0.89589468         -0.04796521
     6          0.76450212          2.84571506          1.77871288
     1          1.99464014         -3.58916203          2.54355831
     1          0.72376531         -1.64726844          4.93407283
     1          3.74656495         -0.99232203          3.72679731
     1          1.79024819         -0.28934737         -1.03276334
     1         -0.41596658          3.28773723          3.42536242
     1          0.04576965          3.92922405          0.18203557
     1          2.67530362          3.48716422          2.20880632
     8         -1.51989733         -0.04918980         -2.59402831
     8          1.00629510         -0.70452781         -3.22220406
     1         -3.46771379         -0.08223191          0.70954553
     1         -1.81416578         -2.95960376          0.02921902

 Electric dipole moment (dipole orientation):
 (Debye = 10**-18 statcoulomb cm , SI units = C m)
                  (au)            (Debye)         (10**-30 SI)
   Tot        0.139769D+01      0.355258D+01      0.118501D+02
   x          0.000000D+00      0.000000D+00      0.000000D+00
   y          0.000000D+00      0.000000D+00      0.000000D+00
   z          0.139769D+01      0.355258D+01      0.118501D+02

 Dipole polarizability, Alpha (dipole orientation).
 (esu units = cm**3 , SI units = C**2 m**2 J**-1)
 Alpha(0;0):
               (au)            (10**-24 esu)      (10**-40 SI)
   iso        0.638217D+02      0.945740D+01      0.105228D+02
   aniso      0.217715D+02      0.322620D+01      0.358963D+01
   xx         0.575718D+02      0.853126D+01      0.949230D+01
   yx         0.530488D+00      0.786102D-01      0.874656D-01
   yy         0.576331D+02      0.854034D+01      0.950241D+01
   zx         0.517124D+01      0.766298D+00      0.852622D+00
   zy         0.386471D+01      0.572691D+00      0.637205D+00
   zz         0.762603D+02      0.113006D+02      0.125736D+02

 ----------------------------------------------------------------------
 Unable to Open any file for archive entry.
 1\1\GINC-HEL02\Freq\UB3LYP\CC-pVTZ+d\C4H9O2(2)\ROOT\04-May-2022\0\\#P 
 Geom=AllCheck Guess=TCheck SCRF=Check GenChk UB3LYP/CC-pVTZ+d Freq\\Re
 actant\\0,2\C,1.9128519231,-0.929036483,-0.2621677215\C,0.7503468899,0
 .0023884785,-0.0695099873\C,-0.4154230429,-0.5069524901,0.7945741273\C
 ,1.0822709985,1.4612198727,0.1041607195\H,1.5848439168,-1.9341902744,-
 0.52947573\H,2.5031793036,-1.0114365634,0.6595068682\H,2.5883784728,-0
 .5650408855,-1.0376810016\H,-0.1168073583,-0.0829775456,-1.0950260071\
 H,1.6303651624,1.6178313287,1.0418625864\H,0.1787285939,2.0690722775,0
 .1420094619\H,1.7165142824,1.8255020003,-0.7048405575\O,-1.581456895,0
 .0251921163,0.1738810754\O,-1.3513448782,-0.2486565035,-1.2008417146\H
 ,-0.4098130527,-0.1374507201,1.8230166516\H,-0.4395163163,-1.600460608
 5,0.7874392293\\Version=EM64L-G16RevC.01\State=2-A\HF=-308.2303656\S2=
 0.758245\S2-1=0.\S2A=0.750034\RMSD=1.596e-09\RMSF=5.759e-06\ZeroPoint=
 0.121503\Thermal=0.1284835\ETot=-308.1018821\HTot=-308.1009379\GTot=-3
 08.1398836\Dipole=1.2743076,-0.0839888,0.568005\DipoleDeriv=-0.1052514
 ,0.0746455,0.0243731,0.0397062,-0.0176584,-0.0158738,-0.1945361,0.0029
 467,0.1062722,0.6875213,0.0417426,0.0863928,-0.0949898,0.2404603,0.096
 9366,0.7824156,0.1843829,0.034181,0.043098,-0.1168937,0.0008263,0.0818
 189,0.3623867,-0.0792978,-0.1201532,-0.055274,0.3515001,-0.1015526,-0.
 0618071,0.019039,0.0485446,-0.0819526,-0.0163992,-0.1994325,-0.1185033
 ,0.0812845,0.0356645,-0.0654009,-0.0217747,-0.0088883,-0.1065911,-0.03
 76851,0.0148933,-0.0440076,0.0617706,-0.0542965,0.0239317,-0.0600153,0
 .0605055,0.0561478,-0.0168979,-0.0807679,0.0073809,-0.078569,-0.003278
 4,-0.0191942,0.0699361,-0.0428631,0.0330202,0.0686236,0.1163777,0.0329
 075,-0.0219711,-0.7836039,-0.160045,-0.0825041,-0.0404829,0.0894518,-0
 .002898,-0.3374887,-0.0853771,0.0940397,0.007704,-0.0320936,-0.0818933
 ,-0.0892207,0.0045923,0.0052022,-0.1019675,-0.0321693,-0.0811642,-0.02
 36172,0.1027066,0.0062173,0.0392434,0.0015567,-0.0132187,0.0120183,0.0
 018754,0.0687826,0.0084595,-0.0488494,0.0846096,-0.0317969,0.0257807,0
 .0169334,0.105029,0.0637523,-0.0361393,-0.3651809,0.1021563,0.0223008,
 0.0617102,-0.2482362,0.0431612,0.7738388,0.1681918,-0.2126467,0.521026
 4,0.1523483,-0.0512384,-0.0427608,-0.2116104,-0.0386404,-0.7628647,-0.
 0752236,-0.2745773,0.1096632,0.0169635,0.0038941,0.0304474,0.0391071,-
 0.0692109,0.0026403,-0.0280577,-0.1147766,0.0236439,-0.0102104,-0.0201
 633,-0.0109737,-0.1864548,0.0592649,-0.0100024,-0.022825,0.0220134\Pol
 ar=77.254143,2.757731,57.2539574,3.7524981,0.9838818,56.9570297\Quadru
 pole=-2.4327671,1.3691585,1.0636086,0.1747772,-1.6188907,-0.3916401\PG
 =C01 [X(C4H9O2)]\NImag=1\\0.49641583,0.05093651,0.53827484,-0.01572301
 ,-0.00263279,0.52005481,-0.14942931,0.05565556,0.02038192,0.44773508,0
 .05704755,-0.12990518,-0.00767349,-0.01887667,0.49172425,0.02361303,-0
 .01060051,-0.06126888,-0.09057174,0.01566695,0.22622285,-0.01813998,-0
 .00368515,0.01541061,-0.08402166,-0.01792497,0.04835942,0.34596089,0.0
 1340400,0.00795420,-0.00732841,-0.02820175,-0.09800288,0.00820252,0.00
 031458,0.57793791,0.00005152,-0.00172794,-0.00057733,0.05264463,0.0196
 0926,-0.07945271,-0.01392898,0.05404489,0.57908874,0.00932636,0.027546
 88,0.00521621,-0.08472695,-0.02576471,0.01053060,-0.00583253,-0.023283
 02,-0.00399628,0.56064806,-0.00189279,-0.02463026,-0.00581395,-0.01941
 552,-0.18636905,-0.01247723,-0.00981388,-0.01224277,0.00219305,-0.0283
 2623,0.47279585,0.00009677,-0.00265281,0.00036976,0.00782943,-0.020278
 43,-0.05728458,0.00485463,0.02376408,0.00057564,-0.02776170,-0.0182921
 7,0.52464869,-0.07373158,-0.07653620,-0.01805384,0.00937025,0.02495875
 ,0.00631971,0.00079772,0.00104642,-0.00024088,-0.00428162,0.00238649,0
 .00046767,0.07856419,-0.07509883,-0.26487965,-0.05915806,-0.00565733,-
 0.02055722,-0.00421680,-0.00074670,0.00016498,0.00105792,0.00468498,-0
 .00078611,-0.00032392,0.07987247,0.29121894,-0.01707983,-0.05997681,-0
 .06257834,-0.00250725,-0.00124293,-0.00276985,-0.00033372,-0.00150399,
 0.00010747,0.00086861,-0.00024316,0.00076553,0.02127287,0.06537581,0.0
 6336479,-0.10996313,0.00719147,-0.11282438,-0.01892589,0.00444260,-0.0
 1930127,0.00086544,0.00149348,-0.00048354,0.00047815,-0.00130301,-0.00
 026787,-0.00578993,0.00042738,-0.00870901,0.12349774,0.00938132,-0.044
 89320,0.01573237,0.01181099,-0.00325041,0.01641948,0.00009932,-0.00027
 970,0.00043289,-0.00061949,0.00134036,0.00007282,-0.01571261,0.0024633
 3,-0.02550834,-0.01235583,0.04670175,-0.10620515,0.01143260,-0.2178815
 9,-0.00074330,0.00163239,0.00396117,0.00004408,0.00002844,0.00014155,-
 0.00006235,0.00008225,0.00030679,-0.00352122,0.00023941,-0.00702554,0.
 12242945,-0.01530049,0.23953237,-0.14031259,-0.05490426,0.11453639,-0.
 01992736,-0.00906301,0.01740397,-0.00105858,0.00372377,0.00011491,0.00
 079498,-0.00119845,-0.00024455,-0.00623606,-0.00283647,0.00634450,0.01
 096263,0.00595390,-0.01231027,0.15655555,-0.05480581,-0.08000951,0.062
 53112,0.01239243,0.00797644,-0.01545990,0.00169381,-0.00266180,0.00062
 533,-0.00010153,0.00106180,-0.00084900,-0.01650543,-0.00862970,0.02184
 682,-0.00133835,-0.00112376,0.00124798,0.05749993,0.08235036,0.1154993
 0,0.06237660,-0.17765937,0.00130346,0.00123229,-0.00239319,-0.00050992
 ,-0.00076987,0.00156479,-0.00040406,0.00032987,-0.00007917,-0.00627237
 ,-0.00227244,0.00688009,0.01659840,0.00985314,-0.02062158,-0.12619051,
 -0.07021816,0.19178476,-0.01583654,0.00432170,-0.02094415,0.06795766,0
 .00381302,0.11162162,-0.01875779,0.00805743,-0.02367596,-0.01219575,-0
 .00489012,-0.02233197,0.00073851,-0.00051818,0.00073691,-0.00207709,0.
 00204396,0.00240733,0.00184953,-0.00066058,0.00005920,-0.10869148,0.00
 495967,-0.00051396,0.00619174,0.01171093,-0.02560896,0.01086463,-0.001
 77097,0.00308730,0.00635286,-0.00931870,-0.00509011,-0.01297010,0.0003
 2296,-0.00034069,0.00039991,0.00209711,-0.00101633,0.00018317,-0.00013
 175,0.00013286,-0.00012419,-0.01992266,0.04547716,-0.00203076,0.001691
 08,-0.00456845,0.01756790,-0.00361594,0.00657172,0.00309325,0.00779127
 ,-0.03541124,-0.00534960,-0.00232422,-0.01060173,0.00019945,-0.0000214
 7,0.00062493,0.00011236,0.00007585,0.00187105,0.00091937,-0.00033550,0
 .00032829,-0.08724049,-0.00442469,0.07460941,-0.00006455,0.00028972,-0
 .00011778,-0.00577345,-0.00482100,-0.00552283,0.00114455,0.00038039,-0
 .00104158,-0.10455370,-0.01293898,-0.10518784,-0.00001188,-0.00013034,
 0.00010587,0.00038624,-0.00002396,0.00005689,0.00013396,0.00002078,0.0
 0010868,0.00037132,-0.00089798,-0.00011912,0.11206861,-0.00008304,0.00
 185073,0.00040489,-0.01687148,-0.01059611,-0.02493670,0.00064888,0.001
 35529,-0.00165716,-0.01694497,-0.04642153,-0.03043697,-0.00006705,0.00
 026869,0.00050232,0.00052612,-0.00046525,0.00038294,0.00002943,-0.0001
 6217,-0.00007247,-0.00385019,-0.00273843,-0.00204623,0.01910203,0.0528
 0783,-0.00009365,0.00037650,0.00048282,-0.00302664,-0.00464023,-0.0040
 6615,0.00001280,-0.00008579,0.00014775,-0.10402348,-0.02352638,-0.2233
 0712,0.00016340,-0.00013750,0.00025348,0.00041331,-0.00044396,0.000120
 98,-0.00010765,0.00002008,-0.00011017,0.00117936,-0.00076549,0.0010820
 6,0.11770400,0.03127697,0.24535460,0.00009024,-0.00171159,-0.00040714,
 0.00878499,-0.00319399,-0.00032478,0.00011795,0.00023014,0.00070281,-0
 .23187106,0.12122106,0.00873825,0.00036045,-0.00040802,-0.00020114,-0.
 00004621,-0.00006077,0.00002446,0.00010589,-0.00013126,-0.00019818,0.0
 0011274,-0.00003665,-0.00006213,-0.01301546,0.00787661,0.00071336,0.24
 931893,-0.00366779,-0.00535513,-0.00095174,0.02861879,-0.01857224,-0.0
 0115846,0.00077569,0.00047149,-0.00005445,0.11862041,-0.12652834,-0.00
 332313,0.00148906,-0.00120215,-0.00020313,-0.00015604,0.00021400,0.000
 21687,-0.00013289,0.00021855,-0.00007002,0.00020892,-0.00003588,-0.000
 19692,-0.00391237,0.00228918,0.00079178,-0.13229822,0.14059343,-0.0003
 1480,-0.00072358,0.00093623,0.00369907,-0.00388364,-0.00255602,-0.0005
 8938,0.00032806,0.00018849,0.00825618,-0.00214959,-0.04723875,0.000093
 78,-0.00034774,0.00051104,0.00040397,-0.00039678,0.00016810,-0.0004535
 5,0.00021497,0.00025527,0.00093925,-0.00032134,0.00037064,-0.02342973,
 0.01578494,0.00089823,-0.00787884,0.00581677,0.04738712,0.00003127,0.0
 0068840,-0.00060844,-0.00705950,-0.00447407,0.00390543,0.00137705,-0.0
 0179327,-0.00035566,-0.13371549,-0.04608656,0.11430779,-0.00002423,-0.
 00001509,-0.00013974,0.00007124,0.00018601,-0.00001103,0.00053565,0.00
 004549,-0.00001039,0.00110762,0.00010599,0.00065372,0.00960779,0.00579
 851,-0.01232763,-0.01405892,-0.00950899,0.01977028,0.14323921,-0.00061
 811,0.00146068,0.00086732,-0.02049208,-0.01027685,0.02344583,0.0008880
 9,-0.00643842,-0.00116411,-0.04641226,-0.07451410,0.06296801,0.0000107
 5,0.00041386,-0.00037981,0.00005827,-0.00002091,-0.00009399,0.00076886
 ,-0.00027261,-0.00053043,0.00147531,0.00047307,0.00088041,0.00300365,0
 .00122943,-0.00278947,0.00883436,0.00646522,-0.01445776,0.05529633,0.0
 8123390,-0.00030042,-0.00004052,0.00003635,-0.00364321,-0.00207127,0.0
 0334839,-0.00074767,-0.00136100,0.00065686,0.11482620,0.06406097,-0.19
 109367,-0.00019651,-0.00000852,0.00016853,0.00006307,0.00007559,-0.000
 04638,-0.00020039,0.00027974,0.00026764,0.00032537,0.00006503,0.000565
 53,0.01615275,0.00872437,-0.02124716,-0.00053853,-0.00091211,-0.000198
 97,-0.12538510,-0.06870075,0.20691398,-0.00555642,-0.00653114,0.000548
 91,-0.06560176,0.01726893,0.00523185,-0.13915525,0.05617861,-0.0022659
 7,0.00046216,0.00147004,0.00045557,0.00084813,-0.00022067,-0.00039541,
 -0.00088509,0.00043110,0.00009396,-0.00159650,0.00079551,0.00031597,-0
 .02299605,0.00638177,0.01880564,-0.00032066,0.00023837,0.00008704,0.00
 014829,-0.00026449,-0.00013552,0.00005467,0.00018293,0.00013741,0.3044
 7832,-0.00100695,0.00050330,-0.00017444,0.00029376,0.01041723,-0.00768
 751,0.05035918,-0.09826392,0.00703352,0.00116052,-0.00126598,0.0026794
 6,-0.00026033,0.00042261,0.00041837,-0.00004659,-0.00012816,0.00014055
 ,0.00011297,0.00052526,0.00006536,0.00352691,0.00452665,0.00289850,0.0
 0025872,0.00093837,0.00005472,-0.00046265,0.00098236,-0.00012195,-0.00
 024813,0.00054851,-0.00015554,-0.10371475,0.12689637,0.00384365,0.0017
 8311,0.01090358,-0.01882218,-0.00260733,-0.04784912,-0.02936325,0.0113
 1477,-0.06987211,0.00591318,-0.00273551,0.01282419,-0.00044156,-0.0005
 5277,-0.00071212,0.00366503,-0.00255784,-0.00121297,-0.00046745,0.0007
 3264,-0.00031444,0.08169899,0.00282470,0.00903634,0.00052850,0.0050241
 4,0.00066157,-0.00055141,0.00129204,-0.00013012,-0.00030849,-0.0014157
 1,-0.00021709,-0.00646796,0.01891593,0.28190996,0.00627407,-0.00121865
 ,0.01264110,-0.09340230,-0.00622066,-0.12799578,0.00777495,-0.01626445
 ,-0.01953605,0.00695310,0.00028134,0.01485082,-0.00047299,0.00030151,-
 0.00033520,0.00192020,-0.00120347,-0.00189885,-0.00142771,0.00088271,0
 .00002957,0.10234860,0.00640446,0.04994037,0.00037427,0.00342397,-0.00
 034829,-0.00007557,0.00015214,-0.00034788,-0.00066391,-0.00159407,-0.0
 0010799,-0.05608928,0.01919688,0.00187074,0.03373504,0.00060831,-0.000
 30249,-0.00032072,-0.00806561,0.00196556,-0.00689618,-0.00440526,0.009
 64166,0.00978829,-0.00005194,0.00073117,-0.00185549,-0.00035556,0.0004
 2197,-0.00009649,-0.00060128,0.00035684,-0.00019253,-0.00004829,-0.000
 05910,0.00003523,0.00614648,-0.01752634,-0.00035650,-0.00017793,-0.000
 37295,0.00010412,-0.00015726,0.00020299,0.00013121,0.00002975,0.000159
 83,0.00019863,0.01406065,-0.03754599,-0.05115053,-0.00657468,0.0376795
 6,-0.00095291,-0.00093407,-0.00822290,0.00976434,-0.00648289,0.0306464
 9,-0.02384186,0.00250350,-0.07413179,-0.00584345,0.00205474,-0.0103781
 0,0.00016928,0.00083631,0.00046933,-0.00247091,0.00199301,0.00062594,0
 .00053278,-0.00047651,0.00011880,-0.04532934,-0.00894518,-0.04457818,-
 0.00010620,-0.00413282,-0.00047870,0.00036847,-0.00150520,-0.00024559,
 0.00030159,0.00064662,0.00031138,-0.00760414,-0.03882765,-0.17465472,0
 .07434177,0.04939871,0.27721181,0.00030051,-0.00068526,0.00053640,-0.0
 0167643,0.00805276,0.01733666,-0.04698476,0.00351601,0.01152436,0.0016
 7477,0.00084349,0.00004883,0.00005074,-0.00026416,-0.00000183,-0.00033
 175,0.00006736,-0.00025754,-0.00065332,0.00001074,-0.00021067,0.005067
 64,-0.00036586,0.00448987,-0.00029899,0.00003961,-0.00034065,-0.000006
 58,-0.00017436,-0.00000556,0.00005971,0.00021983,-0.00020320,-0.001016
 16,-0.00925315,-0.03390283,-0.00892590,0.00194062,-0.00247011,0.050937
 47,-0.00007562,-0.00037995,-0.00016202,-0.00137886,0.00352516,0.008423
 24,0.00088868,-0.08707327,-0.08864339,0.00040276,0.00082897,0.00010203
 ,-0.00014994,0.00022216,0.00012271,0.00002302,0.00007893,-0.00003642,-
 0.00000674,0.00023783,0.00005157,0.00235150,-0.00011173,0.00126605,-0.
 00010225,0.00013030,-0.00011050,0.00009237,-0.00002111,0.00017824,0.00
 017182,0.00012065,-0.00012330,-0.00129298,0.00428574,0.01243835,0.0015
 3907,0.00169913,0.00540579,-0.00253948,0.08484898,0.00019597,0.0008363
 3,-0.00102361,0.00138192,-0.00443094,-0.01264391,-0.00196603,-0.083471
 35,-0.26636605,-0.00038918,-0.00100800,0.00173871,-0.00009994,0.000014
 21,0.00004457,0.00030811,-0.00022748,0.00008861,0.00045222,-0.00016596
 ,-0.00000169,0.00005378,0.00019757,-0.00101999,0.00054875,0.00083060,0
 .00014975,-0.00011985,0.00030528,-0.00021678,-0.00002147,-0.00008391,0
 .00025784,-0.00249092,-0.00314023,-0.01861505,-0.00312939,0.00125171,-
 0.00084191,0.00421678,0.08974165,0.29712828,0.00059583,-0.00135799,-0.
 00059280,-0.00330338,-0.02524454,-0.00060588,-0.04408801,-0.01880233,0
 .00048667,-0.00316048,-0.00033687,0.00414415,-0.00018169,0.00060945,0.
 00037437,-0.00016255,0.00000216,-0.00004645,0.00027393,0.00020156,-0.0
 0011848,0.00100109,0.00046167,-0.00097985,-0.00004806,0.00013321,-0.00
 000528,0.00003433,0.00025015,-0.00000728,-0.00056217,-0.00162186,-0.00
 018177,-0.01277441,0.04008362,-0.00719495,0.00167744,-0.00234801,0.003
 14070,0.00180304,0.00007666,0.00105926,0.05889510,0.00091157,0.0008255
 7,-0.00151180,-0.00152316,-0.01246974,0.00041063,-0.01732129,-0.295650
 09,-0.00789097,-0.00159269,0.00109011,0.00139561,-0.00049978,0.0007990
 0,0.00048871,-0.00045836,0.00002251,0.00003681,0.00023299,0.00041555,0
 .00011354,-0.00210349,-0.00071461,-0.00128170,-0.00005049,-0.00011337,
 -0.00012484,0.00020587,0.00027762,-0.00005181,-0.00019619,-0.00058226,
 -0.00003133,0.01501612,-0.01284236,0.00669403,0.00089390,0.00294817,-0
 .00153436,-0.00140812,-0.00839180,-0.00064948,0.00789312,0.32438570,-0
 .00059972,0.00079281,0.00099690,0.00474165,0.01878621,-0.00046620,-0.0
 0049398,-0.01345714,-0.05666007,0.00221914,-0.00015067,-0.00124621,0.0
 0014015,-0.00048444,-0.00010393,0.00006328,-0.00022028,-0.00002849,-0.
 00032977,0.00000635,-0.00002003,0.00050010,0.00047139,0.00111962,0.000
 31965,0.00035119,0.00005807,-0.00026535,-0.00004756,-0.00012889,0.0002
 2915,0.00080775,0.00027676,-0.00631643,0.01790091,-0.00175789,0.000025
 06,-0.00003946,0.00414814,-0.00076053,-0.02865401,0.00132125,0.0005275
 9,0.00393695,0.05249096\\0.00000190,-0.00000129,-0.00000048,-0.0000178
 5,0.00000274,0.00001654,0.00002127,-0.00000124,-0.00001069,0.00000567,
 0.00000198,0.00000311,0.00000021,0.00000061,-0.00000047,-0.00000061,0.
 00000052,0.00000007,0.00000025,0.00000017,-0.00000032,-0.00000748,-0.0
 0000908,-0.00000541,-0.00000115,-0.00000076,0.00000054,-0.00000067,0.0
 0000030,0.00000013,-0.00000093,0.00000117,-0.00000111,-0.00000401,0.00
 000373,-0.00000272,0.00000520,0.00000283,0.00000383,-0.00000151,0.0000
 0023,-0.00000151,-0.00000030,-0.00000190,-0.00000152\\\@
 The archive entry for this job was punched.


 If fifty million people say a stupid thing,
 it is still a stupid thing.
                   -- Anatole France
 Job cpu time:       0 days  1 hours 33 minutes 51.7 seconds.
 Elapsed time:       0 days  0 hours 11 minutes 44.6 seconds.
 File lengths (MBytes):  RWF=    222 Int=      0 D2E=      0 Chk=     12 Scr=      1
 Normal termination of Gaussian 16 at Wed May  4 21:59:43 2022.
