 Entering Gaussian System, Link 0=g16
 Initial command:
 /apps/chpc/chem/gaussian16/B01/g16/l1.exe "/mnt/lustre/users/lmoskaleva/Kgalaletso/new/4117504.sched01/Gau-172406.inp" -scrdir="/mnt/lustre/users/lmoskaleva/Kgalaletso/new/4117504.sched01/"
 Entering Link 1 = /apps/chpc/chem/gaussian16/B01/g16/l1.exe PID=    172408.
  
 Copyright (c) 1988-2017, Gaussian, Inc.  All Rights Reserved.
  
 This is part of the Gaussian(R) 16 program.  It is based on
 the Gaussian(R) 09 system (copyright 2009, Gaussian, Inc.),
 the Gaussian(R) 03 system (copyright 2003, Gaussian, Inc.),
 the Gaussian(R) 98 system (copyright 1998, Gaussian, Inc.),
 the Gaussian(R) 94 system (copyright 1995, Gaussian, Inc.),
 the Gaussian 92(TM) system (copyright 1992, Gaussian, Inc.),
 the Gaussian 90(TM) system (copyright 1990, Gaussian, Inc.),
 the Gaussian 88(TM) system (copyright 1988, Gaussian, Inc.),
 the Gaussian 86(TM) system (copyright 1986, Carnegie Mellon
 University), and the Gaussian 82(TM) system (copyright 1983,
 Carnegie Mellon University). Gaussian is a federally registered
 trademark of Gaussian, Inc.
  
 This software contains proprietary and confidential information,
 including trade secrets, belonging to Gaussian, Inc.
  
 This software is provided under written license and may be
 used, copied, transmitted, or stored only in accord with that
 written license.
  
 The following legend is applicable only to US Government
 contracts under FAR:
  
                    RESTRICTED RIGHTS LEGEND
  
 Use, reproduction and disclosure by the US Government is
 subject to restrictions as set forth in subparagraphs (a)
 and (c) of the Commercial Computer Software - Restricted
 Rights clause in FAR 52.227-19.
  
 Gaussian, Inc.
 340 Quinnipiac St., Bldg. 40, Wallingford CT 06492
  
  
 ---------------------------------------------------------------
 Warning -- This program may not be used in any manner that
 competes with the business of Gaussian, Inc. or will provide
 assistance to any competitor of Gaussian, Inc.  The licensee
 of this program is prohibited from giving any competitor of
 Gaussian, Inc. access to this program.  By using this program,
 the user acknowledges that Gaussian, Inc. is engaged in the
 business of creating and licensing software in the field of
 computational chemistry and represents and warrants to the
 licensee that it is not a competitor of Gaussian, Inc. and that
 it will not use this program in any manner prohibited above.
 ---------------------------------------------------------------
  

 Cite this work as:
 Gaussian 16, Revision B.01,
 M. J. Frisch, G. W. Trucks, H. B. Schlegel, G. E. Scuseria, 
 M. A. Robb, J. R. Cheeseman, G. Scalmani, V. Barone, 
 G. A. Petersson, H. Nakatsuji, X. Li, M. Caricato, A. V. Marenich, 
 J. Bloino, B. G. Janesko, R. Gomperts, B. Mennucci, H. P. Hratchian, 
 J. V. Ortiz, A. F. Izmaylov, J. L. Sonnenberg, D. Williams-Young, 
 F. Ding, F. Lipparini, F. Egidi, J. Goings, B. Peng, A. Petrone, 
 T. Henderson, D. Ranasinghe, V. G. Zakrzewski, J. Gao, N. Rega, 
 G. Zheng, W. Liang, M. Hada, M. Ehara, K. Toyota, R. Fukuda, 
 J. Hasegawa, M. Ishida, T. Nakajima, Y. Honda, O. Kitao, H. Nakai, 
 T. Vreven, K. Throssell, J. A. Montgomery, Jr., J. E. Peralta, 
 F. Ogliaro, M. J. Bearpark, J. J. Heyd, E. N. Brothers, K. N. Kudin, 
 V. N. Staroverov, T. A. Keith, R. Kobayashi, J. Normand, 
 K. Raghavachari, A. P. Rendell, J. C. Burant, S. S. Iyengar, 
 J. Tomasi, M. Cossi, J. M. Millam, M. Klene, C. Adamo, R. Cammi, 
 J. W. Ochterski, R. L. Martin, K. Morokuma, O. Farkas, 
 J. B. Foresman, and D. J. Fox, Gaussian, Inc., Wallingford CT, 2016.
 
 ******************************************
 Gaussian 16:  ES64L-G16RevB.01 20-Dec-2017
                 9-Apr-2022 
 ******************************************
 %nprocshared=24
 Will use up to   24 processors via shared memory.
 %lindaworkers=cnode1310.cm.cluster,cnode1311.cm.cluster
 %mem=20GB
 %chk=QOOHisob-OH-Elim-TS5-b3lyp-c-N1.chk
 SetLPE:    new flags="-opt 'Tsnet.Node.lindarsharg: ssh'  -nodelist 'cnode1310.cm.cluster cnode1311.cm.cluster' -env GAUSS_MDEF=2684354560 -env GAUSS_EXEDIR="/apps/chpc/chem/gaussian16/B01/g16/bsd:/apps/chpc/chem/gaussian16/B01/g16""
 Will use up to    2 processors via Linda.
 ---------------------------------------------------
 # opt=(calcfc,ts,noeigentest) freq ub3lyp cc-pvtz+d
 ---------------------------------------------------
 1/5=1,10=4,11=1,18=20,26=3,38=1/1,3;
 2/9=110,12=2,17=6,18=5,40=1/2;
 3/5=16,6=1,7=9,11=2,25=1,30=1,71=2,74=-5,116=2,140=1/1,2,3;
 4//1;
 5/5=2,38=5/2;
 8/6=4,10=90,11=11/1;
 11/6=1,8=1,9=11,15=111,16=1/1,2,10;
 10/6=1,13=1/2;
 6/7=2,8=2,9=2,10=2,28=1/1;
 7/10=1,18=20,25=1/1,2,3,16;
 1/5=1,10=4,11=1,18=20,26=3/3(2);
 2/9=110/2;
 99//99;
 2/9=110/2;
 3/5=16,6=1,7=9,11=2,25=1,30=1,71=1,74=-5,116=2/1,2,3;
 4/5=5,16=3,69=1/1;
 5/5=2,38=5/2;
 7//1,2,3,16;
 1/5=1,11=1,18=20,26=3/3(-5);
 2/9=110/2;
 6/7=2,8=2,9=2,10=2,19=2,28=1/1;
 99/9=1/99;
 -------------------------------
 QOOHisob-OH-Elim-TS5-b3lyp-c-N1
 -------------------------------
 Symbolic Z-matrix:
 Charge =  0 Multiplicity = 2
 C                     0.36295  -0.02778   0.87976 
 H                     0.60093   0.86143   1.46947 
 H                     0.57026  -0.93705   1.45016 
 C                    -0.78003   0.00019   0.13354 
 H                     2.8004    0.66968  -0.77567 
 C                    -1.42044   1.2993   -0.20762 
 H                    -1.74255   1.32642  -1.25209 
 H                    -2.32299   1.45936   0.39756 
 H                    -0.75027   2.13942  -0.03207 
 C                    -1.4501   -1.26941  -0.25724 
 H                    -1.79902  -1.23754  -1.29264 
 H                    -0.78715  -2.12548  -0.14398 
 H                    -2.33861  -1.4476    0.36382 
 O                     0.81905  -0.02484  -0.3382 
 O                     2.60219  -0.06866  -0.1855 
 
 Add virtual bond connecting atoms O15        and O14        Dist= 3.38D+00.

 GradGradGradGradGradGradGradGradGradGradGradGradGradGradGradGradGradGrad
 Berny optimization.
 Initialization pass.
                           ----------------------------
                           !    Initial Parameters    !
                           ! (Angstroms and Degrees)  !
 --------------------------                            --------------------------
 ! Name  Definition              Value          Derivative Info.                !
 --------------------------------------------------------------------------------
 ! R1    R(1,2)                  1.0932         calculate D2E/DX2 analytically  !
 ! R2    R(1,3)                  1.0932         calculate D2E/DX2 analytically  !
 ! R3    R(1,4)                  1.3653         calculate D2E/DX2 analytically  !
 ! R4    R(1,14)                 1.3006         calculate D2E/DX2 analytically  !
 ! R5    R(4,6)                  1.488          calculate D2E/DX2 analytically  !
 ! R6    R(4,10)                 1.4878         calculate D2E/DX2 analytically  !
 ! R7    R(4,14)                 1.6674         calculate D2E/DX2 analytically  !
 ! R8    R(5,15)                 0.9658         calculate D2E/DX2 analytically  !
 ! R9    R(6,7)                  1.0933         calculate D2E/DX2 analytically  !
 ! R10   R(6,8)                  1.0984         calculate D2E/DX2 analytically  !
 ! R11   R(6,9)                  1.0889         calculate D2E/DX2 analytically  !
 ! R12   R(10,11)                1.0931         calculate D2E/DX2 analytically  !
 ! R13   R(10,12)                1.0887         calculate D2E/DX2 analytically  !
 ! R14   R(10,13)                1.0986         calculate D2E/DX2 analytically  !
 ! R15   R(14,15)                1.7902         calculate D2E/DX2 analytically  !
 ! A1    A(2,1,3)              110.7204         calculate D2E/DX2 analytically  !
 ! A2    A(2,1,4)              117.4136         calculate D2E/DX2 analytically  !
 ! A3    A(2,1,14)             115.2765         calculate D2E/DX2 analytically  !
 ! A4    A(3,1,4)              117.4504         calculate D2E/DX2 analytically  !
 ! A5    A(3,1,14)             115.0873         calculate D2E/DX2 analytically  !
 ! A6    A(1,4,6)              120.2316         calculate D2E/DX2 analytically  !
 ! A7    A(1,4,10)             120.206          calculate D2E/DX2 analytically  !
 ! A8    A(6,4,10)             119.4031         calculate D2E/DX2 analytically  !
 ! A9    A(6,4,14)             111.1605         calculate D2E/DX2 analytically  !
 ! A10   A(10,4,14)            110.1694         calculate D2E/DX2 analytically  !
 ! A11   A(4,6,7)              111.5598         calculate D2E/DX2 analytically  !
 ! A12   A(4,6,8)              110.765          calculate D2E/DX2 analytically  !
 ! A13   A(4,6,9)              111.8226         calculate D2E/DX2 analytically  !
 ! A14   A(7,6,8)              106.2987         calculate D2E/DX2 analytically  !
 ! A15   A(7,6,9)              108.4328         calculate D2E/DX2 analytically  !
 ! A16   A(8,6,9)              107.7257         calculate D2E/DX2 analytically  !
 ! A17   A(4,10,11)            111.5724         calculate D2E/DX2 analytically  !
 ! A18   A(4,10,12)            111.6809         calculate D2E/DX2 analytically  !
 ! A19   A(4,10,13)            110.7427         calculate D2E/DX2 analytically  !
 ! A20   A(11,10,12)           108.4125         calculate D2E/DX2 analytically  !
 ! A21   A(11,10,13)           106.3832         calculate D2E/DX2 analytically  !
 ! A22   A(12,10,13)           107.8271         calculate D2E/DX2 analytically  !
 ! A23   A(1,14,15)            105.627          calculate D2E/DX2 analytically  !
 ! A24   A(4,14,15)            158.6661         calculate D2E/DX2 analytically  !
 ! A25   A(5,15,14)             97.6771         calculate D2E/DX2 analytically  !
 ! D1    D(2,1,4,6)             19.1372         calculate D2E/DX2 analytically  !
 ! D2    D(2,1,4,10)          -156.2479         calculate D2E/DX2 analytically  !
 ! D3    D(3,1,4,6)            155.0724         calculate D2E/DX2 analytically  !
 ! D4    D(3,1,4,10)           -20.3127         calculate D2E/DX2 analytically  !
 ! D5    D(2,1,14,15)           65.729          calculate D2E/DX2 analytically  !
 ! D6    D(3,1,14,15)          -65.0459         calculate D2E/DX2 analytically  !
 ! D7    D(1,4,6,7)            136.6436         calculate D2E/DX2 analytically  !
 ! D8    D(1,4,6,8)           -105.1575         calculate D2E/DX2 analytically  !
 ! D9    D(1,4,6,9)             15.013          calculate D2E/DX2 analytically  !
 ! D10   D(10,4,6,7)           -47.9343         calculate D2E/DX2 analytically  !
 ! D11   D(10,4,6,8)            70.2647         calculate D2E/DX2 analytically  !
 ! D12   D(10,4,6,9)          -169.5648         calculate D2E/DX2 analytically  !
 ! D13   D(14,4,6,7)            82.0464         calculate D2E/DX2 analytically  !
 ! D14   D(14,4,6,8)          -159.7546         calculate D2E/DX2 analytically  !
 ! D15   D(14,4,6,9)           -39.5841         calculate D2E/DX2 analytically  !
 ! D16   D(1,4,10,11)         -138.3543         calculate D2E/DX2 analytically  !
 ! D17   D(1,4,10,12)          -16.8416         calculate D2E/DX2 analytically  !
 ! D18   D(1,4,10,13)          103.3473         calculate D2E/DX2 analytically  !
 ! D19   D(6,4,10,11)           46.2223         calculate D2E/DX2 analytically  !
 ! D20   D(6,4,10,12)          167.7351         calculate D2E/DX2 analytically  !
 ! D21   D(6,4,10,13)          -72.076          calculate D2E/DX2 analytically  !
 ! D22   D(14,4,10,11)         -84.2008         calculate D2E/DX2 analytically  !
 ! D23   D(14,4,10,12)          37.312          calculate D2E/DX2 analytically  !
 ! D24   D(14,4,10,13)         157.5009         calculate D2E/DX2 analytically  !
 ! D25   D(6,4,14,15)          113.145          calculate D2E/DX2 analytically  !
 ! D26   D(10,4,14,15)        -112.1849         calculate D2E/DX2 analytically  !
 ! D27   D(1,14,15,5)         -129.7272         calculate D2E/DX2 analytically  !
 ! D28   D(4,14,15,5)         -130.4264         calculate D2E/DX2 analytically  !
 --------------------------------------------------------------------------------
 Trust Radius=3.00D-01 FncErr=1.00D-07 GrdErr=1.00D-06 EigMax=2.50D+02 EigMin=1.00D-04
 Number of steps in this run=     78 maximum allowed number of steps=    100.
 Search for a saddle point of order  1.
 GradGradGradGradGradGradGradGradGradGradGradGradGradGradGradGradGradGrad

                          Input orientation:                          
 ---------------------------------------------------------------------
 Center     Atomic      Atomic             Coordinates (Angstroms)
 Number     Number       Type             X           Y           Z
 ---------------------------------------------------------------------
      1          6           0        0.362947   -0.027783    0.879763
      2          1           0        0.600929    0.861435    1.469469
      3          1           0        0.570263   -0.937053    1.450160
      4          6           0       -0.780030    0.000191    0.133541
      5          1           0        2.800400    0.669677   -0.775673
      6          6           0       -1.420436    1.299304   -0.207625
      7          1           0       -1.742546    1.326422   -1.252088
      8          1           0       -2.322991    1.459362    0.397561
      9          1           0       -0.750271    2.139416   -0.032072
     10          6           0       -1.450103   -1.269411   -0.257240
     11          1           0       -1.799018   -1.237540   -1.292641
     12          1           0       -0.787154   -2.125484   -0.143980
     13          1           0       -2.338612   -1.447601    0.363820
     14          8           0        0.819050   -0.024845   -0.338201
     15          8           0        2.602187   -0.068659   -0.185497
 ---------------------------------------------------------------------
                    Distance matrix (angstroms):
                    1          2          3          4          5
     1  C    0.000000
     2  H    1.093205   0.000000
     3  H    1.093208   1.798853   0.000000
     4  C    1.365294   2.105586   2.105993   0.000000
     5  H    3.027886   3.148826   3.536866   3.754245   0.000000
     6  C    2.474678   2.662760   3.422343   1.488022   4.305179
     7  H    3.288125   3.621459   4.215988   2.145995   4.614828
     8  H    3.107794   3.171090   3.901499   2.140004   5.314999
     9  H    2.601433   2.390315   3.661351   2.145832   3.914120
    10  C    2.474180   3.424728   2.666000   1.487816   4.700597
    11  H    3.294988   4.218375   3.636859   2.145766   5.005934
    12  H    2.602139   3.667652   2.407536   2.143726   4.591569
    13  H    3.095238   3.898077   3.146800   2.139698   5.673689
    14  O    1.300567   2.025028   2.022932   1.667400   2.144642
    15  O    2.480049   2.758445   2.749217   3.397928   0.965783
                    6          7          8          9         10
     6  C    0.000000
     7  H    1.093340   0.000000
     8  H    1.098396   1.753833   0.000000
     9  H    1.088911   1.770313   1.766495   0.000000
    10  C    2.569365   2.795281   2.938860   3.487200   0.000000
    11  H    2.784989   2.564904   3.225618   3.754029   1.093075
    12  H    3.483428   3.749178   3.937408   4.266527   1.088664
    13  H    2.952132   3.265219   2.907201   3.942873   1.098597
    14  O    2.604941   3.036920   3.551990   2.690819   2.589315
    15  O    4.248918   4.686210   5.189622   4.017226   4.227056
                   11         12         13         14         15
    11  H    0.000000
    12  H    1.769671   0.000000
    13  H    1.754751   1.767600   0.000000
    14  O    3.039056   2.651470   3.533821   0.000000
    15  O    4.686433   3.964831   5.158946   1.790200   0.000000
 Stoichiometry    C4H9O2(2)
 Framework group  C1[X(C4H9O2)]
 Deg. of freedom    39
 Full point group                 C1      NOp   1
 Largest Abelian subgroup         C1      NOp   1
 Largest concise Abelian subgroup C1      NOp   1
                         Standard orientation:                         
 ---------------------------------------------------------------------
 Center     Atomic      Atomic             Coordinates (Angstroms)
 Number     Number       Type             X           Y           Z
 ---------------------------------------------------------------------
      1          6           0        0.339316   -0.028788    0.888844
      2          1           0        0.588775    0.859373    1.475391
      3          1           0        0.554169   -0.939030    1.454885
      4          6           0       -0.815744    0.002205    0.161587
      5          1           0        2.750560    0.665419   -0.805874
      6          6           0       -1.459064    1.302931   -0.167748
      7          1           0       -1.798285    1.331718   -1.206734
      8          1           0       -2.351199    1.464200    0.452382
      9          1           0       -0.784404    2.141528   -0.002466
     10          6           0       -1.494723   -1.265670   -0.219302
     11          1           0       -1.860587   -1.232085   -1.248782
     12          1           0       -0.831726   -2.123178   -0.117794
     13          1           0       -2.373235   -1.442692    0.416147
     14          8           0        0.775292   -0.025567   -0.336468
     15          8           0        2.560611   -0.073098   -0.213212
 ---------------------------------------------------------------------
 Rotational constants (GHZ):           6.3067110           2.2453705           1.9293809
 Standard basis: CC-pVTZ+d (5D, 7F)
 There are   345 symmetry adapted cartesian basis functions of A   symmetry.
 There are   306 symmetry adapted basis functions of A   symmetry.
   306 basis functions,   465 primitive gaussians,   345 cartesian basis functions
    25 alpha electrons       24 beta electrons
       nuclear repulsion energy       254.5399674707 Hartrees.
 NAtoms=   15 NActive=   15 NUniq=   15 SFac= 1.00D+00 NAtFMM=   60 NAOKFM=F Big=F
 Integral buffers will be    131072 words long.
 Raffenetti 2 integral format.
 Two-electron integral symmetry is turned on.
 One-electron integrals computed using PRISM.
 NBasis=   306 RedAO= T EigKep=  2.69D-04  NBF=   306
 NBsUse=   306 1.00D-06 EigRej= -1.00D+00 NBFU=   306
 ExpMin= 1.03D-01 ExpMax= 1.53D+04 ExpMxC= 5.22D+02 IAcc=3 IRadAn=         5 AccDes= 0.00D+00
 Harris functional with IExCor=  402 and IRadAn=       5 diagonalized for initial guess.
 HarFok:  IExCor=  402 AccDes= 0.00D+00 IRadAn=         5 IDoV= 1 UseB2=F ITyADJ=14
 ICtDFT=  3500011 ScaDFX=  1.000000  1.000000  1.000000  1.000000
 FoFCou: FMM=F IPFlag=           0 FMFlag=      100000 FMFlg1=           0
         NFxFlg=           0 DoJE=T BraDBF=F KetDBF=T FulRan=T
         wScrn=  0.000000 ICntrl=       500 IOpCl=  0 I1Cent=   200000004 NGrid=           0
         NMat0=    1 NMatS0=      1 NMatT0=    0 NMatD0=    1 NMtDS0=    0 NMtDT0=    0
 Petite list used in FoFCou.
 Initial guess <Sx>= 0.0000 <Sy>= 0.0000 <Sz>= 0.5000 <S**2>= 0.7500 S= 0.5000
 Requested convergence on RMS density matrix=1.00D-08 within 128 cycles.
 Requested convergence on MAX density matrix=1.00D-06.
 Requested convergence on             energy=1.00D-06.
 No special actions if energy rises.
 Integral accuracy reduced to 1.0D-05 until final iterations.
 Initial convergence to 1.0D-05 achieved.  Increase integral accuracy.
 SCF Done:  E(UB3LYP) =  -308.236094525     A.U. after   19 cycles
            NFock= 19  Conv=0.67D-08     -V/T= 2.0044
 <Sx>= 0.0000 <Sy>= 0.0000 <Sz>= 0.5000 <S**2>= 0.7650 S= 0.5075
 <L.S>= 0.000000000000E+00
 Annihilation of the first spin contaminant:
 S**2 before annihilation     0.7650,   after     0.7501
 DoSCS=F DFT=T ScalE2(SS,OS)=  1.000000  1.000000
 Range of M.O.s used for correlation:     1   306
 NBasis=   306 NAE=    25 NBE=    24 NFC=     0 NFV=     0
 NROrb=    306 NOA=    25 NOB=    24 NVA=   281 NVB=   282

 **** Warning!!: The largest alpha MO coefficient is  0.12039026D+02


 **** Warning!!: The largest beta MO coefficient is  0.13314538D+02

 Symmetrizing basis deriv contribution to polar:
 IMax=3 JMax=2 DiffMx= 0.00D+00
 G2DrvN: will do    16 centers at a time, making    1 passes.
 Calling FoFCou, ICntrl=  3107 FMM=F I1Cent=   0 AccDes= 0.00D+00.
 End of G2Drv F.D. properties file   721 does not exist.
 End of G2Drv F.D. properties file   722 does not exist.
 End of G2Drv F.D. properties file   788 does not exist.
          IDoAtm=111111111111111
          Differentiating once with respect to nuclear coordinates.
 Keep R1 and R2 ints in memory in canonical form, NReq=2234005275.
          There are    48 degrees of freedom in the 1st order CPHF.  IDoFFX=6 NUNeed=     0.
     42 vectors produced by pass  0 Test12= 2.87D-14 2.08D-09 XBig12= 3.36D-01 1.65D-01.
 AX will form    42 AO Fock derivatives at one time.
     42 vectors produced by pass  1 Test12= 2.87D-14 2.08D-09 XBig12= 1.30D-01 9.99D-02.
     42 vectors produced by pass  2 Test12= 2.87D-14 2.08D-09 XBig12= 1.46D-03 5.27D-03.
     42 vectors produced by pass  3 Test12= 2.87D-14 2.08D-09 XBig12= 1.88D-05 5.79D-04.
     42 vectors produced by pass  4 Test12= 2.87D-14 2.08D-09 XBig12= 1.45D-07 4.00D-05.
     42 vectors produced by pass  5 Test12= 2.87D-14 2.08D-09 XBig12= 9.95D-10 3.22D-06.
     25 vectors produced by pass  6 Test12= 2.87D-14 2.08D-09 XBig12= 4.56D-12 1.89D-07.
      8 vectors produced by pass  7 Test12= 2.87D-14 2.08D-09 XBig12= 1.83D-14 1.33D-08.
 InvSVY:  IOpt=1 It=  1 EMax= 2.22D-15
 Solved reduced A of dimension   285 with    42 vectors.
 End of Minotr F.D. properties file   721 does not exist.
 End of Minotr F.D. properties file   722 does not exist.
 End of Minotr F.D. properties file   788 does not exist.

 **********************************************************************

            Population analysis using the SCF Density.

 **********************************************************************

 Orbital symmetries:
 Alpha Orbitals:
       Occupied  (A) (A) (A) (A) (A) (A) (A) (A) (A) (A) (A) (A)
                 (A) (A) (A) (A) (A) (A) (A) (A) (A) (A) (A) (A)
                 (A)
       Virtual   (A) (A) (A) (A) (A) (A) (A) (A) (A) (A) (A) (A)
                 (A) (A) (A) (A) (A) (A) (A) (A) (A) (A) (A) (A)
                 (A) (A) (A) (A) (A) (A) (A) (A) (A) (A) (A) (A)
                 (A) (A) (A) (A) (A) (A) (A) (A) (A) (A) (A) (A)
                 (A) (A) (A) (A) (A) (A) (A) (A) (A) (A) (A) (A)
                 (A) (A) (A) (A) (A) (A) (A) (A) (A) (A) (A) (A)
                 (A) (A) (A) (A) (A) (A) (A) (A) (A) (A) (A) (A)
                 (A) (A) (A) (A) (A) (A) (A) (A) (A) (A) (A) (A)
                 (A) (A) (A) (A) (A) (A) (A) (A) (A) (A) (A) (A)
                 (A) (A) (A) (A) (A) (A) (A) (A) (A) (A) (A) (A)
                 (A) (A) (A) (A) (A) (A) (A) (A) (A) (A) (A) (A)
                 (A) (A) (A) (A) (A) (A) (A) (A) (A) (A) (A) (A)
                 (A) (A) (A) (A) (A) (A) (A) (A) (A) (A) (A) (A)
                 (A) (A) (A) (A) (A) (A) (A) (A) (A) (A) (A) (A)
                 (A) (A) (A) (A) (A) (A) (A) (A) (A) (A) (A) (A)
                 (A) (A) (A) (A) (A) (A) (A) (A) (A) (A) (A) (A)
                 (A) (A) (A) (A) (A) (A) (A) (A) (A) (A) (A) (A)
                 (A) (A) (A) (A) (A) (A) (A) (A) (A) (A) (A) (A)
                 (A) (A) (A) (A) (A) (A) (A) (A) (A) (A) (A) (A)
                 (A) (A) (A) (A) (A) (A) (A) (A) (A) (A) (A) (A)
                 (A) (A) (A) (A) (A) (A) (A) (A) (A) (A) (A) (A)
                 (A) (A) (A) (A) (A) (A) (A) (A) (A) (A) (A) (A)
                 (A) (A) (A) (A) (A) (A) (A) (A) (A) (A) (A) (A)
                 (A) (A) (A) (A) (A)
 Beta  Orbitals:
       Occupied  (A) (A) (A) (A) (A) (A) (A) (A) (A) (A) (A) (A)
                 (A) (A) (A) (A) (A) (A) (A) (A) (A) (A) (A) (A)
       Virtual   (A) (A) (A) (A) (A) (A) (A) (A) (A) (A) (A) (A)
                 (A) (A) (A) (A) (A) (A) (A) (A) (A) (A) (A) (A)
                 (A) (A) (A) (A) (A) (A) (A) (A) (A) (A) (A) (A)
                 (A) (A) (A) (A) (A) (A) (A) (A) (A) (A) (A) (A)
                 (A) (A) (A) (A) (A) (A) (A) (A) (A) (A) (A) (A)
                 (A) (A) (A) (A) (A) (A) (A) (A) (A) (A) (A) (A)
                 (A) (A) (A) (A) (A) (A) (A) (A) (A) (A) (A) (A)
                 (A) (A) (A) (A) (A) (A) (A) (A) (A) (A) (A) (A)
                 (A) (A) (A) (A) (A) (A) (A) (A) (A) (A) (A) (A)
                 (A) (A) (A) (A) (A) (A) (A) (A) (A) (A) (A) (A)
                 (A) (A) (A) (A) (A) (A) (A) (A) (A) (A) (A) (A)
                 (A) (A) (A) (A) (A) (A) (A) (A) (A) (A) (A) (A)
                 (A) (A) (A) (A) (A) (A) (A) (A) (A) (A) (A) (A)
                 (A) (A) (A) (A) (A) (A) (A) (A) (A) (A) (A) (A)
                 (A) (A) (A) (A) (A) (A) (A) (A) (A) (A) (A) (A)
                 (A) (A) (A) (A) (A) (A) (A) (A) (A) (A) (A) (A)
                 (A) (A) (A) (A) (A) (A) (A) (A) (A) (A) (A) (A)
                 (A) (A) (A) (A) (A) (A) (A) (A) (A) (A) (A) (A)
                 (A) (A) (A) (A) (A) (A) (A) (A) (A) (A) (A) (A)
                 (A) (A) (A) (A) (A) (A) (A) (A) (A) (A) (A) (A)
                 (A) (A) (A) (A) (A) (A) (A) (A) (A) (A) (A) (A)
                 (A) (A) (A) (A) (A) (A) (A) (A) (A) (A) (A) (A)
                 (A) (A) (A) (A) (A) (A) (A) (A) (A) (A) (A) (A)
                 (A) (A) (A) (A) (A) (A)
 The electronic state is 2-A.
 Alpha  occ. eigenvalues --  -19.14453 -19.11613 -10.24209 -10.20870 -10.18715
 Alpha  occ. eigenvalues --  -10.18490  -1.08938  -0.95131  -0.80730  -0.72257
 Alpha  occ. eigenvalues --   -0.67362  -0.58181  -0.51027  -0.50052  -0.45792
 Alpha  occ. eigenvalues --   -0.44397  -0.42347  -0.41056  -0.39750  -0.38390
 Alpha  occ. eigenvalues --   -0.37506  -0.35396  -0.28951  -0.25846  -0.23385
 Alpha virt. eigenvalues --    0.01515   0.02825   0.06170   0.07078   0.08225
 Alpha virt. eigenvalues --    0.09164   0.09402   0.10000   0.12514   0.13807
 Alpha virt. eigenvalues --    0.14858   0.16109   0.20891   0.21385   0.25264
 Alpha virt. eigenvalues --    0.25472   0.30368   0.32506   0.32844   0.33432
 Alpha virt. eigenvalues --    0.34878   0.40472   0.40570   0.42261   0.43812
 Alpha virt. eigenvalues --    0.44402   0.44664   0.44924   0.45626   0.46392
 Alpha virt. eigenvalues --    0.46581   0.47555   0.47931   0.50084   0.52306
 Alpha virt. eigenvalues --    0.54760   0.57868   0.58367   0.62462   0.63845
 Alpha virt. eigenvalues --    0.64807   0.65974   0.69366   0.70978   0.72864
 Alpha virt. eigenvalues --    0.75903   0.76876   0.78233   0.82378   0.83912
 Alpha virt. eigenvalues --    0.85894   0.88396   0.91251   0.92377   0.93653
 Alpha virt. eigenvalues --    0.94826   0.95984   0.96289   1.00284   1.01897
 Alpha virt. eigenvalues --    1.02902   1.04784   1.07859   1.11288   1.13273
 Alpha virt. eigenvalues --    1.14111   1.16509   1.16528   1.17497   1.19426
 Alpha virt. eigenvalues --    1.21475   1.22221   1.23408   1.25527   1.27470
 Alpha virt. eigenvalues --    1.28867   1.30372   1.30784   1.32199   1.33728
 Alpha virt. eigenvalues --    1.35910   1.37766   1.41035   1.42448   1.43553
 Alpha virt. eigenvalues --    1.44813   1.45405   1.47915   1.51666   1.52710
 Alpha virt. eigenvalues --    1.53544   1.62952   1.64328   1.70277   1.77658
 Alpha virt. eigenvalues --    1.79855   1.83073   1.88112   1.92888   1.96386
 Alpha virt. eigenvalues --    2.03672   2.03942   2.09378   2.14802   2.16128
 Alpha virt. eigenvalues --    2.25282   2.27605   2.28431   2.31673   2.34284
 Alpha virt. eigenvalues --    2.38654   2.39929   2.43371   2.48925   2.50471
 Alpha virt. eigenvalues --    2.54891   2.58639   2.59409   2.62480   2.65819
 Alpha virt. eigenvalues --    2.67870   2.68777   2.72751   2.77771   2.78223
 Alpha virt. eigenvalues --    2.81466   2.82580   2.84182   2.85579   2.87157
 Alpha virt. eigenvalues --    2.89613   2.90022   2.92902   2.93381   2.95158
 Alpha virt. eigenvalues --    2.97046   2.99006   3.01368   3.03337   3.05121
 Alpha virt. eigenvalues --    3.06735   3.07575   3.08461   3.10486   3.10744
 Alpha virt. eigenvalues --    3.11731   3.20033   3.21069   3.21679   3.24461
 Alpha virt. eigenvalues --    3.27184   3.28039   3.29340   3.30019   3.32080
 Alpha virt. eigenvalues --    3.34332   3.36701   3.39987   3.40822   3.41370
 Alpha virt. eigenvalues --    3.42855   3.44371   3.45979   3.48335   3.49586
 Alpha virt. eigenvalues --    3.50780   3.51991   3.52354   3.53975   3.58225
 Alpha virt. eigenvalues --    3.60038   3.65465   3.67180   3.69717   3.71527
 Alpha virt. eigenvalues --    3.72789   3.75093   3.76322   3.77302   3.79239
 Alpha virt. eigenvalues --    3.81586   3.84113   3.86171   3.86441   3.88350
 Alpha virt. eigenvalues --    3.90047   3.92106   3.93157   3.97717   3.98379
 Alpha virt. eigenvalues --    3.98786   4.02519   4.05772   4.06707   4.08340
 Alpha virt. eigenvalues --    4.09711   4.11604   4.12703   4.15078   4.16818
 Alpha virt. eigenvalues --    4.18082   4.19383   4.24340   4.24457   4.26954
 Alpha virt. eigenvalues --    4.32307   4.33654   4.37930   4.39341   4.40905
 Alpha virt. eigenvalues --    4.42559   4.44763   4.46323   4.51882   4.54018
 Alpha virt. eigenvalues --    4.59276   4.71164   4.72415   4.76448   4.79939
 Alpha virt. eigenvalues --    4.80253   4.83933   4.85546   4.87549   4.90875
 Alpha virt. eigenvalues --    4.98556   4.99085   5.05597   5.06095   5.06573
 Alpha virt. eigenvalues --    5.10968   5.12694   5.13659   5.15935   5.16742
 Alpha virt. eigenvalues --    5.19111   5.20405   5.22612   5.26383   5.28278
 Alpha virt. eigenvalues --    5.31376   5.32774   5.35247   5.37620   5.38026
 Alpha virt. eigenvalues --    5.40236   5.43062   5.44527   5.53315   5.54874
 Alpha virt. eigenvalues --    5.59274   5.66190   5.73561   5.84717   5.85943
 Alpha virt. eigenvalues --    5.86701   5.89003   5.91926   6.02749   6.07563
 Alpha virt. eigenvalues --    6.25724   6.33722   6.37374   6.39556   6.44015
 Alpha virt. eigenvalues --    6.53543   6.64771   6.67696   6.72207   6.79250
 Alpha virt. eigenvalues --    6.92988   6.98580   7.09729   7.17829   7.64465
 Alpha virt. eigenvalues --   10.21006  10.80519  11.66264  13.61639  13.82141
 Alpha virt. eigenvalues --   14.89461
  Beta  occ. eigenvalues --  -19.14265 -19.09543 -10.23755 -10.20914 -10.18739
  Beta  occ. eigenvalues --  -10.18513  -1.08481  -0.90226  -0.80061  -0.72174
  Beta  occ. eigenvalues --   -0.66960  -0.57567  -0.50869  -0.49179  -0.45101
  Beta  occ. eigenvalues --   -0.43978  -0.41110  -0.40824  -0.39613  -0.37951
  Beta  occ. eigenvalues --   -0.37148  -0.31269  -0.27945  -0.24602
  Beta virt. eigenvalues --   -0.09192   0.02520   0.04476   0.06378   0.07157
  Beta virt. eigenvalues --    0.08366   0.09243   0.09934   0.10188   0.12596
  Beta virt. eigenvalues --    0.14075   0.14878   0.16446   0.20950   0.21461
  Beta virt. eigenvalues --    0.25339   0.25564   0.30496   0.32698   0.32961
  Beta virt. eigenvalues --    0.33504   0.35948   0.40704   0.41006   0.42422
  Beta virt. eigenvalues --    0.44062   0.44587   0.44771   0.45154   0.45720
  Beta virt. eigenvalues --    0.46415   0.46812   0.47814   0.48128   0.50387
  Beta virt. eigenvalues --    0.52546   0.55259   0.58283   0.58896   0.62970
  Beta virt. eigenvalues --    0.64735   0.66006   0.66335   0.69758   0.71467
  Beta virt. eigenvalues --    0.73645   0.76072   0.77316   0.78396   0.82636
  Beta virt. eigenvalues --    0.83992   0.86006   0.88737   0.91485   0.92506
  Beta virt. eigenvalues --    0.93797   0.95214   0.96106   0.96455   1.00549
  Beta virt. eigenvalues --    1.02092   1.03232   1.04936   1.08131   1.11533
  Beta virt. eigenvalues --    1.13599   1.14584   1.16665   1.16747   1.17600
  Beta virt. eigenvalues --    1.19851   1.21721   1.22415   1.23649   1.25712
  Beta virt. eigenvalues --    1.27752   1.29082   1.30521   1.30901   1.32593
  Beta virt. eigenvalues --    1.33961   1.36249   1.38814   1.41136   1.42756
  Beta virt. eigenvalues --    1.43903   1.45035   1.45972   1.47991   1.52133
  Beta virt. eigenvalues --    1.52935   1.53833   1.64286   1.65562   1.71260
  Beta virt. eigenvalues --    1.78202   1.81410   1.83517   1.88306   1.93789
  Beta virt. eigenvalues --    1.97129   2.04155   2.04351   2.09717   2.14969
  Beta virt. eigenvalues --    2.17240   2.25879   2.27851   2.28742   2.32813
  Beta virt. eigenvalues --    2.35149   2.38740   2.40096   2.43905   2.49374
  Beta virt. eigenvalues --    2.50808   2.54928   2.59092   2.59580   2.62747
  Beta virt. eigenvalues --    2.65922   2.68021   2.69156   2.73186   2.77865
  Beta virt. eigenvalues --    2.78529   2.81716   2.83098   2.84573   2.85695
  Beta virt. eigenvalues --    2.87606   2.89714   2.90234   2.93162   2.93827
  Beta virt. eigenvalues --    2.95471   2.97291   2.99263   3.01430   3.03455
  Beta virt. eigenvalues --    3.05302   3.06855   3.07729   3.08774   3.10708
  Beta virt. eigenvalues --    3.11107   3.11833   3.20502   3.21239   3.21808
  Beta virt. eigenvalues --    3.24858   3.27597   3.28577   3.29955   3.30389
  Beta virt. eigenvalues --    3.32379   3.34521   3.36963   3.40232   3.41365
  Beta virt. eigenvalues --    3.42262   3.43479   3.44458   3.46099   3.48583
  Beta virt. eigenvalues --    3.49844   3.50910   3.52110   3.53232   3.54285
  Beta virt. eigenvalues --    3.58593   3.60680   3.65631   3.67545   3.70003
  Beta virt. eigenvalues --    3.71827   3.73108   3.75789   3.76681   3.78054
  Beta virt. eigenvalues --    3.79472   3.81783   3.84303   3.86546   3.86590
  Beta virt. eigenvalues --    3.88786   3.91034   3.92454   3.93390   3.97999
  Beta virt. eigenvalues --    3.98681   3.99128   4.02657   4.05984   4.06868
  Beta virt. eigenvalues --    4.08680   4.10006   4.11777   4.12988   4.15565
  Beta virt. eigenvalues --    4.17065   4.18346   4.19595   4.24588   4.25942
  Beta virt. eigenvalues --    4.28034   4.32556   4.33829   4.38263   4.39701
  Beta virt. eigenvalues --    4.41354   4.42737   4.45523   4.47262   4.52152
  Beta virt. eigenvalues --    4.54461   4.59613   4.71258   4.72599   4.76635
  Beta virt. eigenvalues --    4.80094   4.80456   4.84253   4.85807   4.87856
  Beta virt. eigenvalues --    4.92592   4.98697   4.99224   5.05678   5.06360
  Beta virt. eigenvalues --    5.06784   5.11889   5.13003   5.13829   5.16794
  Beta virt. eigenvalues --    5.18525   5.19283   5.21549   5.25432   5.26696
  Beta virt. eigenvalues --    5.28591   5.31846   5.32973   5.35461   5.37919
  Beta virt. eigenvalues --    5.38822   5.40795   5.44995   5.47015   5.53856
  Beta virt. eigenvalues --    5.56222   5.59842   5.66335   5.73831   5.85055
  Beta virt. eigenvalues --    5.86442   5.87224   5.89229   5.92021   6.02812
  Beta virt. eigenvalues --    6.08612   6.26517   6.33955   6.41617   6.42893
  Beta virt. eigenvalues --    6.48801   6.57634   6.66990   6.68292   6.73812
  Beta virt. eigenvalues --    6.80976   6.94632   6.99202   7.10743   7.20609
  Beta virt. eigenvalues --    7.66767  10.21560  10.82770  11.66443  13.61710
  Beta virt. eigenvalues --   13.82157  14.89565
          Condensed to atoms (all electrons):
               1          2          3          4          5          6
     1  C    4.705616   0.383060   0.389487   0.266851  -0.001190  -0.050084
     2  H    0.383060   0.746754  -0.086310  -0.023260  -0.000630  -0.012997
     3  H    0.389487  -0.086310   0.731087  -0.025279  -0.000225   0.009382
     4  C    0.266851  -0.023260  -0.025279   5.051067  -0.005487   0.358878
     5  H   -0.001190  -0.000630  -0.000225  -0.005487   0.485684   0.000321
     6  C   -0.050084  -0.012997   0.009382   0.358878   0.000321   4.840520
     7  H    0.008490   0.000975  -0.000991  -0.033872   0.000030   0.393330
     8  H   -0.002355  -0.001478   0.001677  -0.046692  -0.000016   0.389828
     9  H   -0.001618  -0.004034   0.000837  -0.037495   0.000205   0.405402
    10  C   -0.038551   0.008461  -0.010843   0.346098   0.000107  -0.065061
    11  H    0.007781  -0.000907   0.000782  -0.033732   0.000024  -0.000330
    12  H    0.000241   0.000840  -0.004569  -0.038276   0.000004   0.004277
    13  H   -0.003166   0.001597  -0.001098  -0.045784  -0.000010  -0.001770
    14  O    0.320820  -0.059863  -0.058773   0.025155   0.009411   0.007648
    15  O   -0.017059   0.007534   0.005729   0.025180   0.301669  -0.000439
               7          8          9         10         11         12
     1  C    0.008490  -0.002355  -0.001618  -0.038551   0.007781   0.000241
     2  H    0.000975  -0.001478  -0.004034   0.008461  -0.000907   0.000840
     3  H   -0.000991   0.001677   0.000837  -0.010843   0.000782  -0.004569
     4  C   -0.033872  -0.046692  -0.037495   0.346098  -0.033732  -0.038276
     5  H    0.000030  -0.000016   0.000205   0.000107   0.000024   0.000004
     6  C    0.393330   0.389828   0.405402  -0.065061  -0.000330   0.004277
     7  H    0.597374  -0.038611  -0.025937  -0.000384   0.003308   0.000184
     8  H   -0.038611   0.623493  -0.025186  -0.001983  -0.000301  -0.000463
     9  H   -0.025937  -0.025186   0.570311   0.004795   0.000144  -0.000494
    10  C   -0.000384  -0.001983   0.004795   4.838501   0.394565   0.405950
    11  H    0.003308  -0.000301   0.000144   0.394565   0.597293  -0.024559
    12  H    0.000184  -0.000463  -0.000494   0.405950  -0.024559   0.559385
    13  H   -0.000265   0.001254  -0.000438   0.389776  -0.038411  -0.025077
    14  O   -0.004886   0.004075   0.004601   0.006222  -0.004603   0.005727
    15  O   -0.000060   0.000031  -0.000052  -0.001063  -0.000078  -0.000004
              13         14         15
     1  C   -0.003166   0.320820  -0.017059
     2  H    0.001597  -0.059863   0.007534
     3  H   -0.001098  -0.058773   0.005729
     4  C   -0.045784   0.025155   0.025180
     5  H   -0.000010   0.009411   0.301669
     6  C   -0.001770   0.007648  -0.000439
     7  H   -0.000265  -0.004886  -0.000060
     8  H    0.001254   0.004075   0.000031
     9  H   -0.000438   0.004601  -0.000052
    10  C    0.389776   0.006222  -0.001063
    11  H   -0.038411  -0.004603  -0.000078
    12  H   -0.025077   0.005727  -0.000004
    13  H    0.624432   0.004175   0.000033
    14  O    0.004175   8.074969  -0.063044
    15  O    0.000033  -0.063044   8.079905
          Atomic-Atomic Spin Densities.
               1          2          3          4          5          6
     1  C   -0.037920   0.000072  -0.002011   0.007538   0.000541   0.001999
     2  H    0.000072   0.003844   0.002031  -0.000757  -0.000513  -0.000430
     3  H   -0.002011   0.002031   0.005830  -0.000075  -0.000285  -0.000217
     4  C    0.007538  -0.000757  -0.000075   0.301200  -0.001107  -0.008564
     5  H    0.000541  -0.000513  -0.000285  -0.001107  -0.011214   0.000125
     6  C    0.001999  -0.000430  -0.000217  -0.008564   0.000125  -0.014071
     7  H    0.000676  -0.000226  -0.000089  -0.005133   0.000067   0.002219
     8  H   -0.001034   0.000590   0.000187  -0.008182  -0.000023   0.004612
     9  H    0.000218  -0.000207  -0.000058  -0.000441   0.000036   0.000492
    10  C    0.002505  -0.000377  -0.000950  -0.008834   0.000092   0.001661
    11  H    0.000858  -0.000081  -0.000235  -0.005957   0.000032   0.000267
    12  H    0.000452  -0.000074  -0.000408  -0.000989   0.000022   0.000035
    13  H   -0.001412   0.000172   0.000695  -0.006421  -0.000011   0.000318
    14  O    0.019340  -0.004094  -0.004475  -0.005606   0.008791   0.000182
    15  O   -0.009342   0.002589   0.002877   0.012364  -0.003036  -0.000579
               7          8          9         10         11         12
     1  C    0.000676  -0.001034   0.000218   0.002505   0.000858   0.000452
     2  H   -0.000226   0.000590  -0.000207  -0.000377  -0.000081  -0.000074
     3  H   -0.000089   0.000187  -0.000058  -0.000950  -0.000235  -0.000408
     4  C   -0.005133  -0.008182  -0.000441  -0.008834  -0.005957  -0.000989
     5  H    0.000067  -0.000023   0.000036   0.000092   0.000032   0.000022
     6  C    0.002219   0.004612   0.000492   0.001661   0.000267   0.000035
     7  H    0.012658  -0.004986   0.000526   0.000932   0.001399   0.000087
     8  H   -0.004986   0.025418  -0.000934  -0.000369  -0.000773  -0.000082
     9  H    0.000526  -0.000934   0.000817   0.000046   0.000047   0.000007
    10  C    0.000932  -0.000369   0.000046  -0.012347   0.003670   0.001064
    11  H    0.001399  -0.000773   0.000047   0.003670   0.011140   0.000996
    12  H    0.000087  -0.000082   0.000007   0.001064   0.000996   0.001414
    13  H   -0.000783   0.001665  -0.000048   0.002490  -0.004775  -0.001636
    14  O    0.000189   0.000036   0.000147  -0.000252   0.000173   0.000192
    15  O   -0.000186   0.000069  -0.000132  -0.000871  -0.000172  -0.000226
              13         14         15
     1  C   -0.001412   0.019340  -0.009342
     2  H    0.000172  -0.004094   0.002589
     3  H    0.000695  -0.004475   0.002877
     4  C   -0.006421  -0.005606   0.012364
     5  H   -0.000011   0.008791  -0.003036
     6  C    0.000318   0.000182  -0.000579
     7  H   -0.000783   0.000189  -0.000186
     8  H    0.001665   0.000036   0.000069
     9  H   -0.000048   0.000147  -0.000132
    10  C    0.002490  -0.000252  -0.000871
    11  H   -0.004775   0.000173  -0.000172
    12  H   -0.001636   0.000192  -0.000226
    13  H    0.026613   0.000036   0.000073
    14  O    0.000036   0.097994  -0.136723
    15  O    0.000073  -0.136723   0.881994
 Mulliken charges and spin densities:
               1          2
     1  C    0.031678  -0.017520
     2  H    0.040259   0.002540
     3  H    0.049109   0.002817
     4  C    0.216649   0.269037
     5  H    0.210103  -0.006483
     6  C   -0.278905  -0.011953
     7  H    0.101315   0.007350
     8  H    0.096728   0.016192
     9  H    0.108958   0.000515
    10  C   -0.276589  -0.011540
    11  H    0.099024   0.006590
    12  H    0.116834   0.000851
    13  H    0.094751   0.016976
    14  O   -0.271632  -0.024071
    15  O   -0.338282   0.748698
 Sum of Mulliken charges =  -0.00000   1.00000
 Mulliken charges and spin densities with hydrogens summed into heavy atoms:
               1          2
     1  C    0.121047  -0.012163
     4  C    0.216649   0.269037
     6  C    0.028097   0.012104
    10  C    0.034020   0.012877
    14  O   -0.271632  -0.024071
    15  O   -0.128179   0.742215
 APT charges:
               1
     1  C   -0.533705
     2  H    0.264544
     3  H    0.278355
     4  C    0.239629
     5  H    0.501465
     6  C   -1.040279
     7  H    0.357663
     8  H    0.428147
     9  H    0.288818
    10  C   -1.043003
    11  H    0.360657
    12  H    0.293790
    13  H    0.426236
    14  O   -0.088363
    15  O   -0.733956
 Sum of APT charges =  -0.00000
 APT charges with hydrogens summed into heavy atoms:
               1
     1  C    0.009195
     4  C    0.239629
     6  C    0.034349
    10  C    0.037681
    14  O   -0.088363
    15  O   -0.232490
 Electronic spatial extent (au):  <R**2>=            686.4484
 Charge=             -0.0000 electrons
 Dipole moment (field-independent basis, Debye):
    X=             -3.3177    Y=              1.1188    Z=              0.2352  Tot=              3.5092
 Quadrupole moment (field-independent basis, Debye-Ang):
   XX=            -39.4973   YY=            -35.2535   ZZ=            -36.7814
   XY=              3.3799   XZ=             -1.0913   YZ=             -1.2467
 Traceless Quadrupole moment (field-independent basis, Debye-Ang):
   XX=             -2.3199   YY=              1.9239   ZZ=              0.3960
   XY=              3.3799   XZ=             -1.0913   YZ=             -1.2467
 Octapole moment (field-independent basis, Debye-Ang**2):
  XXX=              2.8021  YYY=              0.3926  ZZZ=             -4.2838  XYY=              4.7058
  XXY=              9.6063  XXZ=             -6.6142  XZZ=              4.9737  YZZ=              0.9615
  YYZ=             -0.9482  XYZ=             -3.4492
 Hexadecapole moment (field-independent basis, Debye-Ang**3):
 XXXX=           -552.2639 YYYY=           -218.1511 ZZZZ=           -105.7519 XXXY=             27.5079
 XXXZ=            -26.5261 YYYX=              2.7589 YYYZ=             -0.9491 ZZZX=             -3.6379
 ZZZY=             -1.5722 XXYY=           -124.0706 XXZZ=           -101.9096 YYZZ=            -54.8630
 XXYZ=             -9.5067 YYXZ=             -2.6728 ZZXY=              2.8216
 N-N= 2.545399674707D+02 E-N=-1.230374541587D+03  KE= 3.068801140512D+02
  Exact polarizability:   0.000   0.000   0.000   0.000   0.000   0.000
 Approx polarizability: 128.968  -0.224  73.708  -6.095  -1.935  73.394
                          Isotropic Fermi Contact Couplings
        Atom                 a.u.       MegaHertz       Gauss      10(-4) cm-1
     1  C(13)             -0.00886      -9.96251      -3.55487      -3.32313
     2  H(1)               0.00131       5.87591       2.09667       1.95999
     3  H(1)               0.00117       5.23511       1.86802       1.74625
     4  C(13)             -0.00028      -0.31194      -0.11131      -0.10405
     5  H(1)              -0.01098     -49.09158     -17.51710     -16.37519
     6  C(13)             -0.00787      -8.84337      -3.15554      -2.94983
     7  H(1)               0.00394      17.59137       6.27704       5.86785
     8  H(1)               0.00865      38.67321      13.79956      12.90000
     9  H(1)               0.00065       2.89494       1.03299       0.96565
    10  C(13)             -0.00774      -8.70240      -3.10523      -2.90281
    11  H(1)               0.00370      16.53339       5.89952       5.51495
    12  H(1)               0.00079       3.54723       1.26574       1.18323
    13  H(1)               0.00897      40.10998      14.31224      13.37925
    14  O(17)              0.52151    -316.13447    -112.80464    -105.45111
    15  O(17)              0.08702     -52.75379     -18.82386     -17.59677
 --------------------------------------------------------
       Center         ----  Spin Dipole Couplings  ----
                      3XX-RR        3YY-RR        3ZZ-RR
 --------------------------------------------------------
     1   Atom       -0.003280     -0.006159      0.009439
     2   Atom        0.003829     -0.005519      0.001689
     3   Atom        0.003985     -0.005350      0.001364
     4   Atom       -0.012300     -0.188504      0.200804
     5   Atom       -0.019346      0.033710     -0.014365
     6   Atom        0.001954      0.000861     -0.002815
     7   Atom        0.001070     -0.000146     -0.000924
     8   Atom        0.002504      0.000642     -0.003146
     9   Atom       -0.000932      0.004667     -0.003734
    10   Atom        0.002557      0.000346     -0.002903
    11   Atom        0.001357     -0.000669     -0.000688
    12   Atom       -0.000764      0.004524     -0.003760
    13   Atom        0.002604      0.000435     -0.003039
    14   Atom       -0.129505      0.061592      0.067914
    15   Atom        2.951481     -1.536475     -1.415006
 --------------------------------------------------------
                        XY            XZ            YZ
 --------------------------------------------------------
     1   Atom       -0.000235     -0.004115     -0.000277
     2   Atom       -0.001694     -0.003598      0.004530
     3   Atom        0.001358     -0.003636     -0.004612
     4   Atom        0.003654     -0.276381     -0.004670
     5   Atom        0.033582     -0.017514     -0.112106
     6   Atom       -0.005571     -0.002335     -0.000649
     7   Atom       -0.002976      0.002999     -0.003115
     8   Atom       -0.003891     -0.001232      0.000209
     9   Atom       -0.002274     -0.000454     -0.000205
    10   Atom        0.005821     -0.002214      0.000740
    11   Atom        0.002805      0.003227      0.003007
    12   Atom        0.002399     -0.000298      0.000641
    13   Atom        0.003885     -0.001204     -0.000058
    14   Atom        0.041306     -0.068132      0.003099
    15   Atom       -0.296031      0.800437     -0.063353
 --------------------------------------------------------


 ---------------------------------------------------------------------------------
              Anisotropic Spin Dipole Couplings in Principal Axis System
 ---------------------------------------------------------------------------------

       Atom             a.u.   MegaHertz   Gauss  10(-4) cm-1        Axes

              Baa    -0.0062    -0.834    -0.298    -0.278  0.1634  0.9847  0.0604
     1 C(13)  Bbb    -0.0044    -0.596    -0.213    -0.199  0.9451 -0.1738  0.2767
              Bcc     0.0107     1.430     0.510     0.477 -0.2830 -0.0118  0.9591
 
              Baa    -0.0077    -4.110    -1.467    -1.371 -0.0036  0.9002 -0.4355
     2 H(1)   Bbb    -0.0001    -0.067    -0.024    -0.022  0.7091  0.3094  0.6336
              Bcc     0.0078     4.177     1.490     1.393  0.7051 -0.3065 -0.6394
 
              Baa    -0.0077    -4.117    -1.469    -1.373  0.0421  0.8839  0.4658
     3 H(1)   Bbb     0.0000     0.001     0.000     0.000  0.6928 -0.3618  0.6238
              Bcc     0.0077     4.116     1.469     1.373  0.7199  0.2964 -0.6276
 
              Baa    -0.2020   -27.102    -9.671    -9.040  0.8244 -0.0276  0.5654
     4 C(13)  Bbb    -0.1886   -25.302    -9.028    -8.440  0.0170  0.9996  0.0240
              Bcc     0.3905    52.404    18.699    17.480 -0.5658 -0.0102  0.8245
 
              Baa    -0.1057   -56.386   -20.120   -18.808 -0.0928  0.6375  0.7648
     5 H(1)   Bbb    -0.0277   -14.773    -5.271    -4.928  0.9672 -0.1248  0.2214
              Bcc     0.1334    71.158    25.391    23.736  0.2366  0.7603 -0.6050
 
              Baa    -0.0057    -0.766    -0.273    -0.256  0.5833  0.5533  0.5946
     6 C(13)  Bbb    -0.0015    -0.197    -0.070    -0.066 -0.3115 -0.5237  0.7929
              Bcc     0.0072     0.963     0.344     0.321  0.7501 -0.6477 -0.1332
 
              Baa    -0.0037    -1.981    -0.707    -0.661 -0.1392  0.5829  0.8005
     7 H(1)   Bbb    -0.0024    -1.287    -0.459    -0.429  0.7549  0.5857 -0.2952
              Bcc     0.0061     3.269     1.166     1.090  0.6410 -0.5632  0.5216
 
              Baa    -0.0036    -1.914    -0.683    -0.638  0.3658  0.2929  0.8834
     8 H(1)   Bbb    -0.0021    -1.133    -0.404    -0.378  0.5005  0.7384 -0.4521
              Bcc     0.0057     3.047     1.087     1.016  0.7847 -0.6075 -0.1235
 
              Baa    -0.0039    -2.055    -0.733    -0.685  0.2143  0.0807  0.9734
     9 H(1)   Bbb    -0.0016    -0.866    -0.309    -0.289  0.9178  0.3243 -0.2290
              Bcc     0.0055     2.921     1.042     0.974 -0.3342  0.9425 -0.0045
 
              Baa    -0.0059    -0.786    -0.280    -0.262 -0.5633  0.5967 -0.5715
    10 C(13)  Bbb    -0.0017    -0.224    -0.080    -0.075 -0.2806  0.5124  0.8116
              Bcc     0.0075     1.010     0.360     0.337  0.7772  0.6175 -0.1212
 
              Baa    -0.0037    -1.990    -0.710    -0.664 -0.1442 -0.6230  0.7688
    11 H(1)   Bbb    -0.0024    -1.285    -0.459    -0.429  0.7317 -0.5902 -0.3409
              Bcc     0.0061     3.275     1.169     1.093  0.6661  0.5134  0.5410
 
              Baa    -0.0039    -2.082    -0.743    -0.695  0.1904 -0.1282  0.9733
    12 H(1)   Bbb    -0.0016    -0.839    -0.300    -0.280  0.9149 -0.3364 -0.2232
              Bcc     0.0055     2.922     1.043     0.975  0.3560  0.9330  0.0532
 
              Baa    -0.0036    -1.911    -0.682    -0.638  0.3967 -0.3716  0.8394
    13 H(1)   Bbb    -0.0021    -1.113    -0.397    -0.371 -0.4554  0.7143  0.5314
              Bcc     0.0057     3.024     1.079     1.009  0.7970  0.5931 -0.1141
 
              Baa    -0.1582    11.444     4.084     3.817  0.9410 -0.1809  0.2861
    14 O(17)  Bbb     0.0655    -4.736    -1.690    -1.580  0.0560  0.9167  0.3956
              Bcc     0.0927    -6.708    -2.394    -2.238 -0.3338 -0.3562  0.8728
 
              Baa    -1.5673   113.406    40.466    37.828 -0.0823  0.6896  0.7195
    15 O(17)  Bbb    -1.5460   111.869    39.918    37.315  0.1671  0.7212 -0.6722
              Bcc     3.1133  -225.274   -80.383   -75.143  0.9825 -0.0649  0.1746
 

 ---------------------------------------------------------------------------------

 Calling FoFJK, ICntrl=    100147 FMM=F ISym2X=0 I1Cent= 0 IOpClX= 1 NMat=1 NMatS=1 NMatT=0.
 ***** Axes restored to original set *****
 -------------------------------------------------------------------
 Center     Atomic                   Forces (Hartrees/Bohr)
 Number     Number              X              Y              Z
 -------------------------------------------------------------------
      1        6           0.042975277   -0.003080537    0.121692538
      2        1           0.001293587    0.000740239    0.004900899
      3        1           0.001426747   -0.000972195    0.005115303
      4        6          -0.055797354    0.002040908   -0.053089036
      5        1          -0.001788921    0.001697726   -0.002343243
      6        6          -0.007393030    0.004415990   -0.003614680
      7        1           0.000620074   -0.000350519    0.000900121
      8        1           0.001732746   -0.001564811    0.000199761
      9        1           0.000504201   -0.001413194    0.000524386
     10        6          -0.007902740   -0.004165300   -0.003276094
     11        1           0.000698407    0.000255279    0.000814114
     12        1           0.000594371    0.001461203    0.000594609
     13        1           0.001718068    0.001544523    0.000167621
     14        8          -0.025891823    0.002907578   -0.077208535
     15        8           0.047210389   -0.003516890    0.004622235
 -------------------------------------------------------------------
 Cartesian Forces:  Max     0.121692538 RMS     0.026569583
 FormGI is forming the generalized inverse of G from B-inverse, IUseBI=4.

 GradGradGradGradGradGradGradGradGradGradGradGradGradGradGradGradGradGrad
 Berny optimization.
 Internal  Forces:  Max     0.086186759 RMS     0.015059200
 Search for a saddle point.
 Step number   1 out of a maximum of   78
 All quantities printed in internal units (Hartrees-Bohrs-Radians)
 Swapping is turned off.
 Second derivative matrix not updated -- analytic derivatives used.
 ITU=  0
     Eigenvalues ---   -0.02748  -0.00216   0.00102   0.00137   0.00147
     Eigenvalues ---    0.01609   0.02252   0.04198   0.04237   0.04416
     Eigenvalues ---    0.04539   0.05040   0.06325   0.06687   0.06928
     Eigenvalues ---    0.09086   0.11591   0.12010   0.12297   0.13066
     Eigenvalues ---    0.13476   0.13743   0.15180   0.15416   0.17547
     Eigenvalues ---    0.17617   0.31265   0.31705   0.31850   0.31975
     Eigenvalues ---    0.32130   0.32707   0.33455   0.33730   0.34327
     Eigenvalues ---    0.34559   0.40331   0.51602   0.54228
 Eigenvectors required to have negative eigenvalues:
                          R7        R15       D4        D1        A24
   1                    0.69316  -0.51589  -0.19575   0.18184  -0.13592
                          D17       D9        D8        D18       D7
   1                    0.12154  -0.12047  -0.11308   0.11264  -0.09844
 RFO step:  Lambda0=2.220968725D-02 Lambda=-3.22618786D-02.
 Linear search not attempted -- option 19 set.
 Maximum step size (   0.300) exceeded in Quadratic search.
    -- Step size scaled by   0.463
 Iteration  1 RMS(Cart)=  0.03965388 RMS(Int)=  0.00905937
 Iteration  2 RMS(Cart)=  0.01074824 RMS(Int)=  0.00124135
 Iteration  3 RMS(Cart)=  0.00007746 RMS(Int)=  0.00123900
 Iteration  4 RMS(Cart)=  0.00000060 RMS(Int)=  0.00123900
 Variable       Old X    -DE/DX   Delta X   Delta X   Delta X     New X
                                 (Linear)    (Quad)   (Total)
    R1        2.06586   0.00353   0.00000   0.00398   0.00398   2.06984
    R2        2.06586   0.00375   0.00000   0.00477   0.00477   2.07063
    R3        2.58003   0.08619   0.00000   0.06681   0.06850   2.64853
    R4        2.45772   0.06137   0.00000   0.05741   0.05691   2.51463
    R5        2.81195   0.00336   0.00000  -0.00789  -0.00789   2.80406
    R6        2.81157   0.00342   0.00000  -0.00768  -0.00768   2.80389
    R7        3.15093   0.01179   0.00000   0.26911   0.26817   3.41910
    R8        1.82506   0.00236   0.00000  -0.00032  -0.00032   1.82474
    R9        2.06611  -0.00105   0.00000  -0.00121  -0.00121   2.06490
   R10        2.07567  -0.00154   0.00000   0.00106   0.00106   2.07672
   R11        2.05774  -0.00070   0.00000  -0.00125  -0.00125   2.05649
   R12        2.06561  -0.00099   0.00000  -0.00118  -0.00118   2.06444
   R13        2.05728  -0.00073   0.00000  -0.00120  -0.00120   2.05608
   R14        2.07605  -0.00155   0.00000   0.00137   0.00137   2.07741
   R15        3.38299   0.04548   0.00000  -0.06647  -0.06647   3.31652
    A1        1.93243  -0.00680   0.00000  -0.02565  -0.02661   1.90583
    A2        2.04925   0.00821   0.00000  -0.01742  -0.02206   2.02719
    A3        2.01195   0.01240   0.00000  -0.01029  -0.01015   2.00180
    A4        2.04990   0.00889   0.00000  -0.00794  -0.00476   2.04513
    A5        2.00865   0.01328   0.00000  -0.00381  -0.00405   2.00460
    A6        2.09844   0.00015   0.00000   0.00245   0.00150   2.09994
    A7        2.09799  -0.00023   0.00000  -0.00120  -0.00216   2.09583
    A8        2.08398  -0.00034   0.00000   0.00405   0.00344   2.08742
    A9        1.94012  -0.00354   0.00000  -0.00662  -0.00678   1.93333
   A10        1.92282  -0.00306   0.00000  -0.01021  -0.00983   1.91299
   A11        1.94709   0.00028   0.00000   0.00599   0.00597   1.95305
   A12        1.93321  -0.00212   0.00000  -0.01304  -0.01304   1.92017
   A13        1.95167  -0.00160   0.00000   0.00214   0.00211   1.95378
   A14        1.85526   0.00124   0.00000  -0.00100  -0.00099   1.85428
   A15        1.89251   0.00093   0.00000   0.00521   0.00517   1.89768
   A16        1.88017   0.00151   0.00000   0.00068   0.00066   1.88083
   A17        1.94731   0.00030   0.00000   0.00738   0.00736   1.95467
   A18        1.94920  -0.00175   0.00000   0.00228   0.00224   1.95144
   A19        1.93282  -0.00205   0.00000  -0.01421  -0.01422   1.91861
   A20        1.89216   0.00095   0.00000   0.00549   0.00543   1.89759
   A21        1.85674   0.00122   0.00000  -0.00109  -0.00107   1.85566
   A22        1.88194   0.00157   0.00000   0.00011   0.00008   1.88202
   A23        1.84354  -0.00944   0.00000   0.00946   0.01305   1.85658
   A24        2.76925   0.01772   0.00000  -0.03975  -0.04199   2.72725
   A25        1.70479  -0.00431   0.00000  -0.01373  -0.01373   1.69106
    D1        0.33401  -0.00806   0.00000   0.07149   0.07090   0.40490
    D2       -2.72704  -0.00192   0.00000  -0.00536  -0.00576  -2.73280
    D3        2.70652   0.00226   0.00000  -0.00484  -0.00489   2.70163
    D4       -0.35452   0.00840   0.00000  -0.08169  -0.08155  -0.43607
    D5        1.14719   0.00789   0.00000  -0.10029  -0.10391   1.04328
    D6       -1.13526  -0.00821   0.00000  -0.04713  -0.05065  -1.18592
    D7        2.38488   0.00693   0.00000  -0.03669  -0.03668   2.34820
    D8       -1.83534   0.00727   0.00000  -0.04259  -0.04260  -1.87794
    D9        0.26203   0.00666   0.00000  -0.04920  -0.04921   0.21282
   D10       -0.83661   0.00084   0.00000   0.03930   0.03935  -0.79726
   D11        1.22635   0.00118   0.00000   0.03340   0.03343   1.25978
   D12       -2.95946   0.00058   0.00000   0.02679   0.02682  -2.93264
   D13        1.43198  -0.00785   0.00000   0.02084   0.02082   1.45280
   D14       -2.78824  -0.00751   0.00000   0.01494   0.01490  -2.77335
   D15       -0.69087  -0.00811   0.00000   0.00833   0.00828  -0.68259
   D16       -2.41474  -0.00690   0.00000   0.03479   0.03459  -2.38015
   D17       -0.29394  -0.00670   0.00000   0.04871   0.04853  -0.24541
   D18        1.80375  -0.00728   0.00000   0.04070   0.04053   1.84428
   D19        0.80673  -0.00083   0.00000  -0.04135  -0.04143   0.76531
   D20        2.92753  -0.00064   0.00000  -0.02744  -0.02749   2.90004
   D21       -1.25796  -0.00121   0.00000  -0.03545  -0.03549  -1.29346
   D22       -1.46958   0.00802   0.00000  -0.02457  -0.02435  -1.49393
   D23        0.65122   0.00821   0.00000  -0.01066  -0.01041   0.64080
   D24        2.74891   0.00764   0.00000  -0.01867  -0.01842   2.73049
   D25        1.97475   0.00298   0.00000  -0.20475  -0.20425   1.77051
   D26       -1.95800  -0.00345   0.00000  -0.21431  -0.21421  -2.17220
   D27       -2.26417  -0.00084   0.00000  -0.03427  -0.03103  -2.29520
   D28       -2.27637  -0.00033   0.00000   0.14020   0.13696  -2.13941
         Item               Value     Threshold  Converged?
 Maximum Force            0.086187     0.000450     NO 
 RMS     Force            0.015059     0.000300     NO 
 Maximum Displacement     0.190175     0.001800     NO 
 RMS     Displacement     0.047595     0.001200     NO 
 Predicted change in Energy=-3.098773D-03
 GradGradGradGradGradGradGradGradGradGradGradGradGradGradGradGradGradGrad

                          Input orientation:                          
 ---------------------------------------------------------------------
 Center     Atomic      Atomic             Coordinates (Angstroms)
 Number     Number       Type             X           Y           Z
 ---------------------------------------------------------------------
      1          6           0        0.385459   -0.053438    0.860879
      2          1           0        0.624679    0.833972    1.456687
      3          1           0        0.580033   -0.951406    1.457889
      4          6           0       -0.817864   -0.009895    0.143640
      5          1           0        2.825031    0.720394   -0.771713
      6          6           0       -1.428227    1.293670   -0.216869
      7          1           0       -1.762114    1.313613   -1.257117
      8          1           0       -2.322357    1.472837    0.396428
      9          1           0       -0.742357    2.122745   -0.054071
     10          6           0       -1.491763   -1.270072   -0.255533
     11          1           0       -1.854382   -1.231683   -1.285332
     12          1           0       -0.835251   -2.131059   -0.148290
     13          1           0       -2.374901   -1.439293    0.376872
     14          8           0        0.919686   -0.065415   -0.357800
     15          8           0        2.658945    0.012463   -0.136373
 ---------------------------------------------------------------------
                    Distance matrix (angstroms):
                    1          2          3          4          5
     1  C    0.000000
     2  H    1.095313   0.000000
     3  H    1.095731   1.785937   0.000000
     4  C    1.401540   2.125356   2.137244   0.000000
     5  H    3.035734   3.133723   3.578555   3.826470   0.000000
     6  C    2.503138   2.688222   3.446490   1.483844   4.327436
     7  H    3.311616   3.645760   4.241134   2.146020   4.650744
     8  H    3.142848   3.196454   3.927788   2.127416   5.331635
     9  H    2.616271   2.410832   3.672212   2.143116   3.899725
    10  C    2.500107   3.440643   2.707342   1.483753   4.781537
    11  H    3.318338   4.234541   3.678341   2.146880   5.096205
    12  H    2.612482   3.674065   2.444263   2.141228   4.681570
    13  H    3.126410   3.915509   3.184064   2.126485   5.746545
    14  O    1.330685   2.046532   2.048676   1.809310   2.102179
    15  O    2.483464   2.711265   2.791521   3.488138   0.965613
                    6          7          8          9         10
     6  C    0.000000
     7  H    1.092700   0.000000
     8  H    1.098955   1.753122   0.000000
     9  H    1.088249   1.772545   1.766842   0.000000
    10  C    2.564821   2.784185   2.939131   3.480431   0.000000
    11  H    2.775000   2.547124   3.218966   3.742297   1.092452
    12  H    3.476362   3.735550   3.936530   4.255861   1.088029
    13  H    2.952593   3.259435   2.912669   3.941957   1.099320
    14  O    2.716554   3.146829   3.666868   2.764540   2.697544
    15  O    4.284034   4.742870   5.218231   4.003614   4.345971
                   11         12         13         14         15
    11  H    0.000000
    12  H    1.772109   0.000000
    13  H    1.754128   1.767726   0.000000
    14  O    3.148959   2.718563   3.644391   0.000000
    15  O    4.820593   4.099296   5.264087   1.755026   0.000000
 Stoichiometry    C4H9O2(2)
 Framework group  C1[X(C4H9O2)]
 Deg. of freedom    39
 Full point group                 C1      NOp   1
 Largest Abelian subgroup         C1      NOp   1
 Largest concise Abelian subgroup C1      NOp   1
                         Standard orientation:                         
 ---------------------------------------------------------------------
 Center     Atomic      Atomic             Coordinates (Angstroms)
 Number     Number       Type             X           Y           Z
 ---------------------------------------------------------------------
      1          6           0        0.349706   -0.079978    0.863716
      2          1           0        0.625483    0.789173    1.470538
      3          1           0        0.534523   -0.994164    1.438812
      4          6           0       -0.868200    0.008330    0.175806
      5          1           0        2.770499    0.663226   -0.810527
      6          6           0       -1.452603    1.333874   -0.145443
      7          1           0       -1.809609    1.382743   -1.177020
      8          1           0       -2.327489    1.523732    0.491919
      9          1           0       -0.741882    2.141818    0.016999
     10          6           0       -1.583570   -1.226159   -0.231386
     11          1           0       -1.968573   -1.158324   -1.251496
     12          1           0       -0.947355   -2.105560   -0.155947
     13          1           0       -2.456081   -1.385163    0.418189
     14          8           0        0.855374   -0.081667   -0.367145
     15          8           0        2.600687   -0.052568   -0.185058
 ---------------------------------------------------------------------
 Rotational constants (GHZ):           6.3527777           2.1480054           1.8556715
 Standard basis: CC-pVTZ+d (5D, 7F)
 There are   345 symmetry adapted cartesian basis functions of A   symmetry.
 There are   306 symmetry adapted basis functions of A   symmetry.
   306 basis functions,   465 primitive gaussians,   345 cartesian basis functions
    25 alpha electrons       24 beta electrons
       nuclear repulsion energy       251.1282864100 Hartrees.
 NAtoms=   15 NActive=   15 NUniq=   15 SFac= 1.00D+00 NAtFMM=   60 NAOKFM=F Big=F
 Integral buffers will be    131072 words long.
 Raffenetti 2 integral format.
 Two-electron integral symmetry is turned on.
 One-electron integrals computed using PRISM.
 NBasis=   306 RedAO= T EigKep=  3.26D-04  NBF=   306
 NBsUse=   306 1.00D-06 EigRej= -1.00D+00 NBFU=   306
 Initial guess from the checkpoint file:  "QOOHisob-OH-Elim-TS5-b3lyp-c-N1.chk"
 B after Tr=    -0.000000   -0.000000   -0.000000
         Rot=    0.999920   -0.009478    0.000168    0.008420 Ang=  -1.45 deg.
 Initial guess <Sx>= 0.0000 <Sy>= 0.0000 <Sz>= 0.5000 <S**2>= 0.7660 S= 0.5080
 ExpMin= 1.03D-01 ExpMax= 1.53D+04 ExpMxC= 5.22D+02 IAcc=3 IRadAn=         5 AccDes= 0.00D+00
 Harris functional with IExCor=  402 and IRadAn=       5 diagonalized for initial guess.
 HarFok:  IExCor=  402 AccDes= 0.00D+00 IRadAn=         5 IDoV= 1 UseB2=F ITyADJ=14
 ICtDFT=  3500011 ScaDFX=  1.000000  1.000000  1.000000  1.000000
 FoFCou: FMM=F IPFlag=           0 FMFlag=      100000 FMFlg1=           0
         NFxFlg=           0 DoJE=T BraDBF=F KetDBF=T FulRan=T
         wScrn=  0.000000 ICntrl=       500 IOpCl=  0 I1Cent=   200000004 NGrid=           0
         NMat0=    1 NMatS0=      1 NMatT0=    0 NMatD0=    1 NMtDS0=    0 NMtDT0=    0
 Petite list used in FoFCou.
 Requested convergence on RMS density matrix=1.00D-08 within 128 cycles.
 Requested convergence on MAX density matrix=1.00D-06.
 Requested convergence on             energy=1.00D-06.
 No special actions if energy rises.
 Integral accuracy reduced to 1.0D-05 until final iterations.
 Initial convergence to 1.0D-05 achieved.  Increase integral accuracy.
 SCF Done:  E(UB3LYP) =  -308.239969111     A.U. after   18 cycles
            NFock= 18  Conv=0.50D-08     -V/T= 2.0051
 <Sx>= 0.0000 <Sy>= 0.0000 <Sz>= 0.5000 <S**2>= 0.7849 S= 0.5173
 <L.S>= 0.000000000000E+00
 Annihilation of the first spin contaminant:
 S**2 before annihilation     0.7849,   after     0.7502
 Calling FoFJK, ICntrl=      2127 FMM=F ISym2X=0 I1Cent= 0 IOpClX= 1 NMat=1 NMatS=1 NMatT=0.
 ***** Axes restored to original set *****
 -------------------------------------------------------------------
 Center     Atomic                   Forces (Hartrees/Bohr)
 Number     Number              X              Y              Z
 -------------------------------------------------------------------
      1        6           0.025885479   -0.000822549    0.074260407
      2        1           0.000700207    0.000842583    0.001620072
      3        1           0.000028448   -0.001085589    0.001529227
      4        6          -0.036418256    0.000369084   -0.030039418
      5        1          -0.001751350    0.000919894   -0.001673691
      6        6          -0.004943496    0.003313283   -0.001805129
      7        1           0.000453274   -0.000320523    0.000413098
      8        1           0.001004189   -0.000606930    0.000026981
      9        1           0.000367291   -0.000771044    0.000369476
     10        6          -0.005656772   -0.002940507   -0.001741617
     11        1           0.000480516    0.000255047    0.000355926
     12        1           0.000425108    0.000793716    0.000396378
     13        1           0.000945870    0.000494682   -0.000048085
     14        8          -0.009049833    0.000350617   -0.047979326
     15        8           0.027529325   -0.000791764    0.004315703
 -------------------------------------------------------------------
 Cartesian Forces:  Max     0.074260407 RMS     0.016108627

 GradGradGradGradGradGradGradGradGradGradGradGradGradGradGradGradGradGrad
 Berny optimization.
 FormGI is forming the generalized inverse of G from B-inverse, IUseBI=4.
 Internal  Forces:  Max     0.051346816 RMS     0.009017778
 Search for a saddle point.
 Step number   2 out of a maximum of   78
 All quantities printed in internal units (Hartrees-Bohrs-Radians)
 Swapping is turned off.
 Update second derivatives using D2CorX and points    1    2
 ITU=  0  0
     Eigenvalues ---   -0.04432   0.00102   0.00137   0.00147   0.00240
     Eigenvalues ---    0.01740   0.02252   0.04197   0.04255   0.04416
     Eigenvalues ---    0.04540   0.04982   0.06374   0.06667   0.06894
     Eigenvalues ---    0.09055   0.11585   0.12009   0.12297   0.13055
     Eigenvalues ---    0.13457   0.13781   0.15166   0.15415   0.17507
     Eigenvalues ---    0.17587   0.31262   0.31700   0.31849   0.31949
     Eigenvalues ---    0.32127   0.32702   0.33452   0.33722   0.34327
     Eigenvalues ---    0.34555   0.40201   0.51602   0.53678
 Eigenvectors required to have negative eigenvalues:
                          R7        R15       D4        D1        A24
   1                    0.69841  -0.53063  -0.17406   0.15808  -0.13091
                          D5        D9        D17       D8        D18
   1                   -0.11880  -0.11026   0.11005  -0.10539   0.10398
 RFO step:  Lambda0=5.519783506D-03 Lambda=-1.27992597D-02.
 Linear search not attempted -- option 19 set.
 Maximum step size (   0.300) exceeded in Quadratic search.
    -- Step size scaled by   0.851
 Iteration  1 RMS(Cart)=  0.03126160 RMS(Int)=  0.00718871
 Iteration  2 RMS(Cart)=  0.01096760 RMS(Int)=  0.00035159
 Iteration  3 RMS(Cart)=  0.00004341 RMS(Int)=  0.00034884
 Iteration  4 RMS(Cart)=  0.00000006 RMS(Int)=  0.00034884
 Variable       Old X    -DE/DX   Delta X   Delta X   Delta X     New X
                                 (Linear)    (Quad)   (Total)
    R1        2.06984   0.00172   0.00000   0.00049   0.00049   2.07033
    R2        2.07063   0.00173   0.00000   0.00104   0.00104   2.07167
    R3        2.64853   0.05135   0.00000   0.08242   0.08255   2.73108
    R4        2.51463   0.03667   0.00000   0.07473   0.07431   2.58894
    R5        2.80406   0.00294   0.00000  -0.00164  -0.00164   2.80241
    R6        2.80389   0.00319   0.00000  -0.00168  -0.00168   2.80220
    R7        3.41910   0.01028   0.00000   0.26541   0.26562   3.68472
    R8        1.82474   0.00147   0.00000   0.00007   0.00007   1.82481
    R9        2.06490  -0.00054   0.00000  -0.00118  -0.00118   2.06372
   R10        2.07672  -0.00090   0.00000   0.00013   0.00013   2.07686
   R11        2.05649  -0.00030   0.00000  -0.00081  -0.00081   2.05568
   R12        2.06444  -0.00049   0.00000  -0.00115  -0.00115   2.06328
   R13        2.05608  -0.00033   0.00000  -0.00065  -0.00065   2.05543
   R14        2.07741  -0.00086   0.00000   0.00027   0.00027   2.07768
   R15        3.31652   0.02589   0.00000  -0.03824  -0.03824   3.27828
    A1        1.90583  -0.00278   0.00000  -0.00650  -0.00724   1.89859
    A2        2.02719   0.00629   0.00000  -0.01716  -0.01837   2.00882
    A3        2.00180   0.00720   0.00000  -0.01512  -0.01499   1.98682
    A4        2.04513   0.00378   0.00000  -0.01696  -0.01624   2.02889
    A5        2.00460   0.00790   0.00000  -0.01258  -0.01241   1.99219
    A6        2.09994  -0.00016   0.00000  -0.00096  -0.00161   2.09832
    A7        2.09583   0.00046   0.00000   0.00181   0.00105   2.09687
    A8        2.08742  -0.00031   0.00000  -0.00063  -0.00107   2.08634
    A9        1.93333  -0.00235   0.00000  -0.00751  -0.00758   1.92575
   A10        1.91299  -0.00188   0.00000  -0.00498  -0.00483   1.90816
   A11        1.95305  -0.00011   0.00000   0.00242   0.00241   1.95547
   A12        1.92017  -0.00071   0.00000  -0.00865  -0.00866   1.91151
   A13        1.95378  -0.00106   0.00000  -0.00068  -0.00069   1.95309
   A14        1.85428   0.00067   0.00000   0.00147   0.00147   1.85575
   A15        1.89768   0.00066   0.00000   0.00512   0.00511   1.90279
   A16        1.88083   0.00068   0.00000   0.00046   0.00044   1.88127
   A17        1.95467  -0.00010   0.00000   0.00198   0.00198   1.95665
   A18        1.95144  -0.00117   0.00000  -0.00064  -0.00065   1.95079
   A19        1.91861  -0.00053   0.00000  -0.00745  -0.00745   1.91115
   A20        1.89759   0.00067   0.00000   0.00522   0.00521   1.90280
   A21        1.85566   0.00059   0.00000   0.00126   0.00126   1.85692
   A22        1.88202   0.00067   0.00000  -0.00029  -0.00031   1.88171
   A23        1.85658  -0.00576   0.00000   0.01457   0.01498   1.87156
   A24        2.72725   0.01024   0.00000  -0.03328  -0.03325   2.69400
   A25        1.69106  -0.00383   0.00000  -0.05234  -0.05234   1.63872
    D1        0.40490  -0.00529   0.00000   0.05502   0.05462   0.45953
    D2       -2.73280  -0.00139   0.00000  -0.01085  -0.01117  -2.74397
    D3        2.70163   0.00157   0.00000   0.00661   0.00681   2.70844
    D4       -0.43607   0.00548   0.00000  -0.05925  -0.05898  -0.49506
    D5        1.04328   0.00568   0.00000  -0.05170  -0.05238   0.99090
    D6       -1.18592  -0.00450   0.00000  -0.01622  -0.01732  -1.20324
    D7        2.34820   0.00433   0.00000  -0.03338  -0.03325   2.31496
    D8       -1.87794   0.00464   0.00000  -0.03564  -0.03551  -1.91346
    D9        0.21282   0.00433   0.00000  -0.04132  -0.04118   0.17163
   D10       -0.79726   0.00044   0.00000   0.03217   0.03215  -0.76511
   D11        1.25978   0.00075   0.00000   0.02991   0.02988   1.28967
   D12       -2.93264   0.00044   0.00000   0.02423   0.02421  -2.90843
   D13        1.45280  -0.00509   0.00000   0.01637   0.01626   1.46906
   D14       -2.77335  -0.00478   0.00000   0.01411   0.01400  -2.75935
   D15       -0.68259  -0.00509   0.00000   0.00843   0.00833  -0.67426
   D16       -2.38015  -0.00434   0.00000   0.03242   0.03232  -2.34782
   D17       -0.24541  -0.00439   0.00000   0.04020   0.04010  -0.20532
   D18        1.84428  -0.00467   0.00000   0.03445   0.03435   1.87863
   D19        0.76531  -0.00046   0.00000  -0.03296  -0.03302   0.73229
   D20        2.90004  -0.00052   0.00000  -0.02519  -0.02524   2.87480
   D21       -1.29346  -0.00079   0.00000  -0.03094  -0.03098  -1.32444
   D22       -1.49393   0.00524   0.00000  -0.01615  -0.01600  -1.50993
   D23        0.64080   0.00518   0.00000  -0.00838  -0.00823   0.63258
   D24        2.73049   0.00491   0.00000  -0.01412  -0.01397   2.71653
   D25        1.77051   0.00180   0.00000  -0.06301  -0.06279   1.70772
   D26       -2.17220  -0.00230   0.00000  -0.07471  -0.07482  -2.24703
   D27       -2.29520  -0.00132   0.00000  -0.00915  -0.00821  -2.30341
   D28       -2.13941   0.00064   0.00000   0.03940   0.03846  -2.10095
         Item               Value     Threshold  Converged?
 Maximum Force            0.051347     0.000450     NO 
 RMS     Force            0.009018     0.000300     NO 
 Maximum Displacement     0.190560     0.001800     NO 
 RMS     Displacement     0.039646     0.001200     NO 
 Predicted change in Energy=-3.614800D-03
 GradGradGradGradGradGradGradGradGradGradGradGradGradGradGradGradGradGrad

                          Input orientation:                          
 ---------------------------------------------------------------------
 Center     Atomic      Atomic             Coordinates (Angstroms)
 Number     Number       Type             X           Y           Z
 ---------------------------------------------------------------------
      1          6           0        0.410530   -0.063081    0.851785
      2          1           0        0.646632    0.824470    1.449099
      3          1           0        0.595309   -0.956745    1.459280
      4          6           0       -0.854715   -0.014276    0.155045
      5          1           0        2.848091    0.740683   -0.762585
      6          6           0       -1.449228    1.290825   -0.222416
      7          1           0       -1.789842    1.301245   -1.259961
      8          1           0       -2.337157    1.482561    0.396194
      9          1           0       -0.753659    2.113076   -0.069321
     10          6           0       -1.527408   -1.270262   -0.255882
     11          1           0       -1.896653   -1.221836   -1.282251
     12          1           0       -0.870346   -2.131252   -0.155755
     13          1           0       -2.406145   -1.441733    0.382268
     14          8           0        1.020526   -0.083307   -0.374761
     15          8           0        2.728682    0.047066   -0.101439
 ---------------------------------------------------------------------
                    Distance matrix (angstroms):
                    1          2          3          4          5
     1  C    0.000000
     2  H    1.095571   0.000000
     3  H    1.096280   1.781983   0.000000
     4  C    1.445224   2.152234   2.166067   0.000000
     5  H    3.032149   3.121696   3.590679   3.888802   0.000000
     6  C    2.538833   2.721044   3.472723   1.482974   4.365935
     7  H    3.341032   3.674606   4.264005   2.146463   4.698089
     8  H    3.185335   3.231825   3.959763   2.120450   5.364695
     9  H    2.634281   2.434527   3.685124   2.141537   3.916208
    10  C    2.537679   3.467177   2.746999   1.482862   4.842070
    11  H    3.349614   4.256282   3.714316   2.147011   5.160827
    12  H    2.633080   3.689589   2.477085   2.139726   4.737408
    13  H    3.170928   3.948829   3.225507   2.120425   5.803502
    14  O    1.370006   2.071308   2.075430   1.949868   2.041902
[...]
 ! D22   D(14,4,10,11)         -85.7719         -DE/DX =    0.0                 !
 ! D23   D(14,4,10,12)          36.4056         -DE/DX =    0.0                 !
 ! D24   D(14,4,10,13)         156.1005         -DE/DX =    0.0                 !
 ! D25   D(6,4,14,15)          110.3701         -DE/DX =    0.0                 !
 ! D26   D(10,4,14,15)        -114.974          -DE/DX =    0.0                 !
 ! D27   D(1,14,15,5)         -137.7009         -DE/DX =    0.0                 !
 ! D28   D(4,14,15,5)         -136.0989         -DE/DX =    0.0                 !
 --------------------------------------------------------------------------------
 GradGradGradGradGradGradGradGradGradGradGradGradGradGradGradGradGradGrad


 ----------------------------------------------------------------------

 Electric dipole moment (input orientation):
 (Debye = 10**-18 statcoulomb cm , SI units = C m)
                  (au)            (Debye)         (10**-30 SI)
   Tot        0.142631D+01      0.362532D+01      0.120928D+02
   x         -0.137197D+01     -0.348721D+01     -0.116321D+02
   y          0.380970D+00      0.968330D+00      0.323000D+01
   z          0.831476D-01      0.211340D+00      0.704955D+00

 Dipole polarizability, Alpha (input orientation).
 (esu units = cm**3 , SI units = C**2 m**2 J**-1)
 Alpha(0;0):
               (au)            (10**-24 esu)      (10**-40 SI)
   iso        0.731577D+02      0.108408D+02      0.120621D+02
   aniso      0.572488D+02      0.848340D+01      0.943905D+01
   xx         0.111096D+03      0.164628D+02      0.183173D+02
   yx         0.171737D+01      0.254488D+00      0.283156D+00
   yy         0.571243D+02      0.846495D+01      0.941853D+01
   zx        -0.359971D+00     -0.533422D-01     -0.593512D-01
   zy        -0.112370D+01     -0.166515D+00     -0.185273D+00
   zz         0.512522D+02      0.759480D+01      0.845035D+01

 ----------------------------------------------------------------------

 Dipole orientation:
     6          1.67534740         -0.29918603         -0.67706405
     1          3.22367934          1.06346791         -0.56121419
     1          2.34840289         -2.10267413         -1.42798014
     6          0.05285771         -0.46746554          1.58552013
     1         -0.45552861          2.85777007         -5.09865981
     6         -0.14384920          1.71031193          3.34764414
     1         -2.10536228          2.11772886          3.84470353
     1          0.83559893          1.27185689          5.12387435
     1          0.70848999          3.40698389          2.55891665
     6         -1.42379124         -2.80210014          2.08956376
     1         -3.36631323         -2.37591734          2.64100380
     1         -1.45541910         -4.04543019          0.45268969
     1         -0.57492284         -3.84654087          3.66957251
     8         -0.45416471          0.62986734         -1.92795814
     8          0.45997030          1.27843385         -5.04227542

 Electric dipole moment (dipole orientation):
 (Debye = 10**-18 statcoulomb cm , SI units = C m)
                  (au)            (Debye)         (10**-30 SI)
   Tot        0.142631D+01      0.362532D+01      0.120928D+02
   x          0.000000D+00      0.000000D+00      0.000000D+00
   y          0.000000D+00      0.000000D+00      0.000000D+00
   z          0.142631D+01      0.362532D+01      0.120928D+02

 Dipole polarizability, Alpha (dipole orientation).
 (esu units = cm**3 , SI units = C**2 m**2 J**-1)
 Alpha(0;0):
               (au)            (10**-24 esu)      (10**-40 SI)
   iso        0.731577D+02      0.108408D+02      0.120621D+02
   aniso      0.572488D+02      0.848340D+01      0.943905D+01
   xx         0.520370D+02      0.771109D+01      0.857974D+01
   yx         0.245127D+01      0.363241D+00      0.404160D+00
   yy         0.612706D+02      0.907936D+01      0.101022D+02
   zx        -0.717314D+01     -0.106295D+01     -0.118269D+01
   zy        -0.140201D+02     -0.207757D+01     -0.231160D+01
   zz         0.106165D+03      0.157321D+02      0.175043D+02

 ----------------------------------------------------------------------
 1\1\GINC-CNODE1310\Freq\UB3LYP\CC-pVTZ+d\C4H9O2(2)\LMOSKALEVA\09-Apr-2
 022\0\\#N Geom=AllCheck Guess=TCheck SCRF=Check GenChk UB3LYP/CC-pVTZ+
 d Freq\\QOOHisob-OH-Elim-TS5-b3lyp-c-N1\\0,2\C,0.4176488794,-0.0281162
 694,0.8741826483\H,0.6367382237,0.8596474576,1.4732813\H,0.6129570746,
 -0.9378141344,1.4485272372\C,-0.8635965033,0.0001986193,0.1418901836\H
 ,2.9321419437,0.631132519,-0.7930878122\C,-1.4938543317,1.2987344655,-
 0.2116938491\H,-1.8250096598,1.318056731,-1.2523905125\H,-2.3891596738
 ,1.4592448176,0.4036296844\H,-0.8177070577,2.1340663346,-0.0419841115\
 C,-1.5183244065,-1.2704136425,-0.2642139632\H,-1.8734862477,-1.2317041
 834,-1.2962187087\H,-0.8469617409,-2.1194271969,-0.1550711326\H,-2.400
 2871413,-1.4534697448,0.3642415358\O,1.0320713319,-0.0200103041,-0.379
 6807272\O,2.7614448493,-0.0226916991,-0.1021136924\\Version=ES64L-G16R
 evB.01\State=2-A\HF=-308.2460487\S2=0.799642\S2-1=0.\S2A=0.750282\RMSD
 =1.396e-09\RMSF=7.384e-06\ZeroPoint=0.1221652\Thermal=0.1308346\Dipole
 =-1.3719746,0.3809703,0.0831476\DipoleDeriv=0.085559,0.0017793,-0.0319
 628,-0.0026923,0.339806,-0.0040702,-0.0379504,-0.017472,0.616154,0.042
 0144,-0.035333,-0.0427712,-0.0409035,-0.111464,-0.1340216,-0.0033317,-
 0.0654295,-0.0586714,0.0496915,0.0316618,-0.0357858,0.039255,-0.114857
 9,0.1326375,-0.0059052,0.0679776,-0.0538061,-0.0488131,-0.0027439,0.06
 82866,0.0127473,0.4425279,0.0094812,0.2749928,0.0107965,-0.0250021,0.2
 964513,-0.0034937,-0.0102058,0.0870902,0.1973367,0.0979002,-0.1117753,
 0.1029456,0.198963,-0.0892572,0.0654242,-0.0416773,-0.0178737,-0.09611
 33,0.0080701,0.0205087,0.0066371,0.0905858,0.056163,0.0052992,-0.04847
 85,0.0553131,0.0358356,-0.0247765,-0.1137761,0.028603,-0.0972314,-0.09
 37494,0.0381599,0.0826348,0.1089188,0.0410706,0.0102918,0.0780096,-0.0
 04974,0.0147544,0.0082586,-0.0997647,-0.0211224,-0.0143953,-0.04387,-0
 .0177453,-0.0480572,-0.0117679,0.0654366,-0.0884813,-0.0675864,-0.0468
 808,0.012612,-0.1031682,-0.0153884,0.0265209,-0.0035508,0.0943731,0.05
 33666,-0.00349,-0.0516609,-0.0472281,0.0361468,0.0337778,-0.1191423,-0
 .020744,-0.0944445,0.0134961,0.0944714,-0.0146776,0.0138498,-0.0383713
 ,0.0116033,-0.0489132,0.0023918,0.0692976,-0.0924328,-0.0441751,0.0817
 325,-0.1100789,0.0394092,-0.0097514,0.0732512,0.0040089,0.009024,1.407
 3886,0.0148917,0.0306681,0.0008928,-0.3378792,0.0101049,0.0892141,0.01
 17786,-0.5412027,-1.5996553,0.0048994,0.0819011,-0.097507,-0.2864089,-
 0.1081136,-0.073646,-0.1112008,-0.2882304\Polar=111.0964474,1.7173689,
 57.1243114,-0.3599709,-1.1236973,51.252246\Quadrupole=-1.8285497,1.251
 4111,0.5771386,2.3348583,-1.127582,-0.8772823\PG=C01 [X(C4H9O2)]\NImag
 =1\\0.39193535,0.00130766,0.61474260,0.11590298,-0.00040807,0.53699110
 ,-0.06063797,-0.04339815,-0.03407486,0.06040338,-0.04480343,-0.2277145
 3,-0.10080001,0.04707540,0.23699088,-0.02991911,-0.09904498,-0.1093684
 4,0.02975149,0.11686769,0.13483368,-0.05873119,0.03984239,-0.03033577,
 0.00399225,-0.00706456,0.00238937,0.05849770,0.04111837,-0.23513971,0.
 09818973,0.00627595,-0.02051706,0.01152216,-0.04289336,0.24534207,-0.0
 2630467,0.09625002,-0.10363642,0.00224127,-0.01260345,0.01017574,0.025
 22036,-0.11453318,0.12850378,-0.17075902,0.00405546,-0.13560237,-0.007
 73146,0.00095966,-0.00421203,-0.00733375,-0.00057475,-0.00421665,0.417
 18404,0.00449235,-0.08243137,0.00061238,-0.02614675,0.00029845,-0.0065
 6135,0.02671562,-0.00060816,0.00694958,-0.00383032,0.53310132,-0.09523
 135,0.00123451,-0.08856051,-0.01331301,0.00152922,-0.00347754,-0.01268
 814,-0.00102527,-0.00327893,0.19463882,0.00278539,0.25654179,-0.005914
 03,0.00009669,-0.00106935,0.00038795,-0.00018247,0.00001301,0.00020176
 ,0.00019262,-0.00064336,-0.00178250,-0.00010752,0.00138510,0.04583243,
 0.00140429,0.00019676,-0.00000491,0.00009010,-0.00007051,-0.00033521,0
 .00006743,0.00000759,-0.00031004,-0.00036691,0.00022707,-0.00072833,0.
 05745147,0.23550505,-0.00076287,0.00064674,-0.00137572,0.00037745,0.00
 018768,-0.00002182,-0.00003096,-0.00039783,0.00024250,0.00039984,-0.00
 053389,0.00054169,-0.05638418,-0.24905247,0.26524659,-0.01155182,0.018
 79749,-0.00421408,0.00081854,0.00022950,-0.00045439,-0.00219506,-0.000
 57623,-0.00018220,-0.09703182,0.04130014,-0.02277417,0.00008570,0.0001
 7857,-0.00004350,0.51971038,0.00402234,0.00082446,0.00098037,-0.001034
 25,0.00060177,-0.00092406,-0.00134634,0.00053094,-0.00092135,0.0471541
 7,-0.19320388,0.02932034,-0.00016932,0.00016503,-0.00000892,0.05111405
 ,0.51770343,-0.00583185,0.01974283,-0.00312872,0.00172239,0.00111677,0
 .00093347,-0.00403680,0.00090643,-0.00046471,-0.03092035,0.03137549,-0
 .07758816,-0.00035399,0.00008277,-0.00000727,0.02578436,0.01285687,0.5
 2296160,0.00041453,0.00326883,-0.00250070,0.00040376,0.00013794,0.0003
 2243,-0.00105026,0.00032415,0.00007095,-0.00935066,0.00377889,-0.01493
 961,-0.00009890,-0.00002718,-0.00004414,-0.06385780,-0.00435102,-0.073
 45952,0.07077223,-0.00092986,-0.00421173,0.00079059,0.00000778,0.00013
 526,0.00022126,0.00130999,0.00011020,0.00049739,0.01256017,-0.00068568
 ,0.02824784,0.00003715,-0.00009473,0.00006804,-0.00303619,-0.04878049,
 0.00188907,-0.00259431,0.05053183,0.00211362,0.00105318,-0.00058525,0.
 00019570,-0.00006012,0.00001659,-0.00048641,0.00007374,0.00002982,-0.0
 0535936,0.00199338,-0.00535155,0.00003723,0.00006279,-0.00007086,-0.07
 402526,0.00065712,-0.27892243,0.08169611,-0.00252599,0.30482444,-0.000
 90628,0.00086986,0.00040584,-0.00018190,-0.00004167,-0.00016479,-0.000
 14595,0.00000642,-0.00011118,-0.01510154,0.00752682,0.00459058,0.00004
 416,-0.00000478,-0.00004413,-0.20256095,0.02248218,0.11537321,0.007504
 00,-0.00175613,-0.00457693,0.22520505,0.00066040,-0.00067528,-0.000979
 28,0.00006629,0.00019624,0.00038122,0.00006386,0.00000539,0.00014396,0
 .02521050,-0.00614123,-0.01456928,0.00000944,-0.00012647,0.00010205,0.
 02973951,-0.04906195,-0.02210517,-0.00023685,0.00004424,-0.00052864,-0
 .03309559,0.05181761,-0.00017566,0.00008786,-0.00078103,-0.00007830,-0
 .00013669,-0.00018487,-0.00008613,-0.00006693,-0.00003340,-0.00697808,
 -0.00064715,0.00590134,0.00002443,0.00000794,-0.00000859,0.11092128,-0
 .01684352,-0.11845625,0.02596643,-0.00412943,-0.01910911,-0.12548015,0
 .02012308,0.13021687,0.00058713,0.00095937,0.00004980,0.00026039,0.000
 03762,-0.00009747,0.00009384,-0.00007761,0.00015392,0.00928952,0.01281
 037,0.00306118,-0.00007403,0.00002794,0.00005692,-0.15252187,-0.131284
 66,-0.02927987,-0.00569661,-0.00529929,-0.00040279,-0.01592564,-0.0191
 8149,-0.00478708,0.16432586,-0.00189541,0.00043981,-0.00122992,0.00075
 050,0.00053681,0.00070078,-0.00023438,0.00041778,0.00024945,-0.0175755
 7,-0.02434612,-0.00577568,0.00014695,-0.00011250,0.00000758,-0.1267610
 5,-0.20089009,-0.03043766,0.00130716,0.00097623,-0.00042807,0.00309296
 ,0.00430035,0.00158172,0.13876423,0.22106918,0.00033037,0.00107246,0.0
 0097096,-0.00014418,-0.00012784,-0.00037965,-0.00003354,-0.00021085,-0
 .00018354,0.00609591,0.00422938,0.00011883,0.00010504,-0.00002058,-0.0
 0000059,-0.02976949,-0.03100262,-0.05501649,-0.01904886,-0.02349557,-0
 .00291987,0.01150612,0.01470835,0.00268744,0.03175623,0.03370889,0.053
 77695,-0.01139903,-0.01836447,-0.00538128,-0.00221986,0.00068248,-0.00
 013396,0.00088133,-0.00019348,-0.00044659,-0.09906526,-0.04241024,-0.0
 2546115,0.00000176,0.00016823,-0.00031823,0.01535573,0.01179547,0.0018
 8367,-0.00035344,0.00023984,-0.00002503,-0.00037793,-0.00161588,0.0001
 1052,-0.00118614,0.00421789,-0.00128898,0.51891336,-0.00348348,0.00222
 081,-0.00069180,0.00160343,0.00054267,0.00094166,0.00086638,0.00060163
 ,0.00085758,-0.04759435,-0.18856008,-0.03323320,0.00003732,-0.00008259
 ,0.00001974,-0.01260210,-0.02621599,-0.00650004,-0.00098284,0.00151931
 ,-0.00068883,-0.00062409,0.00072136,-0.00015905,0.00254664,-0.00310831
 ,0.00081121,-0.05257094,0.51967066,-0.00691306,-0.01968151,-0.00358398
 ,-0.00395389,-0.00076794,-0.00038536,0.00177429,-0.00114668,0.00097668
 ,-0.03354060,-0.03565563,-0.08033110,-0.00010168,0.00000844,0.00018137
 ,0.00138287,0.00524897,0.00293878,0.00053714,0.00074494,0.00059931,0.0
 0016164,0.00057624,0.00032295,-0.00075349,0.00191426,0.00054754,0.0241
 1973,-0.01217387,0.52233810,0.00036399,-0.00328130,-0.00261519,-0.0010
 7198,-0.00028278,0.00006158,0.00038995,-0.00012957,0.00031740,-0.00989
 137,-0.00271076,-0.01535702,-0.00002655,-0.00005249,-0.00001910,-0.000
 30338,0.00100848,0.00054068,0.00056730,-0.00026715,0.00031473,0.000118
 48,0.00019954,0.00019247,-0.00012348,0.00011888,0.00015149,-0.06754905
 ,0.00845224,-0.07813132,0.07479189,0.00066521,-0.00418609,-0.00087253,
 -0.00126621,0.00015931,-0.00047324,-0.00001185,0.00011563,-0.00022601,
 -0.01270721,0.00121838,-0.02763510,-0.00001707,0.00008947,-0.00008307,
 -0.00016764,0.00153711,-0.00070003,0.00020124,-0.00039388,0.00060772,-
 0.00003791,-0.00008784,0.00007351,-0.00004530,0.00032523,0.00034824,0.
 00727298,-0.04958784,0.01095799,-0.00207116,0.05111770,0.00213070,-0.0
 0124779,-0.00054807,-0.00051831,-0.00004917,0.00000824,0.00019393,0.00
 006763,0.00000489,-0.00580739,-0.00128687,-0.00658139,0.00003314,0.000
 06084,-0.00007744,0.00004945,0.00074893,0.00062525,0.00028644,-0.00065
 749,0.00043820,0.00005549,0.00000653,-0.00010081,0.00002202,0.00008251
 ,0.00038954,-0.07886552,0.01187120,-0.27533746,0.08723489,-0.01164025,
 0.30084145,0.00064198,-0.00095286,-0.00003302,0.00010442,0.00009055,0.
 00015434,0.00023897,-0.00002543,-0.00011176,0.00957374,-0.01352261,0.0
 0226898,-0.00000937,-0.00000668,0.00001272,-0.00143650,-0.00258652,-0.
 00083602,-0.00011405,0.00005063,0.00002731,0.00007631,-0.00009111,-0.0
 0010793,0.00046614,-0.00080796,0.00014015,-0.15120152,0.13321325,-0.01
 997176,-0.00603496,0.00588065,-0.00002015,0.16285742,0.00177254,0.0004
 0691,0.00115294,0.00025202,0.00039392,-0.00021418,-0.00070024,0.000529
 88,-0.00062954,0.01670974,-0.02446934,0.00411478,-0.00002129,0.0000059
 1,-0.00002986,-0.00412631,-0.00287735,-0.00209068,-0.00011293,0.000329
 07,-0.00008292,0.00013837,0.00027522,-0.00017936,0.00073707,-0.0012855
 0,0.00023497,0.12864921,-0.20652922,0.01969354,-0.00029503,-0.00026890
 ,0.00056114,-0.14044827,0.22719301,0.00037450,-0.00109555,0.00100947,-
 0.00000764,0.00024538,-0.00019686,-0.00015991,0.00015615,-0.00044310,0
 .00674774,-0.00515134,0.00000139,0.00002302,0.00005889,-0.00001560,-0.
 00135291,-0.00085574,0.00041063,0.00011327,-0.00036805,0.00036508,-0.0
 0026445,0.00041215,-0.00002215,0.00014499,-0.00029483,0.00065686,-0.02
 062276,0.02000195,-0.05125423,-0.01877200,0.02372315,-0.00125121,0.021
 56805,-0.02156224,0.04975238,-0.00075687,-0.00079915,0.00026464,-0.000
 15243,0.00001511,-0.00011749,-0.00020302,0.00007732,-0.00019839,-0.015
 55492,-0.00770930,0.00480704,0.00005907,0.00004130,-0.00008581,-0.0004
 5206,0.00059201,0.00017771,0.00013397,0.00004021,0.00007029,0.00042189
 ,-0.00024946,-0.00000126,0.00008638,-0.00012327,-0.00026368,-0.1972397
 6,-0.02644964,0.11614121,0.00803754,0.00205676,-0.00512201,-0.01556877
 ,-0.00358056,0.01167225,0.21946753,-0.00044920,-0.00060273,0.00082109,
 -0.00006242,0.00001956,-0.00013185,-0.00005509,0.00021514,-0.00035957,
 -0.02442516,-0.00682954,0.01439341,0.00004112,0.00008136,-0.00016109,0
 .00150190,0.00063206,-0.00055451,-0.00021453,-0.00004880,-0.00004072,0
 .00027048,-0.00080269,-0.00013880,0.00014653,0.00024850,-0.00042926,-0
 .03345452,-0.05032066,0.02526022,-0.00115402,-0.00029478,0.00158521,0.
 01917284,0.00507734,-0.01515993,0.03726265,0.05316347,-0.00004821,-0.0
 0000146,-0.00071439,-0.00007969,0.00008044,-0.00004283,-0.00007244,0.0
 0017034,-0.00021090,-0.00771174,0.00035490,0.00667219,0.00001008,-0.00
 000261,-0.00006103,0.00025023,0.00015795,0.00026748,0.00017070,-0.0001
 0053,-0.00008394,-0.00000863,0.00009734,0.00010916,-0.00009904,0.00019
 834,-0.00001265,0.11108610,0.01970425,-0.12181355,0.02532130,0.0048148
 9,-0.01920887,-0.00328752,-0.00131057,0.00161049,-0.12599375,-0.023742
 90,0.13396246,-0.05131653,-0.00357454,0.11568580,0.00357023,0.00282330
 ,0.00624923,0.00320290,-0.00312659,0.00727840,0.06024203,0.00005169,-0
 .03668174,-0.00776325,0.00266301,-0.00635935,-0.00039037,0.00593853,-0
 .00755873,0.00042616,-0.00102257,0.00182180,0.00415841,-0.00630316,0.0
 0181697,0.00033310,-0.00310569,0.00129974,-0.00111014,-0.00535216,-0.0
 0741377,0.00052567,0.00083077,0.00167037,0.00049363,0.00312461,0.00150
 442,0.00425955,0.00613071,0.00200242,-0.12056437,-0.00168062,-0.064591
 54,0.00421277,0.01543973,0.00839777,-0.02462541,-0.01610056,0.00858633
 ,0.02559899,0.00154015,-0.00927960,0.00045283,-0.01172052,0.00099274,-
 0.00298157,0.00478685,-0.00064481,-0.00556443,-0.00045720,0.00048738,-
 0.00005723,0.00141514,-0.00074739,0.00043016,-0.00003810,0.00125359,0.
 00009417,-0.00446547,-0.00083766,0.00489472,0.00033787,0.00029405,-0.0
 0008003,-0.00010330,0.00115284,0.00003052,-0.00130611,-0.00060470,-0.0
 0041763,0.00665933,0.06609126,0.03055174,0.00187333,-0.23356514,0.0188
 8915,-0.00616670,-0.03276293,0.01893447,0.00643863,-0.03213893,0.03241
 614,0.00089752,-0.00808321,0.01434523,-0.00043675,0.00331399,-0.005406
 30,0.00076958,0.00416639,0.00059086,-0.00117282,0.00095815,-0.00124527
 ,0.00112062,-0.00025535,0.00023464,-0.00055105,-0.00040169,-0.00482125
 ,-0.00087912,0.00364239,0.00053767,0.00105939,0.00094570,0.00024483,0.
 00058254,-0.00035712,-0.00112701,-0.00089411,-0.00022165,-0.09674085,-
 0.00960728,0.32748201,-0.02197024,0.00117273,-0.01648244,0.00205470,0.
 00032336,-0.00384221,0.00216053,-0.00039783,-0.00306750,-0.06268704,-0
 .00023838,0.02569448,-0.03094421,-0.06163430,0.06324534,-0.00366873,-0
 .00333514,0.00679511,0.00029977,0.00065972,-0.00140103,-0.00232810,0.0
 0482399,-0.00133752,0.00008538,0.00210477,-0.00083634,-0.00345006,0.00
 294032,0.00666270,0.00020595,-0.00058327,-0.00134305,-0.00008745,-0.00
 209890,-0.00096857,-0.00253810,-0.00471130,-0.00153982,0.10393300,0.00
 569282,-0.00740405,0.01893460,-0.00220117,0.00072164,-0.00177334,0.000
 34657,0.00002945,0.00167552,-0.00045930,-0.00019767,-0.00096384,-0.001
 11560,0.00170979,0.00088854,-0.04579457,-0.23678418,0.25221689,-0.0003
 7848,-0.00032023,-0.00001771,-0.00004135,0.00008178,-0.00003540,-0.000
 24205,0.00028244,-0.00000335,-0.00010331,0.00017505,0.00007904,0.00004
 889,-0.00003410,0.00012632,0.00012724,-0.00003754,-0.00002239,0.000136
 82,0.00006622,-0.00014053,0.00013213,0.00006647,-0.00000277,-0.0057372
 4,-0.01055027,0.00696622,0.05528141,0.24479115,0.01378287,-0.00048158,
 0.00687615,-0.00100759,0.00068473,0.00085259,-0.00058231,-0.00014409,0
 .00045652,-0.00594989,0.00063821,0.00347515,0.04257627,0.25060923,-0.2
 6788723,-0.00016591,-0.00018392,0.00128044,0.00023849,-0.00000924,-0.0
 0018856,-0.00019735,0.00051084,-0.00028621,-0.00005997,0.00027369,-0.0
 0023365,0.00016472,0.00011830,0.00115855,0.00022242,0.00004535,-0.0001
 4804,-0.00004822,-0.00024056,-0.00026603,-0.00022372,-0.00044719,-0.00
 025197,0.01542530,0.00761943,-0.03272260,-0.06417511,-0.25899320,0.287
 88490\\-0.00000356,0.00000335,-0.00003186,-0.00000013,0.00000017,-0.00
 000451,-0.00000189,-0.00000063,-0.00000616,0.00000478,-0.00000783,0.00
 001321,-0.00000385,0.00000066,-0.00000164,-0.00000299,0.00000013,-0.00
 000140,0.00000052,-0.00000057,-0.00000005,0.00000033,0.00000023,0.0000
 0016,0.00000028,-0.00000033,-0.00000081,-0.00000886,-0.00000007,0.0000
 0474,0.00000016,0.00000080,0.00000083,0.00000027,0.00000104,0.00000026
 ,-0.00000127,-0.00000200,0.00000068,-0.00000345,0.00000683,0.00002205,
 0.00001963,-0.00000177,0.00000449\\\@


 IF MATHEMATICALLY YOU END UP WITH THE INCORRECT ANSWER,
 TRY MULTIPLYING BY THE PAGE NUMBER.
 Job cpu time:       0 days  0 hours  0 minutes 33.7 seconds.
 Elapsed time:       0 days  0 hours  4 minutes 23.4 seconds.
 File lengths (MBytes):  RWF=    222 Int=      0 D2E=      0 Chk=     11 Scr=      1
 Normal termination of Gaussian 16 at Sat Apr  9 23:44:00 2022.
